default_name
130476
  93.5633420  57.2607728  61.4644212  92.5921391  57.5179103  61.3607571
  94.1336384  58.0819206  61.3209684  93.6664611  56.7154282  62.3082608
  93.9115073  56.3537663  60.3738026  94.7099167  56.8052070  59.7848689
  94.3868066  54.9805610  60.8745560  95.1358582  55.1463453  61.6488534
  93.5302633  54.4607135  61.3037321  94.9946385  54.1244393  59.7475644
  95.5862237  54.7277364  58.8272005  94.8898334  52.8659865  59.7644543
  92.6865099  56.1841479  59.4411350  91.5092009  56.3692958  59.8490049
  92.9877792  55.8121472  58.1834254  93.9563734  55.6277585  57.9645067
  92.0061161  55.6808896  57.1235146  91.0077217  55.9466506  57.4709034
  92.3663147  56.5821690  55.9154776  91.7297432  56.3141705  55.0722375
  92.1575541  58.0577753  56.2630144  92.7941843  58.3266502  57.1059307
  92.4158047  58.6744079  55.4021020  91.1137639  58.2248148  56.5289099
  93.7302669  56.3570052  55.5012786  93.9351008  56.9228666  54.7533185
  91.8727476  54.2658448  56.6098425  91.0304231  54.0334136  55.7269138
  92.6996993  53.3324694  57.0700460  93.5231348  53.5319227  57.6198383
  92.4248709  51.9472076  56.7162210  92.2113685  51.8770739  55.6496390
  93.6242068  51.0577928  57.0330946  94.5158073  51.5031768  56.5917546
  93.7431585  51.0040733  58.1152520  93.4414258  49.7500463  56.5119744
  94.2072033  49.2112506  56.7238325  91.1914018  51.4311483  57.4504382
  90.4559422  50.5823457  56.9265181  90.9324580  51.9444462  58.6428360
  91.3943339  52.7833943  58.9636727  89.9989626  51.2880332  59.5382785
  90.2411568  50.2293606  59.6313030  90.0902849  51.9338541  60.9221320
  90.2032588  52.9942800  60.6966699  89.1693098  51.7785148  61.4840702
  91.2776011  51.4622118  61.7529916  92.1586308  52.0734879  61.5574690
  90.8706334  51.6126229  63.2068107  89.9898812  51.0012337  63.4032225
  91.6888412  51.2871533  63.8492328  90.6403797  52.6576973  63.4139413
  91.7148693  50.0627147  61.3924667  92.0064236  50.0317043  60.3426410
  92.5634395  49.7753586  62.0133180  90.8908601  49.3693389  61.5608050
  88.5431509  51.3320925  59.0871278  87.7797888  50.3859005  59.3609983
  88.0938025  52.4281757  58.4613709  88.6048132  53.7842649  58.3507092
  89.2705260  53.8325224  57.4889680  89.1658049  54.0163016  59.2559972
  87.3824592  54.6593972  58.1898363  87.6339133  55.5855411  57.6729925
  86.9429169  54.8928978  59.1595689  86.4338102  53.7908599  57.3534489
  86.6827375  53.8259195  56.2928335  85.3773511  54.0241063  57.4860757
  86.7332480  52.4082403  57.9089299  86.0212465  52.2224755  58.7130714
  86.6137573  51.3135765  56.8659409  85.6554034  50.5250179  56.8722036
  87.6368900  51.1980513  56.0197876  88.3638783  51.8991842  56.0200352
  87.7068672  50.1293261  55.0287706  86.8263162  50.0835665  54.3879623
  88.9396181  50.4103718  54.1512841  89.7329714  50.8197510  54.7766636
  89.4195138  49.1504135  53.4972548  88.6268030  48.7406692  52.8713005
  90.2915716  49.3696259  52.8811702  89.6897314  48.4231638  54.2628858
  88.5860381  51.3959525  53.1642411  89.3473935  51.5806206  52.6094114
  87.7552850  48.7434034  55.6558270  87.5476687  47.7417055  54.9629412
  88.0156984  48.6488740  56.9342077  88.2410673  49.4627837  57.4881564
  88.0832538  47.3425865  57.5691993  88.4080842  46.5858500  56.8551025
  89.0986248  47.3998910  58.7191141  88.8131197  48.1984738  59.4038415
  89.0880186  46.4470747  59.2483859  90.4065653  47.6495699  58.2190540
  91.0278422  47.6821879  58.9501839  86.7255824  46.8323021  58.0535237
  86.5983759  45.6195953  58.3009944  85.7263741  47.7076110  58.1466428
  85.9034317  48.6832761  57.9547380  84.4036164  47.3282436  58.6786302
  83.8633107  48.2242199  58.9842370  83.5730623  46.5924243  57.6181658
  83.9523473  45.5789821  57.4871043  82.5230843  46.5522001  57.9080423
  83.6206988  47.2416578  56.2788703  84.4942079  46.8371041  55.2937555
  84.3179349  47.5721208  54.2200757  84.9188791  47.4095729  53.3253449
  83.3474103  48.4477154  54.4732796  82.9883953  49.1439568  53.8357406
  82.9059311  48.2537997  55.7514313  82.1077966  48.8781765  56.1529738
  84.7008556  46.5791698  59.9698774  84.2898685  45.4192630  60.0951243
  85.4619949  47.2134694  60.8618505  85.8124542  48.1292254  60.6196345
  85.8687354  46.6263004  62.1606676  86.2340674  45.6056651  62.0469336
  86.9738025  47.4734164  62.7977448  86.6039845  48.4952060  62.8830728
  87.3823516  46.9699729  64.1635900  87.7527388  45.9483291  64.0789907
  88.1683193  47.6086324  64.5666630  86.5209527  46.9894874  64.8312065
  88.0831932  47.4609602  61.8969351  88.7993679  47.9843293  62.2640576
  84.6454925  46.5290201  63.0585480  84.5802670  45.5770949  63.8430441
  83.7529848  47.5085831  62.9951103  83.9294734  48.2892829  62.3791079
  82.5030544  47.5102617  63.7909275  82.7479614  47.7066513  64.8347430
  81.5142012  48.5766624  63.3113026  80.6185684  48.4811662  63.9251606
  81.9910691  49.5360303  63.5120767  81.1352950  48.4996176  61.8556151
  81.8747183  49.1436860  60.8844518  82.7522368  49.7126233  61.1916504
  81.5256996  49.0797256  59.5497500  82.1127556  49.6179846  58.8056100
  80.4345546  48.3346643  59.1590952  80.1079424  48.2627861  57.8417502
  80.7019961  48.7659261  57.2800118  79.6905959  47.6732434  60.1126994
  78.8270356  47.0782436  59.8154799  80.0402326  47.7649601  61.4456106
  79.4467002  47.2505408  62.2013831  81.8324600  46.1473941  63.6710764
  81.1840445  45.7330430  64.6491354  81.9383653  45.4984113  62.5173800
  82.4601570  45.9155730  61.7598782  81.2641480  44.2028557  62.2752792
  80.2191077  44.2407659  62.5827734  81.3216494  43.9185254  60.7761735
  80.8299089  44.7919441  60.3478860  82.3695328  43.9086487  60.4762688
  80.6377121  42.6532475  60.2729372  79.9535052  42.2769617  61.0334441
  79.8551861  42.9834544  59.0028385  80.5388377  43.3593906  58.2416609
  79.3620102  42.0836706  58.6350513  79.1056709  43.7432044  59.2244401
  81.6545598  41.5357588  60.0373514  82.1669480  41.3071123  60.9718452
  81.1393581  40.6446998  59.6786282  82.3832344  41.8577630  59.2934121
  82.0175970  43.2076000  63.1465024  81.4151785  42.7106846  64.0970586
  83.3224036  43.0274082  62.9080456  83.7451314  43.5361175  62.1447532
  84.1747281  42.1238193  63.7030073  84.6603767  42.6927742  64.4958092
  83.5564226  41.3419689  64.1440376  85.2365647  41.4817803  62.8361105
  84.9146762  41.1675249  61.6736944  86.4519788  41.2773731  63.3558144
  86.6632392  41.6409536  64.2741159  87.5240301  40.5741119  62.6156910
  87.7254842  41.0296577  61.6461585  88.8026734  40.5561090  63.4146036
  88.6190467  40.0944837  64.3848012  89.5590990  39.9836351  62.8777664
  89.1555189  41.5771749  63.5595989  86.9983076  39.1646530  62.3346369
  87.2161860  38.6768906  61.2105880  86.3373561  38.5403447  63.3158354
  86.3143897  38.9585322  64.2349061  85.6830969  37.2221161  63.1262380
  85.3304459  36.8532613  64.0894009  84.4946660  37.3193251  62.1772284
  84.8621421  37.6695705  61.2126618  84.0815498  36.3168172  62.0658141
  83.4160210  38.2565344  62.6763563  82.9906337  38.2126313  63.8493734
  82.9378273  39.1041538  61.8985574  86.7154831  36.2138027  62.6029992
  87.7686348  36.0892975  63.2564476  86.4387244  35.5180611  61.4937768
  85.5302611  35.6505798  61.0727868  87.3247260  34.4617166  60.9394643
  88.3575595  34.8064590  60.9895332  87.2108418  33.1351905  61.7124526
  87.9719675  32.4767280  61.2938667  87.4615205  33.3675859  62.7474659
  85.8620618  32.4441014  61.6623580  85.1142662  33.1287120  62.0626214
  85.6314329  32.2239386  60.6200334  85.8321221  30.9227488  62.6057986
  86.8213340  29.8361577  61.5562873  87.8215053  30.2537451  61.4406281
  86.8906927  28.8503894  62.0162339  86.3497705  29.7475058  60.5775790
  87.0550839  34.3301462  59.4419519  86.0474996  34.9019360  59.0225615
  87.9404553  33.6944854  58.6699728  88.8380995  33.4946534  59.0875867
  87.7489524  33.3859485  57.2190122  88.4872459  32.6465547  56.9086597
  86.3433827  32.8250378  56.9389318  85.6326575  33.5594079  57.3179693
  86.2463544  32.7516996  55.8557388  86.0530286  31.4616292  57.5701912
  86.3379655  31.5123436  58.6210670  84.9783106  31.2968368  57.4932236
  86.7919560  30.3114289  56.8991686  86.7582492  29.1684913  57.4226938
  87.4040682  30.5438909  55.8351070  88.0638612  34.5693065  56.2898990
  87.3167771  35.5657696  56.3342221  89.1265585  34.4576915  55.4845055
  89.7091870  33.6518582  55.6613557  89.5675652  35.4341855  54.4516108
  88.7196790  36.0774281  54.2161811  90.7519311  36.3186766  54.8794972
  90.4535355  36.8142872  55.8033096  91.5862186  35.6468617  55.0813116
  91.1803868  37.3693467  53.8527980  91.5418247  36.8434533  52.9691127
  90.2916163  37.9449642  53.5942431  92.2643678  38.3108064  54.3617673
  92.0275802  39.5434864  54.4272558  93.3579240  37.8177380  54.7075250
  89.8543513  34.5768756  53.2188450  90.5720086  33.5802246  53.4110785
  89.3096553  34.9255255  52.0486550  88.7445887  35.7620290  52.0160834
  89.4554838  34.1264544  50.8071598  89.9628027  33.1873552  51.0281113
  88.0834095  33.8122325  50.2142748  87.5155399  34.7249631  50.0338690
  88.2306361  33.2843221  49.2720779  87.2201236  32.9313981  51.0696713
  86.3655172  33.4728371  52.0235757  86.3353572  34.5542830  52.1564859
  85.5533933  32.6511726  52.8052337  84.8967118  33.0941517  53.5539924
  85.5793702  31.2734737  52.6322541  84.9432154  30.6300832  53.2400828
  86.4264539  30.7131814  51.6733534  86.4608373  29.6332776  51.5293887
  87.2332348  31.5474554  50.8959910  87.8884228  31.1194299  50.1372929
  90.3117513  34.9081207  49.8211553  89.7837302  35.8789780  49.2325750
  91.5725627  34.5063250  49.6407257  91.9100786  33.7392157  50.2043974
  92.5234686  35.1724969  48.7182714  92.2174228  36.2108898  48.5910890
  93.9628463  35.1469609  49.2347505  94.2478115  34.1213583  49.4693425
  94.6348555  35.5454152  48.4746598  94.1951306  35.9491115  50.4735497
  94.2259863  37.3290112  50.4539827  94.4423609  37.7760647  51.6782572
  94.5013766  38.8463802  51.8758447  94.5533963  36.7361967  52.4889850
  94.7210376  36.7718467  53.4843369  94.4030291  35.5837386  51.7558016
  94.4635856  34.6129829  52.2478051  92.4446025  34.5324048  47.3286714
  93.4138157  34.7475226  46.5713655  91.3676463  33.7968359  46.9711010
  90.6240607  33.6117801  47.6290783  91.2527981  33.2595812  45.6469207
  92.2012071  32.8014142  45.3663809  90.4677804  32.5034330  45.6376219
  90.9149936  34.3223585  44.6556577  90.4877432  35.4077679  45.0364432
  91.1259808  33.9990792  43.3898631  91.5627031  33.1351541  43.1017551
  90.7603971  34.9405175  42.3829115  90.1488876  35.7310573  42.8178851
  92.0415965  35.5870694  41.7545170  92.6300845  36.0710231  42.5339848
  92.6431431  34.8174666  41.2708300  91.6167569  36.6252079  40.7198741
  91.0124563  36.1139279  39.9705314  91.0065348  37.3689803  41.2322545
  92.7821979  37.3088634  40.0453029  93.4097196  37.8405346  40.7605939
  93.3929396  36.6052124  39.4796447  92.1999999  38.2869632  39.1096687
  91.1926294  38.3108671  39.0408749  92.8971215  39.1371879  38.3925923
  92.2467469  39.9774101  37.5697044  91.2388414  39.9449317  37.5133879
  92.7688299  40.6375231  37.0113318  94.2038641  39.2191813  38.4710459
  94.7078849  38.6125303  39.1019482  94.6999678  39.8885870  37.9001906
  89.9503609  34.1955432  41.3769374  90.4092554  33.2054269  40.8104885
  88.7408183  34.6809976  41.1478811  88.4685422  35.5240718  41.6328460
  87.7695827  34.0479593  40.2632541  88.1980630  33.2329239  39.6799694
  86.5839926  33.4983748  41.0807098  86.2258157  34.2763246  41.7549528
  85.4428088  33.0664122  40.1447495  85.8001243  32.2880979  39.4704705
  84.6129314  32.6806017  40.7368246  85.1053592  33.9239306  39.5626063
  87.0375114  32.4163366  41.9071814  86.3004294  32.0725828  42.4172243
  87.3034056  35.0847584  39.2488698  86.5451360  35.9948077  39.6134952
  87.7252112  34.9294404  37.9787646  88.2370642  34.0941473  37.7330182
  87.5132859  35.9460320  36.9416291  86.6859401  36.6005577  37.2158448
  88.7836606  36.7963516  36.7941375  89.5389694  36.1278109  37.2072491
  88.9535367  36.9188181  35.7244441  88.8759599  38.1491234  37.4793362
  89.8410426  38.6157228  37.2818490  87.7432090  39.0353502  36.8931055
  86.7777238  38.5695981  37.0906206  87.7732553  40.0200088  37.3596303
  87.8825384  39.1392925  35.8170555  88.7999090  38.1279988  38.9953290
  89.6195388  37.5291622  39.3924450  88.8758716  39.1459127  39.3776668
  87.8496323  37.6937311  39.3059491  87.1435652  35.3317311  35.5934099
  87.9086268  34.5582273  35.0105388  85.9959847  35.7371996  35.0707127
  85.4523361  36.4302215  35.5649455  85.4441681  35.1702934  33.8464444
  85.7439540  34.1243459  33.7814718  83.9170613  35.2454396  33.7922340
  83.6015678  35.5225254  32.7863580  83.4903164  34.2767813  34.0524067
  83.3085629  36.2435552  34.7208717  82.4905531  35.8668208  35.7661005
  82.0987575  36.9415645  36.4243643  81.4434394  36.8550048  37.2910618
  82.6327345  38.0041448  35.8415225  82.5087317  38.9651003  36.1266328
  83.3917144  37.5909169  34.7745674  83.9161351  38.3244463  34.1621796
  86.0589751  35.8748700  32.6376395  87.0292004  36.6226671  32.7609089
  85.4910719  35.6784722  31.4513420  84.6053307  35.1949002  31.4098687
  86.1160398  36.0881975  30.1957982  86.9945821  36.6985870  30.4048132
  86.5533916  34.8608209  29.3804045  86.5950827  34.0133757  30.0646543
  85.7937388  34.6767122  28.6207127  87.9016129  35.0374357  28.7133172
  87.9858843  35.7771574  27.7103515  88.8776962  34.4251226  29.1973492
  85.1778462  36.9527618  29.3543437  84.0176969  37.1475662  29.6665146
  85.6804724  37.4074285  28.2220994  86.5352980  37.0076783  27.8621379
  85.0658599  38.5064136  27.4837620  84.6384911  39.2385502  28.1689126
  86.1380172  39.1928161  26.6436594  86.9374804  38.4707877  26.4774279
  85.6981281  39.4737741  25.6867581  86.7011801  40.4201463  27.3178183
  86.5164402  40.5840159  28.5459746  87.3202515  41.2197447  26.5982636
  83.9300726  38.0141862  26.5989584  84.1223099  37.1387792  25.7449617
  82.7593900  38.6220599  26.7747334  82.7222809  39.4055766  27.4109911
  81.5154256  38.1759623  26.1521392  80.7117739  38.8702128  26.3976168
  81.6630954  38.1182153  24.6361917  82.4996828  37.4592035  24.4039759
  80.7436100  37.6927052  24.2342120  81.9038492  39.4767439  24.0143655
  81.1843965  40.4628326  24.2759945  82.8527907  39.6232502  23.2202422
  81.0560420  36.8225657  26.6808815  80.2831902  36.1397413  26.0010573
  81.5315463  36.4236285  27.8770080  82.1633458  37.0223122  28.3893619
  81.1696229  35.1403272  28.4620544  81.0689548  34.4038269  27.6648515
  82.2193852  34.6420220  29.4587273  83.1648369  34.4994919  28.9353674
  82.3471698  35.3895929  30.2416123  81.8119933  33.4162748  30.0389622
  82.4805041  33.1185605  30.6602990  79.8529134  35.2403354  29.1925273
  79.6494268  36.1353691  30.0168214  78.9862249  34.2638463  28.9477132
  79.2503218  33.5444394  28.2898333  77.6386676  34.2262406  29.5113693
  77.3484184  35.2274781  29.8297686  76.5913790  33.6806145  28.4978701
  76.8957306  32.6833542  28.1801555  75.2130286  33.6110174  29.1313355
  74.9077777  34.6080484  29.4489072  74.4974665  33.2268461  28.4043665
  75.2430622  32.9481318  29.9960782  76.5418802  34.5666541  27.2472684
  76.1331423  35.5284685  27.5570217  77.5708346  34.7002909  26.9133618
  75.7005634  34.0007576  26.0962092  74.6713061  33.8672748  26.4292432
  75.7227082  34.6932097  25.2547112  76.1089974  33.0390955  25.7855848
  77.7034414  33.4018208  30.7858599  78.0689037  32.2253110  30.7357887
  77.4162975  34.0330142  31.9178971  77.2350708  35.0265959  31.9107037
  77.4407256  33.3489053  33.1938255  77.7554499  32.3144284  33.0563289
  78.4254211  34.0377404  34.1404570  78.1275928  35.0825750  34.2283105
  78.3449953  33.5544464  35.1141400  79.8564627  33.9606997  33.6563469
  79.8580073  34.2930956  32.6182662  80.5112668  34.6039087  34.2442379
  80.3909637  32.5465397  33.7119274  81.2447140  32.2078211  34.5764626
  79.9402225  31.7092158  32.7488334  80.2576792  30.7506231  32.7282790
  79.2884376  32.0467424  32.0550368  76.0464797  33.2535517  33.8263246
  75.0406378  33.7938602  33.3015402  75.9853372  32.4559016  34.9093799
  76.7949902  31.9042333  35.1547846  74.7847246  32.3280952  35.7322601
  74.0729766  33.1279532  35.5279536  74.0598738  30.9848173  35.6091712
  73.3561267  30.8639553  36.4327194  73.2962754  30.9648064  34.2765005
  73.9994610  31.0851612  33.4523975  72.7730949  30.0143926  34.1711627
  72.5736449  31.7806482  34.2589237  75.0520667  29.8570220  35.7682332
  75.5254706  29.9243289  36.7477538  74.5343677  28.9018461  35.6803328
  75.8133565  29.9299106  34.9915571  75.1801025  32.5318677  37.1777112
  75.9694564  31.7516357  37.7571183  74.5906274  33.5566382  37.7721744
  73.7642663  33.9366437  37.3330588  75.0821081  34.1932311  38.9852471
  75.7216384  33.5230313  39.5596445  75.8563356  35.4786890  38.6513296
  75.1605077  36.2631879  38.3538648  76.6330431  35.9292633  39.9041110
  77.3294525  35.1454133  40.2019258  77.1870025  36.8409614  39.6804233
  75.9327236  36.1205015  40.7171791  76.7799119  35.2359003  37.4433621
  76.2441855  34.5584907  36.7783703  76.9051565  36.2015317  36.9534954
  78.1810541  34.6367151  37.7766675  78.0566228  33.6707944  38.2661712
  78.7493996  34.5062349  36.8557671  78.7175931  35.3138349  38.4412987
  73.7966904  34.4149699  39.7604691  72.8174449  34.9574744  39.2001628
  73.7332175  33.9926873  41.0151744  74.5763341  33.1108540  41.7739296
  75.5981583  33.4815761  41.6930551  74.5121652  32.1219491  41.3200041
  74.0638028  33.1265936  43.1963494  74.5293374  33.9299414  43.7673213
  74.2566476  32.1730991  43.6880407  72.5572249  33.3602763  43.0265806
  72.1299537  33.8773286  43.8857636  71.9819694  32.4569004  42.8238675
  72.5352470  34.2726195  41.8112170  71.6489711  34.0158547  41.2309713
  72.4906782  35.7412528  42.1760280  73.5202228  36.3769329  42.4046824
  71.2722347  36.2713322  42.2150955  70.5055581  35.7279601  41.8448887
  70.9914599  37.6044598  42.7183332  71.8645157  38.2543439  42.7776914
  69.9235274  38.2950254  41.8591514  68.9916674  37.7384254  41.9588139
  69.7012919  39.7291516  42.2828251  70.6326658  40.2865356  42.1829911
  68.9380857  40.1815178  41.6495940  69.3726687  39.7548561  43.3217898
  70.3439135  38.1350766  40.3995032  70.4069852  37.0751713  40.1530791
  69.6077424  38.6144140  39.7542223  71.3174482  38.6013339  40.2480601
  70.5420510  37.4615982  44.1652320  69.7041782  36.5739983  44.4973185
  71.1285355  38.3160220  45.0381518  71.8916463  38.9000150  44.7271638
  70.6612662  38.4540881  46.4490137  70.3913588  37.4760242  46.8473104
  71.7525361  39.0392200  47.3076647  72.0366882  39.9847855  46.8458610
  71.3220097  39.2304247  48.2906132  72.9925023  38.1513057  47.4574278
  73.3477661  37.8808912  46.4630614  74.0800498  38.8572938  48.1994859
  73.7256609  39.1276344  49.1941835  74.9453535  38.2004905  48.2887032
  74.3637585  39.7595929  47.6577608  72.5932921  36.8601594  48.2346958
  71.8211025  36.3261854  47.6808957  73.4673819  36.2189367  48.3482812
  72.2118851  37.1313636  49.2191124  69.4868659  39.3928788  46.4973130
  69.6237257  40.5817504  46.1551232  68.3473508  38.9697876  47.0028544
  68.1400931  37.7832993  47.6944314  68.9083175  37.6955155  48.4626928
  68.2337994  36.9556129  46.9913997  66.7482953  37.8918335  48.2748176
  66.7738482  38.3613742  49.2581678  66.2840462  36.9088329  48.3540892
  66.0073681  38.7667809  47.2552868  65.1506541  39.3455902  47.6004243
  65.7034991  38.1284869  46.4256218  67.1182990  39.7040430  46.8088326
  67.0268752  39.8194941  45.7288275  66.9781325  41.0685099  47.4794744
  66.0354390  41.8210924  47.1490120  67.7719265  41.3788021  48.4669089
  68.5459208  40.8014503  48.7630456  67.4909946  42.5940536  49.2170356
  66.4993268  42.9656770  48.9589846  67.5339170  42.3176596  50.7275584
  68.5274209  41.9368343  50.9642463  67.3775178  43.2667476  51.2402682
  66.4723134  41.3036338  51.1906603  65.4781910  41.6774811  50.9455893
  66.6476399  40.3661209  50.6629935  66.5371046  41.0367621  52.6971727
  65.6981482  41.5368175  53.4556302  67.5118067  40.2383121  53.1369083
  67.5891351  40.0372081  54.1236600  68.1676969  39.8387804  52.4809481
  68.4724776  43.7043600  48.8633173  68.2909316  44.8584933  49.2951359
  69.5734229  43.3788046  48.1659542  69.7525589  42.4115433  47.9370106
  70.6089604  44.3954030  47.8074465  70.8046524  45.1057732  48.6106763
  71.9516824  43.7716687  47.3614385  72.6800177  44.5751693  47.2518317
  72.4702093  42.7504106  48.3650533  71.7425670  41.9463076  48.4748529
  73.4150327  42.3387803  48.0101310  72.6246972  43.2341263  49.3295501
  71.9163336  43.1643788  45.9608717  71.6631673  43.9374553  45.2353639
  72.8942465  42.7473326  45.7203336  71.1663143  42.3742290  45.9257242
  69.9797818  45.2954690  46.7400377  69.4163816  44.7232092  45.7889857
  69.9751259  46.6227407  46.9294951  70.2964407  46.9857332  47.8155496
  69.4391358  47.5538889  45.9605536  69.2788384  47.0381815  45.0137432
  68.1184606  48.1348932  46.4253255  67.7353010  48.7641957  45.6220409
  67.4340747  47.3031670  46.5925008  68.2348366  48.9352292  47.6663561
  68.9362370  48.4112848  48.3156793  68.6549309  49.8999901  47.3819984
  66.7234151  49.1948793  48.5357270  66.9593863  47.9314669  49.7208703
  67.8681356  48.1305388  50.2888880  66.1063146  47.9046241  50.3988444
  67.0510398  46.9704121  49.2148323  70.4430823  48.6512797  45.6405633
  70.0578950  49.6995329  45.1349132  71.7400677  48.3449007  45.8123852
  71.9828442  47.3999878  46.0737252  72.8371055  49.3311063  45.6372841
  72.4384047  50.3449343  45.6013706  73.7975942  49.2241849  46.8278409
  73.2163423  49.4396663  47.7243972  74.1471993  48.1923176  46.8614016
  74.9946370  50.1635062  46.7613439  75.4944458  50.0085988  45.8051558
  74.6254271  51.1876134  46.8160305  76.1783144  49.8847157  48.1040775
  77.4995488  49.0600105  47.2160650  77.8751875  49.7162015  46.4309484
  78.3081668  48.8208000  47.9067283  77.1196981  48.1409223  46.7698683
  73.6314896  49.0872246  44.3493530  74.1108482  47.9546830  44.1824466
  73.7802320  50.0984846  43.4864138  73.2337526  50.9352807  43.6321256
  74.6582054  50.0392080  42.3211276  74.4266773  49.1686060  41.7074941
  74.5075634  51.3170306  41.4759185  74.5336735  52.1716305  42.1519937
  75.6262836  51.4634907  40.4163366  75.6005083  50.6094290  39.7395686
  75.4718521  52.3810658  39.8486152  76.5954406  51.5032632  40.9135810
  73.1603466  51.3640105  40.7573737  73.2346500  50.6802548  39.9117627
  72.4183059  50.9896184  41.4625727  72.7365812  52.7492336  40.2579720
  73.4779538  53.1241049  39.5523247  71.7682984  52.6769321  39.7626941
  72.6616119  53.4334694  41.1031352  76.0905663  49.8626740  42.7948945
  76.6031453  50.6405840  43.6072698  76.7721458  48.8908631  42.2137740
  76.2743217  48.4092335  41.4787206  78.1322965  48.4749203  42.5117821
  78.5521157  49.1187070  43.2846920  78.1592621  47.0267561  43.0127124
  77.4157839  46.9963963  43.8092158  77.8609489  46.3500681  42.2119612
  79.5085853  46.5959913  43.5630854  80.2879837  46.8458822  42.8432288
  79.7838739  47.3145561  44.8798143  79.0050904  47.0647721  45.6003717
  80.7525636  47.0016549  45.2694731  79.7909991  48.3915401  44.7120197
  79.5537002  45.0751119  43.7322492  79.3952441  44.5966596  42.7657739
  80.5262984  44.7816456  44.1272575  78.7717247  44.7626412  44.4243296
  78.9962692  48.5484304  41.2537990  78.5074065  48.4799222  40.1354047
  80.3056572  48.5972024  41.4498253  80.6432156  48.2875589  42.3499778
  81.2848009  49.0545965  40.4606669  81.0151311  48.8489408  39.4247697
  81.5611691  50.5739746  40.6087167  81.6692744  50.7949113  41.6706016
  82.8116620  51.0076618  39.8734828  82.7041104  50.7874534  38.8113896
  82.9601317  52.0790073  40.0086717  83.6722786  50.4691858  40.2703256
  80.3275659  51.3497422  40.1954530  79.4897844  51.0676745  40.8331535
  80.5181682  52.4180157  40.2982247  80.0857728  51.1225739  39.1571700
  82.5477297  48.2531239  40.7486420  82.9609723  48.1243031  41.9369209
  83.2521119  47.7012645  39.7287974  83.0691233  47.8754807  38.3167589
  83.3455093  48.8964014  38.0532596  82.0181304  47.7112692  38.0789615
  83.9730689  46.8452957  37.6765471  84.2610481  47.1535744  36.6714942
  83.4812377  45.8736297  37.6310657  85.1831361  46.8027476  38.6174909
  85.9070479  47.5999654  38.4486880  85.6910200  45.8388195  38.5859313
  84.5120458  46.9915657  39.9689958  84.2674180  45.9994853  40.3485113
  85.4250655  47.7136869  40.9745986  85.7323217  48.8664845  40.7251328
  85.8356214  47.0477279  42.0620095  85.5200029  46.0945828  42.1715486
  86.7166309  47.6191375  43.1044818  87.3126321  46.8083930  43.5234986
  87.3755294  48.3450615  42.6280508  85.9535202  48.3059845  44.2295704
  86.6312142  48.8164839  45.1423131  84.6146694  48.3092774  44.2004757
  84.1593982  47.9108870  43.3917035  83.7652182  48.9406544  45.2501694
  84.3409088  49.6993985  45.7802514  82.5336423  49.6075188  44.6255364
  82.8916285  50.3027040  43.8661533  81.9458638  48.8221854  44.1502807
  81.6644019  50.3553459  45.6288756  81.2599753  49.6379625  46.3429492
  82.2947856  51.0733679  46.1534352  80.5160394  51.0986757  44.9885088
  80.3610770  51.1228245  43.7696990  79.6860082  51.7133519  45.8161936
  78.8985677  52.2272811  45.4475261  79.8438926  51.6656354  46.8126358
  83.4002795  47.8624316  46.2737950  82.8738589  46.8431549  45.8668547
  83.6384833  48.0792688  47.5659439  83.9948150  48.9828558  47.8428149
  83.4233094  47.0657314  48.6085512  83.7207483  46.0893875  48.2259524
  84.2473426  47.3708772  49.8700972  83.9903747  48.3749797  50.2075079
  83.9737641  46.3601593  51.0066139  84.2309501  45.3558181  50.6700817
  84.5788496  46.6175793  51.8759272  82.9182486  46.3931573  51.2766114
  85.6493635  47.3171395  49.5713186  86.1533649  47.5090697  50.3655136
  81.9431076  46.9977425  49.0056171  81.2200772  48.0046107  49.0050832
  81.4869415  45.7955948  49.3534771  82.0169510  44.9400630  49.2683038
  80.1017699  45.7101204  49.8155471  79.7541269  46.6846722  50.1583185
  79.2145501  45.2544071  48.6610847  79.1456838  46.1623179  48.0618730
  79.8063664  44.5111334  48.1268583  77.8132146  44.7035923  48.9125577
  77.8715735  43.9149203  49.6626855  76.8946894  45.7981868  49.4035286
  76.8354573  46.5870585  48.6536807  75.9000634  45.3876935  49.5776407
  77.2849679  46.2105896  50.3339624  77.2013638  44.0582969  47.6637738
  77.8317127  43.2319575  47.3352576  76.2051826  43.6835134  47.8988517
  77.1315501  44.7999600  46.8680597  79.9725452  44.7817289  51.0130993
  80.3113962  43.6004397  50.8948372  79.5236278  45.2991414  52.2104068
  80.0089853  46.5661259  52.6397232  79.4339966  47.3326763  52.1202151
  81.0559665  46.6355324  52.3445754  79.8281033  46.6214087  54.1395190
  78.8412575  47.0063032  54.3966001  80.5928119  47.2480307  54.5985039
  79.9882465  45.1579774  54.5703948  79.4416543  44.9150532  55.4816158
  81.0311383  44.8616628  54.6829739  79.3679792  44.4329978  53.3869836
  79.9500739  43.5259714  53.2239890  77.9112504  44.0634572  53.6296681
  77.0137325  44.9150567  53.5026284  77.6675370  42.8200230  54.0223971
  78.3859069  42.1274979  54.1787717  76.2824715  42.4335270  54.2263663
  75.6531251  43.3206200  54.2976976  75.7923397  41.5729564  53.0334224
  76.4141208  40.6794445  52.9775318  74.7610081  41.2851099  53.2373822
  75.8577448  42.3195159  51.7094220  76.7254522  42.9776552  51.6642862
  75.9806051  41.2676820  50.6701136  75.1129744  40.6093806  50.7143283
  76.0331410  41.7330772  49.6858636  76.8860831  40.6868015  50.8455782
  74.6309305  43.1350053  51.4668922  74.5174542  43.8679617  52.2656396
  74.7201454  43.6510308  50.5109321  73.7582265  42.4822555  51.4467837
  76.0375031  41.6318636  55.4836540  76.8543936  40.7702203  55.8376395
  74.8574687  41.8680124  56.1064761  74.3322343  42.6889971  55.8415000
  74.3304013  41.0199074  57.2015870  75.0527235  40.2415810  57.4476721
  74.0765438  41.8582725  58.4452526  74.2439144  42.8933798  58.1475291
  73.0241192  41.7171931  58.6914218  74.9001411  41.5481267  59.6216459
  74.7582642  40.5252303  59.9704365  75.9370072  41.6864520  59.3152527
  74.6010006  42.5017771  60.7736722  75.1322200  43.6365451  60.8112419
  73.6901307  42.0902444  61.6847254  73.4575022  42.6860460  62.4663941
  73.2466304  41.1889684  61.5793195  73.0456758  40.3015336  56.7422999
  71.9556698  40.8905861  56.6876925  73.1730276  39.0151953  56.4456176
  74.0851337  38.5819913  56.4678928  72.0338613  38.2069995  56.0264496
  71.2617895  38.8431190  55.5936030  72.4744748  37.1982204  54.9801220
  73.1160844  36.4610283  55.4628063  71.6138637  36.6961980  54.5380562
  73.2591723  37.9172591  53.8882662  73.7896821  38.7703992  54.3111280
  74.2407539  36.9623330  53.3055152  73.7109249  36.1090870  52.8820163
  74.8116184  37.4603295  52.5217971  74.9196396  36.6172105  54.0853261
  72.3363219  38.4336283  52.8350952  71.6295218  39.1329676  53.2817020
  72.9134443  38.9438822  52.0639454  71.7910513  37.6016938  52.3893779
  71.4211554  37.5175434  57.2374809  72.0396013  36.6407004  57.8469339
  70.1979000  37.9228691  57.5660053  69.8026771  38.6468390  56.9831111
  69.4178602  37.4434231  58.6908558  70.0613475  36.9995181  59.4504422
  68.6774902  38.6514329  59.3142341  68.6642304  39.5078228  58.6400533
  67.6543181  38.3445420  59.5311141  69.2704746  39.1376907  60.6211223
  70.5199535  39.7147787  60.6574673  71.0937096  39.8210742  59.7368126
  71.0479434  40.1591370  61.8570516  72.0393888  40.6119396  61.8673705
  70.3228214  40.0323048  63.0501408  70.7569068  40.3654250  63.9928501
  69.0703261  39.4901174  63.0293471  68.4816481  39.3927026  63.9415251
  68.5467357  39.0571994  61.8125941  67.5409744  38.6392013  61.7699122
  68.4065952  36.3589684  58.2907481  67.6037543  35.9587250  59.1242430
  68.2456126  36.0477798  56.9951821  68.9064838  36.4160165  56.3260406
  67.1151338  35.2088404  56.4878022  66.3676012  35.0617596  57.2673287
  66.4567945  35.9240045  55.3085856  65.9141100  36.7929115  55.6808671
  67.2153172  36.2479318  54.5959747  65.4742688  35.1031265  54.5425116
  64.3746977  34.5124933  55.1353638  63.6887502  33.8524237  54.2284210
  62.7841636  33.3077631  54.4989146  64.3003289  34.0010018  53.0567807
  64.0048285  33.6080667  52.1745214  65.4077686  34.7801365  53.2356844
  66.0447662  35.0252566  52.3858307  67.5358890  33.8160317  56.0426392
  68.2146079  33.7986791  55.0982196  66.9978174  32.6721258  56.5362264
  65.8461748  32.6034075  57.2749666  64.9974433  32.8086202  56.6225536
  65.8885017  33.3556253  58.0626696  65.8295318  31.1944203  57.8236196
  64.8095065  30.8719608  58.0325869  66.4252174  31.1264348  58.7339151
  66.4579005  30.3680276  56.6954313  65.8502561  29.9984690  55.8694206
  66.9404589  29.5280105  57.1950396  67.5091275  31.3336471  56.1720206
  68.3891327  31.2259019  56.8061185  67.8759551  30.9708308  54.7191015
  68.8861017  30.3540254  54.5421355  67.0408424  31.3006922  53.7354353
  66.1574851  31.7371912  53.9573538  67.3497540  31.0177540  52.3044760
  67.5850373  29.9596565  52.1897126  66.1680058  31.3562727  51.3973463
  65.2909962  31.4716863  52.0342397  66.3915145  32.3063291  50.9120251
  65.8900844  30.2995906  50.3388939  66.8407914  29.9745644  49.9162651
  65.3846480  29.4473285  50.7930805  65.0253693  30.8352803  49.2249610
  64.9438905  32.0399517  49.0003793  64.3563868  29.9377152  48.5243604
  63.7604251  30.2358167  47.7653699  64.4438069  28.9573085  48.7507712
  68.5686511  31.8085648  51.8299802  69.3936569  31.2338412  51.1138908
  68.6554519  33.0866568  52.1984098  67.9254696  33.5076783  52.7551558
  69.8326057  33.9137636  51.8415453  69.9543293  33.9254342  50.7584264
  69.6624494  35.3512844  52.3291113  69.2495773  35.2931219  53.3362126
  70.6604550  35.7875748  52.3707722  68.7703827  36.2161742  51.4684159
  69.1882058  36.2606285  50.4626582  67.7898342  35.7414220  51.4332851
  68.6314893  37.6226945  52.0206859  68.5620036  37.7622920  53.2541644
  68.6094655  38.5738019  51.2185296  71.0329254  33.2985061  52.5516755
  72.0858270  33.1806250  51.9305828  70.8504348  32.9159769  53.8135553
  69.9824098  33.0814017  54.3027040  71.9622171  32.3218233  54.5555409
  72.8520310  32.9347713  54.4119267  71.6547451  32.2486033  56.0553355
  70.7377409  31.6760766  56.1946756  72.7794914  31.5879131  56.8125140
  73.6967945  32.1601680  56.6740208  72.5315801  31.5509565  57.8733037
  72.9240912  30.5744652  56.4381935  71.4669031  33.6378584  56.6497829
  70.6375266  34.1383568  56.1500449  71.2502047  33.5517623  57.7145500
  72.3783254  34.2193350  56.5108758  72.3139952  30.9355899  53.9924758
  73.4501745  30.4846338  54.1579813  71.4721944  30.3208452  53.1713782
  70.5350014  30.6506336  52.9896963  71.8998902  29.0336808  52.5550980
  72.5680309  28.5127460  53.2408925  70.7233925  28.1397487  52.2566680
  69.9510135  28.7321062  51.7661147  71.0508017  27.3444744  51.5870098
  70.1987532  27.5705286  53.4452147  69.4524851  27.0071177  53.2278396
  72.7220580  29.2898491  51.2876633  73.7902788  28.6815442  51.1603071
  72.2320077  30.1497879  50.3951663  71.3727646  30.6300661  50.6212936
  72.8889132  30.4536873  49.0951720  72.9610486  29.5622682  48.4720607
  72.0276036  31.4862799  48.3717528  71.1550013  30.9469281  48.0032910
  71.7165036  32.2047376  49.1301297  72.6857328  32.2152977  47.2300584
  73.6305886  32.6510033  47.5548800  72.8674598  31.5320314  46.4004654
  71.5818493  33.5336211  46.6819356  70.3210548  33.4628709  47.9529528
  70.7748123  33.6492411  48.9263331  69.5623277  34.2201008  47.7553756
  69.8579030  32.4761645  47.9514979  74.2778850  31.0313384  49.3324708
  75.2205090  30.6203674  48.6553949  74.3842752  31.9418001  50.2850666
  73.5619350  32.2836593  50.7614993  75.6914605  32.5726503  50.5966744
  76.2387304  32.8857353  49.7075328  75.5003982  33.7935920  51.5112550
  74.9350644  33.4722918  52.3860481  76.8197376  34.4009040  51.9564301
  77.3854698  34.7228856  51.0821441  76.6264652  35.2592705  52.5998220
  77.3952931  33.6569387  52.5072051  74.6330443  34.8348934  50.8269206
  73.6575751  34.4042680  50.6008154  74.5065706  35.6934633  51.4864370
  75.1113778  35.1556204  49.9014844  76.6245475  31.5121819  51.1825110
  77.8288772  31.5675368  50.8998261  76.0787688  30.5470608  51.9199375
  75.1062675  30.5537972  52.1925091  76.9562771  29.4405605  52.4365131
  77.8511023  29.8683992  52.8885542  76.2267750  28.6000137  53.4934657
  75.4940512  29.2509196  53.9704736  75.7105138  27.7986243  52.9649305
  77.1388985  28.0025637  54.5527075  77.7019631  27.1809396  54.1099968
  77.8299768  28.7719069  54.8971259  76.3320900  27.4865785  55.7268460
  75.4509234  26.9705185  55.3456289  76.9465678  26.7860007  56.2922726
  75.8968147  28.5575541  56.6233100  76.3827936  29.4363447  56.5153709
  74.9293031  28.4718140  57.5437369  74.2498729  27.3507088  57.7338050
  74.4598974  26.5357024  57.1754554  73.5249299  27.3160674  58.4361989
  74.6467783  29.5276888  58.2890114  75.1614578  30.3867800  58.1579869
  73.9177091  29.4698391  58.9855818  77.4446630  28.5537681  51.2770570
  78.6587989  28.3022375  51.2183435  76.5474470  28.0173486  50.4429859
  75.5811684  28.0467951  50.7354547  76.8822443  27.2779758  49.2186915
  77.5430776  26.4364315  49.4265416  75.5568492  26.7344971  48.6484419
  74.9895382  26.2833668  49.4625297  75.0024935  27.5824535  48.2462483
  75.7291052  25.7125775  47.5587827  76.6949452  24.9394225  47.5063104
  74.7565455  25.6897643  46.6583866  74.7963577  25.0318582  45.8930929
  73.9801813  26.3303926  46.7417819  77.7030707  28.1211386  48.2455366
  78.3419760  27.5429184  47.3641040  77.7764676  29.4504674  48.3949750
  77.2064308  29.9684224  49.0483355  78.6878766  30.1956636  47.5278122
  78.5923176  29.8372839  46.5028577  78.3704215  31.6721184  47.5544475
  77.9184403  31.8250520  48.5344595  79.3241322  32.1978983  47.5087156
  77.4377715  32.2151375  46.4737129  76.4129994  31.8732505  46.6188208
  77.4940396  33.7464956  46.6259409  78.5184907  34.0891984  46.4804982
  76.8471609  34.2101856  45.8811991  77.1563522  34.0255745  47.6240304
  77.7621466  31.8298237  45.0645276  77.7327977  30.7444906  44.9681418
  77.0315239  32.2739935  44.3885062  78.7587196  32.1899362  44.8090669
  80.1475244  29.9737518  47.9291754  80.9866675  29.6322724  47.0772320
  80.4280357  30.0984375  49.2399568  79.7086541  30.4552388  49.8525597
  81.7991277  29.9048216  49.7963756  82.5116122  30.5969918  49.3476381
  81.8424939  30.0474283  51.3399466  80.8435070  29.8398293  51.7233892
  82.8421245  29.0994800  51.9890380  83.8414827  29.3067959  51.6064101
  82.8304349  29.2424878  53.0695531  82.5709570  28.0697011  51.7563954
  82.1331790  31.4936352  51.7643639  82.2157341  31.4892272  52.8512245
  83.0962813  31.7591340  51.3284238  81.0949075  32.5045958  51.3431790
  80.1315664  32.2400022  51.7791425  81.3900582  33.4951064  51.6894074
  81.0121121  32.5099072  50.2563411  82.3417312  28.5828857  49.2453730
  83.5300869  28.5446335  48.8984343  81.4915879  27.5758636  49.0858582
  80.5408385  27.6849091  49.4087886  81.8991463  26.2637046  48.5325682
  82.8394254  25.9515486  48.9870274  80.8394564  25.1968469  48.8190712
  79.9462671  25.4992147  48.2723667  81.2227739  24.2659107  48.4013089
  80.4882179  24.9873843  50.2928192  80.3363317  25.9746662  50.7290598
  79.5641759  24.4135475  50.3632450  81.5622981  24.2717909  51.0794695
  81.4521824  23.0855616  51.3780269  82.6042066  24.9969685  51.4481607
  83.3517278  24.5695564  51.9760170  82.6479498  25.9751061  51.2003005
  82.1829975  26.3922787  47.0231831  83.1691097  25.7816196  46.6048241
  81.3836227  27.1412491  46.2455835  80.5339962  27.4881014  46.6673982
  81.5603951  27.3047490  44.7698334  82.1004158  26.4560847  44.3500171
  80.1750450  27.3770840  44.1145023  79.5504198  26.5916532  44.5399914
  79.7382179  28.3499940  44.3397318  80.2161765  27.2012125  42.6088598
  80.3074858  26.0802936  42.1179215  80.1491198  28.2945474  41.8714134
  80.1732290  28.2229300  40.8642444  80.0740302  29.1973589  42.3179486
  82.5456313  28.4393264  44.4049422  83.7482612  28.1945989  44.6252938
  82.1191120  29.6188780  43.8963939  81.1186106  29.7460214  43.8422572
  83.0053523  30.7017611  43.3494328  84.0450836  30.3746854  43.3583412
  82.6042167  31.0252055  41.9000868  83.2946950  31.8119868  41.5962543
  82.8049592  30.1231701  41.3220430  81.1743018  31.4807147  41.6484841
  80.3245246  31.3519952  42.5498225  80.9142284  31.9503626  40.5220607
  83.0056798  31.9958533  44.1839765  83.8295313  32.8668933  43.8316127
  82.1544182  32.1472503  45.2082156  81.5209478  31.3697586  45.3278870
  82.0196574  33.2912974  46.0996149  81.2684660  33.0626977  46.8556261
  83.3341712  33.6378333  46.8049391  84.1365917  33.3541795  46.1239390
  83.3386112  34.7193745  46.9403975  83.5483439  32.9512897  48.1622313
  83.2084011  33.6069213  48.9639089  82.9872394  32.0173710  48.1947834
  85.0521630  32.6542249  48.3437516  85.2271403  32.3637395  49.3796570
  85.3263982  31.8304997  47.6846831  85.9006562  33.8103679  48.0297156
  85.8917767  34.5605144  48.7059558  86.6624929  33.9442750  46.9371848
  86.7378121  32.9918717  46.0103683  86.2093903  32.1385862  46.1233916
  87.3230408  33.1268541  45.1983419  87.3748008  35.0614969  46.7703110
  87.3328496  35.7921904  47.4663190  87.9522107  35.1706491  45.9488597
  81.5196842  34.5345113  45.3663654  81.6496348  35.6705091  45.8775686
  80.9177209  34.3354881  44.2080325  80.6905714  33.3888174  43.9391140
  80.5962821  35.4061811  43.2881523  80.8019630  36.3975015  43.6919820
  81.4025221  35.2264782  41.9955836  81.0943786  34.3128537  41.4872156
  81.1378771  36.4170941  41.0978833  81.4462190  37.3311109  41.6054247
  81.7031068  36.3076888  40.1723321  80.0735556  36.4706455  40.8688581
  82.7839517  35.0685316  42.3512043  83.3082433  34.9542699  41.5551749
  79.1170577  35.4220513  42.9800235  78.5666292  34.4220135  42.5028088
  78.4920293  36.5658008  43.2284939  78.9918720  37.3228331  43.6725195
  77.1055064  36.7678068  42.8906169  76.7601847  35.9332848  42.2803504
  76.2337121  36.8565590  44.1279171  75.2086497  37.1390588  43.8880415
  76.2357465  35.8870682  44.6260974  76.7271293  37.8482967  45.1235861
  77.8776175  37.6394517  45.8402517  78.4388140  36.7187869  45.6804562
  78.3438088  38.6057783  46.7844618  79.2694920  38.4297788  47.3323992
  77.6229553  39.7601620  47.0021834  77.9524585  40.5119220  47.7193894
  76.4601938  39.9524368  46.2874653  75.8506839  40.8349912  46.4816189
  76.0578439  39.0197076  45.3130974  75.1902181  39.2261557  44.6864359
  76.9919266  38.0523391  42.1085930  77.9629493  38.7930265  41.9694775
  75.7679007  38.3213760  41.6377854  75.0135738  37.7072753  41.9097607
  75.4693780  39.4223486  40.7394689  76.4082660  39.7861652  40.3220650
  74.5525322  38.9750271  39.5775316  73.6047616  38.6165667  39.9791993
  74.3688784  39.8194294  38.9131851  75.0367112  38.1732997  39.0199448
  74.7939627  40.5701438  41.4688476  73.7682101  40.3585470  42.1154606
  75.2919604  41.8014764  41.2745173  76.1621847  41.9200039  40.7757586
  74.6635504  42.9777440  41.8533044  73.8200660  42.6870878  42.4795250
  75.6280671  43.8255838  42.6926638  76.3958181  44.2511873  42.0465064
  74.8257546  44.9925066  43.3966211  74.0580713  44.5676453  44.0433484
  75.5097671  45.5958627  43.9934367  74.3556478  45.6194502  42.6389650
  76.3206240  42.9912053  43.6893807  76.8880139  42.2119778  43.1804848
  76.9999086  43.6113918  44.2742231  75.5872144  42.5318695  44.3521189
  74.0244929  43.7968906  40.7478501  74.7080895  44.4607396  39.9618303
  72.7085642  43.7739682  40.7341285  72.2160050  43.2821266  41.4659595
  71.9418923  44.3983145  39.7030543  72.3520810  44.1456894  38.7252890
  70.4997237  43.9130879  39.7659118  70.2628415  44.1445008  40.8043886
  69.8986844  44.5408880  39.1080982  70.1898594  42.4409028  39.4884138
  70.8390271  41.8556390  40.1396806  68.7588695  42.0411584  39.7174515
  68.1090909  42.6257105  39.0661563  68.6370989  40.9811243  39.4947401
  68.4913895  42.2263906  40.7577610  70.6360367  42.1022501  38.0772292
  71.7077325  42.2772233  37.9826144  70.4196921  41.0544636  37.8688072
  70.1014581  42.7315947  37.3657166  71.9850857  45.9016197  39.8515284
  71.8414660  46.4295183  40.9599013  72.0723715  46.5971446  38.6989681
  72.2713079  46.1099380  37.8369046  71.9699567  48.0495620  38.6634594
  72.1953559  48.4260319  39.6612393  72.9744683  48.6461567  37.6778590
  72.7560431  48.2855615  36.6726915  72.9012255  49.7335225  37.6971282
  73.9834796  48.3454270  37.9599174  70.5572532  48.4888017  38.3264455
  70.2370345  48.9390707  37.2240015  69.7318396  48.5070802  39.3401315
  70.0390773  48.3899781  40.2951140  68.3121518  48.6853609  39.0904770
  67.9874434  47.9757028  38.3295244  67.4889494  48.4532308  40.3582291
  67.8643900  49.1874848  41.0709806  66.4507951  48.6805623  40.1160388
  67.5715999  47.0988444  40.9548459  66.8878545  45.9980205  40.3855727
  66.2998615  46.1554377  39.4813695  66.9560417  44.7374450  40.9570032
  66.4519377  43.8943893  40.4845223  67.6798499  44.5466996  42.1353155
  67.7481386  43.2924592  42.7597446  67.2551711  42.6137135  42.2929608
  68.3621707  45.6539148  42.7294507  68.9223971  45.5211755  43.6549922
  68.3086612  46.9140002  42.1169553  68.8475181  47.7552197  42.5529404
  68.0049820  50.0788263  38.5831685  68.3792831  51.0686137  39.2059306
  67.2098055  50.1347449  37.5219044  67.0178107  49.2826551  37.0147748
  66.6564019  51.3782194  37.0138262  67.3878815  52.1830108  37.0869533
  66.2856001  51.1862362  35.5401256  65.6147033  50.3324531  35.4449876
  65.7857901  52.0829877  35.1738923  67.4611043  50.9527383  34.7742180
  67.2235034  50.8331138  33.8518105  65.4550558  51.8365080  37.8324434
  65.4109333  52.9922798  38.2667276  64.4624052  50.9575031  38.0298898
  64.5149741  50.0325316  37.6276914  63.2501508  51.3283305  38.7606403
  63.1655491  52.4143008  38.8007690  61.9999526  50.7640349  38.0712602
  62.0931312  50.8687754  36.9903132  61.9255719  49.7073941  38.3283161
  60.7225709  51.4660831  38.5206690  59.6356446  50.9016916  38.4306446
  60.8544502  52.6849496  39.0286989  60.0371768  53.1900311  39.3402381
  61.7714868  53.1019018  39.1014695  63.2668018  50.8853002  40.2189794
  62.6894327  51.5832080  41.0518921  63.9230063  49.7610812  40.5369784
  64.2643941  49.2576485  39.7306849  64.1238663  49.1577364  41.8825773
  64.7401706  48.2657090  41.7705264  64.8057096  50.1035928  42.8871624
  64.2379958  51.0323666  42.9435494  64.8611964  49.4746438  44.2330247
  65.4291864  48.5459844  44.1775270  65.3460052  50.1551860  44.9329698
  63.8491370  49.2609488  44.5767861  66.1965391  50.4200952  42.4546747
  66.1728017  50.9029953  41.4777684  66.6593815  51.0899456  43.1793657
  66.7759852  49.4991276  42.3901618  62.8381096  48.6411418  42.5184089
  62.8144073  47.5121539  43.0136619  61.8009136  49.4823725  42.6079760
  61.9186032  50.4601295  42.3838336  60.4891854  49.0242203  43.0115449
  60.5605201  48.5763561  44.0027200  59.4736516  50.1569453  43.0615663
  58.7915868  49.9887303  43.8949873  59.9984694  51.1011259  43.2071319
  58.6770111  50.2119505  41.7527663  59.3501271  50.5416308  40.9613583
  58.3011563  49.2161109  41.5179498  57.5016152  51.1706163  41.8206357
  57.6537008  52.3320228  42.2156433  56.3219988  50.6835149  41.4508261
  55.5042853  51.2758304  41.4754917  56.2484808  49.7231822  41.1467576
  59.9244673  48.0001481  42.0647089  58.8730179  47.4419236  42.3857579
  60.5621265  47.7717184  40.9136117  61.3523441  48.3431631  40.6507307
  60.1128157  46.7393161  39.9813621  59.4257136  46.0682881  40.4968339
  59.3989812  47.3340096  38.7752738  60.1430979  47.8953785  38.2102476
  59.0410756  46.4984725  38.1737081  58.2359579  48.2425008  39.1201241
  58.1435714  48.2628716  40.2060111  58.4467990  49.2476586  38.7550174
  56.9406213  47.7467716  38.5129763  56.9483694  47.3208947  37.3290820
  55.9091804  47.8067796  39.2328727  61.2888327  45.9052301  39.5227223
  61.2966271  45.3873480  38.4071290  62.3121767  45.7695355  40.3593436
  62.3598243  46.2960166  41.2199519  63.4528171  44.8836233  40.0116296
  64.3301597  45.1668382  40.5931435  63.1130574  43.4251867  40.3189002
  62.4589574  43.0729286  39.5212996  64.0481975  42.8656883  40.2949288
  62.4315256  43.2157863  41.6628548  61.5328140  43.8314203  41.7004453
  62.1559566  42.1653931  41.7568649  63.3523829  43.5987140  42.7997449
  64.3458611  43.1963881  42.6016697  63.4066625  44.6856486  42.8607882
  62.8876516  43.0836261  44.0757086  62.0085926  43.4371560  44.4255246
  63.5418438  42.1889604  44.7998680  64.6942129  41.7052600  44.3662411
  65.0707140  42.0206606  43.4837053  65.1922187  41.0227887  44.9197054
  63.0437963  41.7792761  45.9524254  62.1630984  42.1505232  46.2789937
  63.5459226  41.0966251  46.5019301  63.8146695  45.0712060  38.5408164
  64.1680765  44.0769633  37.8957776  63.7176397  46.3019075  38.0458819
  63.4589871  47.0734847  38.6441016  64.0815280  46.5941899  36.6422686
  63.7072123  45.8082319  35.9863289  63.4635906  47.9248783  36.2122874
  62.3899278  47.8513697  36.3853304  63.8829795  48.6971521  36.8571178
  63.7183349  48.2858798  34.7589319  64.7995312  48.3509124  34.6369231
  63.3359675  47.4534848  34.1681587  63.0766231  49.5798037  34.2853142
  62.4338702  50.2588088  35.1142718  63.2263853  49.9094001  33.0913165
  65.5866093  46.7722464  36.6514430  66.0202653  47.4504214  37.5324776
  66.3139305  46.1084673  35.7609924  65.8605420  45.4484229  35.1454604
  67.7758701  46.2633527  35.6641672  68.0487178  47.3182532  35.6931192
  68.4789211  45.5561184  36.7823675  68.2227751  44.4968583  36.7609831
  69.5564734  45.6712592  36.6652190  68.1697133  45.9849902  37.7355511
  68.2215127  45.7204133  34.3163284  67.5136891  44.8556466  33.7840181
  69.3213896  46.2312213  33.7712448  69.7606380  47.0105448  34.2400893
  69.8480592  45.8166193  32.4922330  69.5090862  44.8013173  32.2864218
  69.3925113  46.7301807  31.3404424  69.6823090  47.7447615  31.6138331
  69.9498001  46.4193366  30.4567541  67.8934882  46.6926383  31.0369059
  67.6294249  45.6655799  30.7848691  67.3751543  46.9870139  31.9494694
  67.4807880  47.6166889  29.8983081  66.2701043  47.6800093  29.5656153
  68.3675733  48.2925228  29.3363593  71.3574124  45.6973139  32.5594731
  71.9374856  44.9740657  31.7200368  71.9942372  46.2263376  33.6279706
  71.4703747  46.8138462  34.2608221  73.4155005  46.0341860  33.8809595
  73.7769550  45.1986297  33.2815469  74.2331373  47.2908963  33.5185076
  73.6828011  48.1174164  33.9680562  75.2634913  47.3052109  33.8738465
  74.2840364  47.5612289  32.0419080  73.3018525  48.3130835  31.3983737
  72.5054908  48.7803515  31.9776565  73.3384849  48.4660327  30.0223255
  72.5912546  49.0760257  29.5147271  74.3306021  47.8393600  29.2924837
  74.3515166  47.9563121  28.2089780  75.2935304  47.0676815  29.9253299
  76.0749559  46.5768932  29.3451563  75.2594020  46.9257365  31.2700948
  76.0024889  46.3058235  31.7717219  73.6153287  45.6725440  35.3238038
  72.6747152  45.6752076  36.1143259  74.8630746  45.3807250  35.6691351
  75.5992705  45.4353655  34.9798388  75.2138190  44.9797580  37.0219358
  74.9981350  45.7837882  37.7255799  74.6593974  44.0867273  37.3104009
  76.6960463  44.6739734  37.0625173  77.3952332  44.7528291  36.0566890
  77.1558413  44.2660455  38.2361631  76.5296705  44.1921284  39.0251788
  78.5632905  43.9171720  38.4324384  79.0209442  43.7508961  37.4572438
  79.3008173  45.0423196  39.1275723  78.8428926  45.1619903  40.1094502
  80.8212800  44.8096667  39.2929648  81.2800018  44.6903612  38.3114150
  81.2672056  45.6651640  39.8002851  80.9894408  43.9093174  39.8838910
  79.1266731  46.2081611  38.3059827  79.5794359  46.9532783  38.7077372
  78.5713740  42.6679439  39.2813140  77.7650927  42.5302038  40.2136482
  79.4643043  41.7459670  38.9608954  80.0365948  41.7883325  38.1297588
  79.5986581  40.5904522  39.8316488  78.6099605  40.1846528  40.0458991
  80.4598029  39.4824410  39.2151053  80.4100685  38.5881280  39.8362582
  79.9433641  39.1702973  37.8540872  79.9932202  40.0640758  37.2321755
  80.5496392  38.3826802  37.4066623  78.9085904  38.8352810  37.9255570
  81.8318806  39.9066870  39.1344254  82.3613145  39.2057027  38.7472289
  80.2084960  41.0704573  41.1345539  80.9449548  42.0564096  41.1644619
  79.8815103  40.3640355  42.2113833  79.1354820  39.6895882  42.1183133
  80.5167503  40.5187587  43.5188005  81.2853063  41.2915263  43.5029568
  79.5076561  40.8614741  44.5959463  78.7364777  40.0919207  44.6301751
  80.0102482  40.9146710  45.5616955  79.0493115  41.8247146  44.3719212
  81.2008348  39.2108291  43.8301580  80.7068994  38.1670834  43.4572321
  82.3660679  39.2726362  44.4532340  82.7365227  40.1895949  44.6582937
  83.1553147  38.1022478  44.8420083  82.5765569  37.1997421  44.6454831
  84.4813943  38.0181217  44.0577119  84.2807099  37.3922084  43.1881963
  84.7053072  39.0333132  43.7300697  85.6825866  37.4528978  44.8283143
  85.9718715  38.2447859  45.5192039  85.3662863  36.5760858  45.3933399
  86.8789858  37.0855124  43.9427259  86.6575805  36.6930162  42.7699410
  88.0337672  37.1402787  44.4379810  83.3955235  38.2786574  46.3291227
  83.8069611  39.3599458  46.7562488  83.1168499  37.3008529  47.0861203
  82.7665681  36.4273774  46.7194562  83.2476725  37.4417400  48.5377271
  82.9610202  38.4441636  48.8556525  82.4026436  36.4034225  49.2937971
  82.6446098  35.4014398  48.9394195  82.7159584  36.5050672  50.7898406
  82.4737972  37.5067018  51.1450682  82.1219289  35.7727306  51.3365697
  83.7754043  36.3081987  50.9539030  80.9244824  36.5994940  49.0216180
  80.5283974  37.3138183  49.7433923  80.8048972  36.9976685  48.0140189
  80.1821716  35.3127049  49.1381750  80.3009142  34.9141262  50.1457141
  79.1244230  35.4834016  48.9378506  80.5774160  34.5979753  48.4163417
  84.7184916  37.3106189  48.9111215  85.4329769  36.4629875  48.3646805
  85.1883278  38.1430076  49.8344659  84.6162966  38.8753025  50.2302232
  86.5838883  38.0619240  50.2404394  87.0241305  37.1330366  49.8778731
  87.3747471  39.2425744  49.6531057  88.4225041  38.9436435  49.6223650
  87.0209323  39.4296494  48.6392428  87.2353025  40.4968292  50.4719426
  88.0565367  40.7581281  51.5605042  88.8358654  40.0416355  51.8200897
  87.8944743  41.9235619  52.3216413  88.5340714  42.1288374  53.1800581
  86.9082765  42.8203298  51.9661400  86.6867080  43.9898880  52.6399903
  87.2862346  44.1163668  53.3790238  86.0915951  42.5659307  50.9023306
  85.3066713  43.2755095  50.6406192  86.2570972  41.4150922  50.1591974
  85.6071305  41.2187696  49.3064953  86.7862218  38.0118064  51.7499116
  87.9274837  37.8140841  52.1801070  85.7379279  38.2057517  52.5547949
  84.9147410  38.6316403  52.1534453  85.7273667  37.8883827  53.9696173
  86.5565888  37.2181327  54.1960127  85.8387898  39.1200589  54.8618067
  85.0100700  39.7966576  54.6531500  85.8042571  38.8158817  55.9079348
  86.7817979  39.6292702  54.6629630  84.4299109  37.1291508  54.2665032
  83.6133202  36.8455875  53.3638440  84.2081050  36.8311016  55.5460022
  84.7733088  37.2005516  56.2971018  83.1560353  35.8693490  55.8777587
  82.1889122  36.2294315  55.5268846  83.4595951  34.5194659  55.1896829
  83.4515172  34.7036158  54.1153819  84.4634673  34.2302954  55.5006831
  82.5024277  33.4196334  55.5131020  81.2813697  33.3389775  54.8784800
  81.0201527  34.0950723  54.1380843  80.3946058  32.3206658  55.1679624
  79.4335540  32.2596422  54.6573184  80.7367162  31.3684694  56.1223568
  79.8783751  30.3385853  56.4483388  79.0557711  30.3652281  55.9541602
  81.9523709  31.4391254  56.7626186  82.2252268  30.6939578  57.5098638
  82.8248571  32.4563043  56.4556758  83.7908647  32.5156328  56.9570834
  83.0315822  35.7235052  57.3872424  83.9063218  36.1464359  58.1482032
  81.9086719  35.1337803  57.8068564  81.2125410  34.8386960  57.1372100
  81.6249453  34.9491011  59.2273415  82.4142435  34.3626645  59.6976602
  81.5525271  36.3464132  59.9312303  82.4876937  36.8849918  59.7779473
  80.7279128  36.9257688  59.5159491  81.3250893  36.1376280  61.4263777
  81.1248511  37.1137452  61.8681930  80.4476025  35.5010631  61.5399744
  82.5029787  35.5005769  62.1260236  82.6877532  34.4875601  61.7685961
  83.4099777  36.0950801  62.0163961  82.1483119  35.4397028  63.5546197
  81.2987467  35.9082710  63.8353015  82.8406184  34.7985403  64.4668999
  82.4134211  34.8212505  65.7403381  81.5721724  35.3268414  65.9786203
  82.9354311  34.3326327  66.4536807  83.9181001  34.1093566  64.1780573
  84.2410557  34.0598045  63.2223668  84.4200614  33.6312698  64.9126093
  80.3203197  34.1701714  59.3889883  79.4576400  34.1637257  58.4987652
  80.1916467  33.5076045  60.5539529  80.9240827  33.5858680  61.2449750
  79.0354371  32.6508621  60.8574126  78.1923564  32.9416875  60.2307271
  79.3573517  31.1765066  60.5917759  80.2963731  30.9761768  61.1077274
  78.5565513  30.6047645  61.0607425  79.4822581  30.7734794  59.1524665
  79.2231546  31.6289059  58.5285982  80.5140848  30.4813579  58.9572799
  78.5645482  29.6210011  58.8309542  77.3865859  29.6875888  59.2554691
  79.0028093  28.6512819  58.1647644  78.6366434  32.8282239  62.3163154
  79.2744195  32.2530137  63.1883251  77.5592754  33.5429450  62.5838783
  77.0508257  33.9258692  61.7996926  77.1350741  33.9120262  63.9298160
  77.8716736  33.5434370  64.6437224  76.9974891  35.4345038  64.1070058
  76.2383579  35.7637017  63.3974652  76.6398142  35.5991120  65.1234077
  78.2836582  36.2322540  63.8839167  78.7864671  35.8179429  63.0100572
  77.9889381  37.2614394  63.6789373  79.2318188  36.2037402  65.0759739
  79.5273124  37.2803761  65.6539953  79.6793662  35.0974572  65.4475130
  75.8490324  33.1746692  64.3117090  75.3705643  32.2831566  63.6098502
  75.3370901  33.5029756  65.5012883  75.8390762  34.1356987  66.1077294
  74.0836006  32.9316079  65.9827900  73.3676114  32.9090182  65.1612375
  74.2593794  31.5182109  66.5127520  75.2633255  31.4292137  66.9278074
  73.5249269  31.3529543  67.3010221  74.0696683  30.4784273  65.4166381
  73.6988280  30.9965268  64.5322449  75.0236351  30.0042401  65.1859956
  73.0844856  29.4133363  65.7964501  73.3052369  28.2237936  65.5496993
  71.9769910  29.8369303  66.3727077  71.2711865  29.1713999  66.6537963
  71.8394673  30.8250161  66.5304262  73.5175385  33.8301598  67.0665155
  74.1985069  34.1514602  68.0465859  72.2628744  34.2105103  66.8999028
  71.7341193  33.7904297  66.1488705  71.6062474  35.2107015  67.7318538
  72.0226150  35.1748631  68.7385577  71.8070150  36.6121611  67.1719553
  72.8709623  36.7920900  67.0178743  71.2935685  36.6270673  66.2105758
  71.2319640  37.7027332  68.0726277  71.4817026  37.7149980  69.3189608
  70.5470138  38.5905778  67.5001766  70.1524122  34.7562526  67.6847311
  69.5634122  34.7162833  66.6022126  69.6205293  34.2954196  68.8168440
  70.2016522  34.2215025  69.6396026  68.2418119  33.8110934  68.8954539
  67.9871389  33.5429656  69.9208067  67.3088442  34.9135200  68.4373220
  67.4711378  35.2822929  67.4245206  66.2955306  34.5210425  68.5225098
  67.3833110  36.0745230  69.3219918  66.6385386  36.1030930  70.4744478
  65.9156285  35.3174355  70.6940910  66.8084758  37.1064609  71.3276443
  66.2429855  37.0532391  72.2579608  67.6542165  38.1888027  71.0866824
  67.7337793  39.0267704  71.7791993  68.3947058  38.1772690  69.9438400
  69.0683484  39.0019142  69.7108893  68.2865502  37.1095452  69.0777457
  68.9122867  37.0653050  68.1863443  68.0089181  32.5425219  68.1048156
  66.9276065  32.3314286  67.5522364  69.0109953  31.6833744  68.0604775
  69.8639046  31.8480020  68.5757859  68.9108039  30.4789822  67.2683853
  69.7925975  29.8659585  67.4547752  68.0183800  29.9338968  67.5758927
  68.8199579  30.7784934  65.7696064  68.7495052  29.8879033  64.9162861
  68.7993687  32.0696075  65.4349877  68.7114764  32.7777846  66.1497321
  68.8946224  32.5006218  64.0384383  68.3009810  31.8406408  63.4058925
  68.4237628  33.9482658  63.8503527  69.0871675  34.6121163  64.4046966
  68.4435911  34.3279365  62.3724224  67.7800168  33.6647722  61.8174604
  68.1066883  35.3581015  62.2568486  69.4582503  34.2325055  61.9858233
  67.0349589  34.1951242  64.3962359  66.3231311  33.6493655  63.7769222
  66.9964611  33.8125611  65.4161687  66.6725634  35.6945049  64.3958200
  66.7103966  36.0776935  63.3760970  65.6671275  35.8259325  64.7957259
  67.3837285  36.2408896  65.0153421  70.3530852  32.3712369  63.6571200
  71.2266783  32.9892473  64.2935352  70.6328243  31.5957451  62.6195929
  69.9706850  30.9361456  62.2367098  71.9729381  31.6404578  62.0479315
  72.7202912  31.6392388  62.8413803  72.1975479  30.4174631  61.1650423
  71.4796437  30.4711034  60.3466075  73.2092605  30.4864817  60.7653247
  72.0307532  29.0877929  61.9028653  72.7595478  29.0585756  62.7128688
  71.0240952  29.0471549  62.3189030  72.2462518  27.9020614  60.9879537
  71.4088441  27.6765765  60.0770147  73.2499902  27.1936765  61.1852204
  72.2003275  32.9385363  61.2568239  71.3980100  33.3290134  60.4081547
  73.2671947  33.6488000  61.5855697  73.8744326  33.3286991  62.3264455
  73.5746969  34.9101893  60.9419811  72.7513990  35.1822332  60.2814723
  73.8173003  36.0400681  61.9467316  74.5667370  35.7240173  62.6723740
  74.3056264  37.2667781  61.2233927  73.5564671  37.5837202  60.4978523
  74.4771308  38.0685513  61.9416174  75.2373398  37.0374862  60.7062520
  72.5392289  36.3467161  62.6953178  71.8557021  36.8128684  61.9856743
  72.1248218  35.3944110  63.0261974  72.7220906  37.2444091  63.8717709
  73.1360603  38.1971491  63.5415959  71.7588965  37.4145435  64.3528226
  73.4051822  36.7786922  64.5821183  74.7982147  34.6999836  60.0745344
  75.5397620  33.7279299  60.2240450  74.9950062  35.6211565  59.1335336
  74.3093419  36.3490632  58.9917043  76.1554612  35.5825434  58.2503381
  76.9985203  35.1129294  58.7571055  75.8804436  34.8201094  56.9456264
  74.8498489  34.9744325  56.6260046  76.8150808  35.3553239  55.8975516
  77.8459436  35.2009311  56.2162769  76.6441340  34.8326175  54.9564588
  76.6340268  36.4211717  55.7586648  76.0765298  33.3441199  57.1624195
  75.3896206  32.9951966  57.9334644  75.8796278  32.8104728  56.2326077
  77.1025924  33.1559359  57.4784623  76.5548073  37.0154935  57.9723402
  75.7240979  37.8111961  57.5263174  77.8187296  37.3394843  58.2604832
  78.3700485  36.6540108  58.7567420  78.4376377  38.6146769  57.9299582
  77.6822109  39.3056228  57.5557613  79.0910617  39.2287299  59.1661892
  79.7421670  38.4667492  59.5946125  79.6935682  40.0701081  58.8238901
  78.1113213  39.7048286  60.2184101  77.9170479  40.7656809  60.0604512
  77.1821036  39.1456129  60.1091659  78.6704464  39.4934918  61.6255049
  78.5074874  38.4499161  61.8947504  79.7408218  39.6966374  61.5919210
  78.0187080  40.3894665  62.6598145  77.5486472  41.2426324  62.1706812
  77.2663730  39.8303961  63.2161699  79.0807328  40.8768499  63.6049060
  79.7777382  41.3952907  63.0896367  78.6620138  41.4763219  64.3016180
  79.5161347  40.0864620  64.0585702  79.4815036  38.3869026  56.8370818
  80.4285010  37.6184632  57.0371639  79.3253883  39.0674094  55.6977642
  78.4857215  39.6081717  55.5473147  80.3043178  38.9965989  54.6197410
  81.2134064  38.5198321  54.9862795  79.7674336  38.1807385  53.4201460
  80.5764951  37.9886105  52.7154434  79.2201042  36.8790846  53.9180785
  78.4106326  37.0704069  54.6225304  78.8398609  36.2988310  53.0773519
  80.0108013  36.3190716  54.4173632  78.6967286  38.9745915  52.7604211
  79.1077434  39.9229328  52.4142744  78.3026031  38.4180329  51.9101227
  77.8939951  39.1654603  53.4726632  80.7548955  40.3794244  54.1303103
  80.0673217  41.4035561  54.2454215  81.9507277  40.3845474  53.5536006
  82.5476445  39.5800367  53.6822563  82.4709766  41.5188232  52.7923428
  81.7069554  42.2946289  52.7423798  83.7335008  42.1134816  53.4372575
  84.5356946  41.3838403  53.3267687  83.9891877  43.0197345  52.8882311
  83.5484637  42.4536375  54.9367459  82.5901955  42.9628813  55.0391844
  83.5185889  41.5109364  55.4831196  84.6793924  43.3542406  55.5171900
  84.8697806  44.1569236  54.8047636  84.3233528  43.7790299  56.4557471
  85.9895812  42.5679847  55.7708586  85.7301573  41.5130745  55.8601011
  86.6342136  42.7109740  54.9036202  86.7219045  43.0177777  57.0263656
  86.1249033  42.8849613  57.8301374  87.5641570  42.4717912  57.1386572
  86.9627602  43.9951481  56.9436939  82.7318395  41.0037224  51.3866985
  83.3010505  39.9014492  51.2240776  82.2390220  41.7508188  50.3859754
  81.6819626  42.5585637  50.6254172  82.4421594  41.4457637  48.9777685
  83.1705681  40.6425891  48.8662757  81.1386031  41.0247071  48.2871614
  80.4021967  41.8226633  48.3824053  81.3315032  40.8331148  47.2316131
  80.7546005  40.1187530  48.7560842  83.0074186  42.6785202  48.2993154
  82.9834047  43.7740388  48.8570306  83.3916844  42.4909083  47.0400670
  83.2225668  41.5768152  46.6451843  84.0680863  43.4899705  46.2120669
  83.7583739  44.4983360  46.4866147  85.6062018  43.3713181  46.3362130
  85.8831048  43.2222388  47.3798607  86.0785841  42.1647855  45.5025055
  85.8024281  42.3133637  44.4585884  87.1615651  42.0696965  45.5813142
  85.6064180  41.2565270  45.8769715  86.2536301  44.6741892  45.8833218
  85.7794213  44.9579018  44.9437826  86.0309511  45.4235455  46.6429130
  87.7675190  44.5854368  45.6835358  87.9909656  43.8365575  44.9236994
  88.1494410  45.5542158  45.3615076  88.2424954  44.3021987  46.6228299
  83.6401512  43.3140063  44.7441271  83.5469015  42.1866857  44.2309861
  83.3966830  44.4316976  44.0602972  83.4575529  45.3375691  44.5027800
  83.0328593  44.3743928  42.6427128  82.2019454  43.6809333  42.5131166
  82.7320788  45.3674620  42.3088805  84.2080993  43.9026789  41.7979761
  85.3594159  44.2293527  42.0704099  83.8975831  43.0968794  40.7822026
  82.9183988  42.9058941  40.6246520  84.8680030  42.5200180  39.8670474
  85.8615337  42.8653355  40.1529701  84.8614321  40.9894897  39.8738366
  83.9574770  40.6647948  40.3891400  84.8284351  40.6541710  38.8372207
  86.0694189  40.3960251  40.5558371  85.9612948  39.3114034  40.5582439
  86.9545128  40.6711314  39.9822281  86.2227846  40.9119252  42.0381040
  86.4464567  41.9787146  42.0326036  85.2950353  40.7385482  42.5833755
  87.3065619  40.2097445  42.7227147  87.2454095  39.2016447  42.7324400
  88.3467070  40.7869561  43.3119506  88.4625981  42.1011006  43.3730449
  87.7486165  42.6874668  42.9649946  89.2646737  42.5136710  43.8275336
  89.2845271  40.0204492  43.8588094  89.1964065  39.0150311  43.8204769
  90.0810785  40.4468447  44.3102420  84.6023678  42.8798197  38.4215490
  85.4612321  43.4484392  37.7377867  83.4549725  42.4609758  37.9179869
  82.7345485  42.0870101  38.5190180  83.2216413  42.4686032  36.4914287
  83.9012924  43.1831459  36.0270987  83.4470916  41.1011782  35.8596574
  83.2714904  40.3166262  36.5956884  82.7714711  40.9643429  35.0153156
  84.8862086  41.0272093  35.3740137  84.9027584  41.5580347  34.4221464
  85.5796574  41.5034681  36.0671287  85.3267459  39.6377431  35.1466454
  85.3218224  38.8258476  36.0551026  85.7991745  39.3570236  33.9388682
  86.1148439  38.4209806  33.7284451  85.8409224  40.0806854  33.2355389
  81.8245359  42.9457432  36.2681217  80.9274998  42.6364178  37.0576830
  81.6961799  43.7710780  35.2338195  82.5087112  44.0904731  34.7260017
  80.4055900  44.2733334  34.8418304  79.7449519  44.2719540  35.7088106
  80.4882842  45.7001147  34.2919051  80.2601786  45.6125166  33.2296464
  79.6884735  46.2473742  34.7908139  81.7863400  46.4401290  34.4663274
  82.0752691  46.3766218  35.5154164  82.5417345  45.9505416  33.8516850
  81.6670114  47.9604561  34.0435163  80.8880588  48.4056638  34.6624846
  82.6233949  48.4323681  34.2687476  81.3445173  48.2028730  32.6386118
  80.4494217  48.6201771  32.4270453  82.1492233  47.8690167  31.6232151
  83.3503237  47.3314291  31.8253298  83.6741741  47.1661819  32.7676219
  83.9321489  47.0913167  31.0354406  81.7560084  48.1161288  30.3789267
  80.8595297  48.5506558  30.2127571  82.3552681  47.8683840  29.6045825
  79.8235573  43.3315081  33.8068546  80.4401167  42.3276406  33.4536020
  78.6601739  43.6078936  33.3016742  78.2435020  44.5088352  33.4881898
  77.9223933  42.6688373  32.5071624  78.4293681  42.5202293  31.5537520
  77.8099425  41.3124645  33.2200913  77.2550104  40.5831835  32.6299229
  78.8170932  40.9388294  33.4048730  77.1187451  41.3925638  34.5765924
  75.7521787  41.6575269  34.6870314  75.1849100  41.8259810  33.7716466
  75.1132878  41.7095621  35.9197648  74.0418989  41.9036960  35.9701494
  75.8689530  41.5063437  37.1352061  75.3894729  41.5811325  38.1112211
  77.2206291  41.2129372  37.0478377  77.8045816  41.0330730  37.9504719
  77.8513601  41.1464745  35.7595410  78.9111283  40.9031523  35.6834780
  76.5429761  43.2486901  32.2469205  75.9503427  43.9063520  33.1007680
  76.0034829  43.0109747  31.0498656  76.5402646  42.5933959  30.3031443
  74.6202134  43.3644098  30.7885630  74.3557155  44.2286076  31.3979088
  74.3750647  43.7120612  29.3092316  75.2370759  44.2671900  28.9392750
  74.2750828  42.7820124  28.7496667  73.0743689  44.5783324  29.1230200
  72.3161570  44.1696312  29.7909862  73.3176392  45.5956566  29.4295703
  72.5351169  44.5924229  27.6843502  73.3440157  44.8939592  27.0188747
  72.2132897  43.5825913  27.4298570  71.3352838  45.5764017  27.5229707
  71.7334356  46.4880633  27.0774945  70.6359802  45.1091997  26.8295763
  70.6183645  45.9159681  28.8079576  71.2660783  46.3492907  29.4504512
  69.8605698  46.5543184  28.6121104  70.2489834  45.0713909  29.2206877
  73.7506354  42.1700966  31.1805058  74.0195907  41.0168717  30.8482250
  72.6748438  42.4749735  31.9128216  72.4899917  43.4085339  32.2510435
  71.7670144  41.4013598  32.3112028  72.3095250  40.4618817  32.4168549
  71.0319565  41.7000485  33.6398476  70.5094116  42.6516055  33.5419424
  70.0332662  40.6067790  33.9735997  70.5551691  39.6549329  34.0721249
  69.5330180  40.8451257  34.9122386  69.2934314  40.5340842  33.1764412
  72.0351701  41.8563003  34.7863544  72.7145012  42.6796688  34.5657290
  71.4997099  42.0659024  35.7123398  72.6063512  40.9346989  34.8981748
  70.7689808  41.1542172  31.1716260  70.2291366  42.0981772  30.6344923
  70.5464516  39.8962168  30.8114512  71.0544245  39.1447052  31.2556280
  69.6177408  39.5617714  29.7264048  69.4264908  40.4430148  29.1140874
  70.2184111  38.4719530  28.8395559  70.3714943  37.6247620  29.5080858
  69.5007422  38.1986619  28.0660164  71.5516965  38.8548645  28.1868763
  72.1983310  39.2756832  28.9568610  72.2409802  37.6571038  27.5438986
  71.5951018  37.2360015  26.7734359  73.1812332  37.9764715  27.0944217
  72.4402356  36.9010611  28.3033701  71.3057254  39.9479124  27.1620825
  70.8752135  40.8192074  27.6556451  72.2495494  40.2260375  26.6931007
  70.6155855  39.5842787  26.4007833  68.2575671  39.1208450  30.2680111
  67.2477932  39.2961410  29.6428055  68.2423161  38.5352949  31.4613457
  69.1026136  38.3232897  31.9461564  67.0008506  38.0616820  32.0298210
  66.2566857  38.8562742  31.9755898  66.4613814  36.8304274  31.2795556
  66.4013946  37.1074584  30.2270563  67.2007920  36.0394496  31.4049593
  65.0949304  36.3307141  31.7538216  64.8592555  35.4247567  31.1954317
  65.1926978  36.0894202  32.8122724  63.9768340  37.3472992  31.5665006
  63.1222652  37.1639878  30.6633649  63.9438049  38.3342207  32.3326154
  67.0927606  37.7983903  33.5174191  68.1601887  37.4916394  34.0498853
  65.9586350  37.9193691  34.1936758  65.1356858  38.2880441  33.7387772
  65.8664621  37.5593647  35.6130528  66.7700388  37.0287013  35.9131271
  65.7184815  38.7949935  36.4820017  64.8311794  39.3077592  36.1106992
  65.5299134  38.4280004  37.4908912  66.8984106  39.7702776  36.5063166
  67.1745419  40.0540026  35.4907613  66.4716325  40.9962344  37.2715188
  66.1957719  40.7133535  38.2873821  67.2951500  41.7095595  37.3044876
  65.6148226  41.4538546  36.7769878  68.1116592  39.1298719  37.1845971
  68.4047386  38.2346785  36.6361149  68.9401506  39.8381396  37.1923413
  67.8554259  38.8600336  38.2091120  64.6807663  36.6360850  35.8248973
  63.5469721  36.9840962  35.4768386  64.9422839  35.4549967  36.3783238
  65.8901143  35.1787710  36.5914344  63.8639373  34.4948120  36.6348469
  62.8917457  34.9817115  36.5582193  63.9362643  33.3504048  35.5672095
  64.9246282  32.8911610  35.5854067  63.1811504  32.5950291  35.7847199
  63.6772392  33.9452375  34.1851913  62.6751776  34.3740626  34.1942667
  64.4092391  34.7369167  34.0254347  63.7806986  32.9320881  33.0703507
  64.7830957  32.5101444  32.9978075  63.0554947  32.1266092  33.1860330
  63.4834612  33.6594325  31.8242681  63.2736245  34.6438047  31.9084076
  63.5046429  33.1235850  30.6258133  63.2101135  33.8947648  29.5659057
  62.9781327  34.8682354  29.7024340  63.2220070  33.4975536  28.6373684
  63.8338883  31.8710295  30.4198596  64.0833025  31.2824922  31.2018548
  63.8365205  31.5007088  29.4802030  63.9461409  33.9292532  38.0527432
  65.0355645  33.8505247  38.6341580  62.7969846  33.5341491  38.6000909
  61.9102363  33.7761449  38.1815042  62.7894651  32.7754604  39.8498812
  63.2116930  33.4615440  40.5841238  61.3443498  32.4333404  40.2686289
  60.8743131  31.8593915  39.4700374  61.3294172  31.6140100  41.5626643
  61.7989053  32.1875331  42.3618838  60.2994872  31.3855531  41.8368010
  61.8792196  30.6850497  41.4115000  60.6606528  33.6380280  40.6288740
  59.7607701  33.4293487  40.8901486  63.6175183  31.5238461  39.6262933
  63.4672102  30.8574542  38.5968132  64.5130738  31.2322454  40.5621183
  64.6291821  31.8379267  41.3619735  65.3781954  30.0790133  40.4438721
  65.7491230  30.0045182  39.4216381  66.5792187  30.1921960  41.3948225
  66.8895971  31.2369664  41.4096345  66.2402752  29.9002755  42.3888043
  67.7705832  29.3088667  40.9790028  67.7615316  29.1677839  39.8982093
  68.6881867  29.8198706  41.2705175  67.7412117  27.9347592  41.6517782
  67.9186116  26.9080018  40.9831322  67.5391057  27.9014523  42.9706144
  67.5128663  27.0140166  43.4521441  67.4133278  28.7638350  43.4810822
  64.5904712  28.8168514  40.7338221  63.5133074  28.8606280  41.3304222
  65.1169989  27.6826147  40.3039457  65.9313609  27.6536636  39.7072249
  64.4381150  26.4399303  40.5983027  63.5251673  26.6509403  41.1551693
  64.0658308  25.6844919  39.3131679  63.3935278  26.3148662  38.7311575
  64.9797230  25.5080813  38.7459109  63.4330927  24.4454838  39.5866191
  63.2177174  24.0069258  38.7602535  65.2429242  25.5567127  41.5418486
  66.2023716  24.9028132  41.1292566  64.8818530  25.5913845  42.8275043
  65.2643214  24.9022180  43.4590633  63.9033836  26.5528325  43.3549400
  63.5948266  27.2199426  42.5500450  62.6531671  25.8600709  43.9261179
  63.0190485  24.9862142  44.4651954  62.1575134  26.5353468  44.6235632
  61.6507564  25.4132129  42.8440270  62.0250747  25.2732122  41.6642784
  60.4515703  25.2385362  43.1821360  64.5295937  27.4464684  44.4405927
  65.4926987  27.0577433  45.1072115  63.9595317  28.6381148  44.6245140
  63.1496598  28.8963429  44.0790554  64.4687904  29.5915549  45.5949373
  63.6269436  30.1374266  46.0208685  64.9825040  29.0432088  46.3845664
  65.4384798  30.5852047  44.9702353  66.4042387  30.1769521  44.3265269
  65.2771316  31.6830010  45.0936659  64.3631097  32.0730634  45.2739839
  66.4051843  32.6196352  44.8293530  66.3485964  33.5281159  45.4289861
  67.7614093  31.9303523  45.0690964  67.8187431  31.0510375  44.4275213
  68.9235174  32.8583018  44.7606609  68.8671192  33.7376933  45.4022141
  69.8634418  32.3368621  44.9416127  68.8751967  33.1672677  43.7164845
  67.8536578  31.3733335  46.4904810  67.0696398  30.6232947  46.5946842
  68.8283844  30.8951303  46.5870690  67.6971088  32.4163551  47.5675309
  66.7223628  32.8947048  47.4718676  67.7745004  31.9430714  48.5463630
  68.4811066  33.1665421  47.4642507  66.2802840  33.2488342  43.4399511
  65.4807615  34.1670500  43.6187122  66.4943639  33.3193838  42.4713286
  66.8565891  32.3777081  42.4250778  66.5770682  34.1711702  41.2463989
  65.8799292  33.7657928  40.5130740  66.2458291  35.6442373  41.4720932
  65.1813974  35.7136538  41.6962934  66.8209276  35.9847502  42.3331465
  66.5691008  36.5200509  40.2670389  67.6364235  36.7402166  40.2882578
  66.3307877  35.9666680  39.3587019  65.8086318  37.8222853  40.2514972
  64.6209109  37.8690310  39.9445724  66.4944741  38.9045870  40.5762759
  66.0373784  39.8052076  40.5831692  67.4724453  38.8259415  40.8160440
  67.9372798  33.9851638  40.5733878  68.9540520  34.1357830  41.2485864
  68.0578432  33.6901225  39.3790155  67.2719253  33.5136473  38.7696806
  69.4055678  33.5369603  38.8338415  70.1278915  33.9629294  39.5301877
  69.7503784  32.0702977  38.6115822  68.9800091  31.6425966  37.9699419
  70.7120751  32.0300796  38.1000922  69.8308652  31.2770434  39.9021292
  69.5371961  31.8930146  40.7520932  69.1583944  30.4228102  39.8235756
  71.2384905  30.7654549  40.1379113  72.1824591  31.2009150  39.4634125
  71.4023520  29.8664675  41.1066647  72.3228359  29.4979227  41.2989813
  70.6053915  29.5573365  41.6446175  69.4632633  34.3253237  37.5386333
  68.5426956  34.2259769  36.7280617  70.5003322  35.1595361  37.3842873
  71.2093713  35.2001246  38.1024206  70.6251387  36.0526539  36.2382253
  69.6714868  36.1085819  35.7133261  71.0377916  37.4580921  36.6474516
  71.9956049  37.4195227  37.1663024  71.1311949  38.0830104  35.7592775
  70.2827456  37.8804553  37.3104856  71.6379478  35.4631236  35.2770304
  72.7098420  35.0104285  35.7050058  71.2629336  35.4146936  34.0015235
  70.2928431  35.5991139  33.7893610  72.1479250  35.0411088  32.9106822
  72.9869531  34.4748271  33.3149794  71.4406426  34.1828098  31.8555843
  70.5597216  34.7308940  31.5213971  72.1279624  34.0559765  31.0191605
  71.0156136  32.8028305  32.3828722  71.9159449  32.2724734  32.6930750
  70.3710990  32.9602036  33.2477055  70.2756137  31.9786063  31.3437266
  69.3653578  32.5049416  31.0564912  70.9143442  31.8546406  30.4692237
  69.9119790  30.6011721  31.9098767  70.8372008  30.1080742  32.2080706
  69.2843145  30.7561584  32.7874391  69.1858460  29.7432794  30.9232587
  69.7674532  29.5991883  30.1101962  68.9714538  28.8514968  31.3461768
  68.3282744  30.1998190  30.6471398  72.6925152  36.3429327  32.3373742
  71.9160965  37.2056639  31.8785181  74.0137559  36.4779348  32.3394807
  74.5983193  35.6790849  32.5400396  74.6571800  37.7582822  32.0922948
  73.9680271  38.4723906  31.6414990  75.2137351  38.3702615  33.4187539
  75.7236449  39.3034537  33.1794976  74.0863903  38.6465692  34.4359680
  73.5762840  37.7137037  34.6760816  74.5124785  39.0714436  35.3448305
  73.3730865  39.3499804  34.0064194  76.2628912  37.4330258  34.0449221
  77.0877084  37.2918843  33.3464539  76.6401979  37.8740033  34.9675694
  75.8044675  36.4688221  34.2646032  75.7833891  37.5457533  31.0899124
  76.4908716  36.5287384  31.1623512  75.9370001  38.5304517  30.1687600
  75.1884204  39.2023765  30.0779590  77.0920318  38.6580024  29.2859773
  77.5116616  37.6681856  29.1063308  76.7216021  39.2867852  27.9343793
  75.8936040  38.7118673  27.5196652  76.3939954  40.3086900  28.1253882
  77.8893466  39.3016212  26.9305892  78.7360952  39.8351591  27.3623935
  78.1754919  38.2693237  26.7291320  77.5122095  39.9720143  25.6068046
  76.3299424  40.2338568  25.3538580  78.5041869  40.2712889  24.7662616
  78.2968733  40.7142490  23.8825711  79.4578911  40.0535131  25.0175052
  78.0917559  39.5208317  30.0531926  77.8596019  40.7345417  30.2283199
  79.1835449  38.9082057  30.5505314  79.2516301  37.9038979  30.6331727
  80.2978638  39.7183809  31.0286628  79.9779328  40.2416647  31.9297274
  81.5210591  38.8556787  31.3473166  81.8674137  38.3745884  30.4326084
  82.6471363  39.7263148  31.9256539  82.3016594  40.2074020  32.8406956
  83.5121196  39.1016134  32.1484831  82.9276615  40.4884816  31.1986693
  81.1972374  37.7775025  32.3691031  80.4421574  37.1307137  31.9223156
  82.1119909  37.2078629  32.5329213  80.6950601  38.2997402  33.6764293
  79.7800049  38.8691400  33.5134645  80.4885987  37.4651816  34.3464926
  81.4498380  38.9462915  34.1240693  80.6370586  40.7543711  29.9563786
  80.7068118  40.4466379  28.7605075  80.8364797  42.0013381  30.3553515
  80.6692397  42.3013712  31.3051463  81.2526623  43.0149553  29.3632566
  80.9494902  42.7121645  28.3610074  80.5840430  44.3506467  29.6936242
  80.8135433  44.5177113  30.7460112  81.0506359  45.1308521  29.0922337
  79.0734476  44.3884008  29.4910556  78.6006380  43.7262854  30.2164211
  78.5507487  45.7991030  29.6791362  79.0227909  46.4617584  28.9537654
  77.4708717  45.8097364  29.5313072  78.7822646  46.1414574  30.6877462
  78.6985815  43.8645678  28.1176356  79.0400031  42.8344760  28.0154508
  77.6158930  43.9015828  27.9971500  79.1701110  44.4807158  27.3520505
  82.7803897  43.0876461  29.3888693  83.3693010  42.7321167  30.4207745
  83.4406034  43.4639719  28.2761408  82.9117082  43.5499578  26.9871065
  82.0428148  44.2069235  27.0261016  82.5974142  42.5500807  26.6878341
  84.0131606  44.0956286  26.1067498  83.9950710  45.1854015  26.0938328
  83.9172655  43.7190739  25.0883628  85.2904166  43.5646081  26.7686625
  86.1976905  44.1479213  26.6115042  85.4624380  42.5347643  26.4557246
  84.9000230  43.6020089  28.2372792  85.3021574  42.7006723  28.6998574
  85.4801220  44.8411211  28.9407529  86.4256240  44.8373742  29.2659834
  84.9081173  45.6506590  29.0715581  95.9359289  59.7973325  29.8964136
  95.4782412  60.4733069  29.3017023  95.2396863  59.1654618  30.2653119
  96.7430186  59.4320476  29.4113643  96.4707432  60.5034838  31.0583705
  96.0134681  60.0983135  31.9610530  97.9989946  60.3570787  31.1727960
  98.2187445  59.2933748  31.0814553  98.4284000  60.8903999  30.3246925
  98.6050010  60.8931297  32.4719336  99.6874227  60.7826473  32.4066814
  98.3511121  61.9516243  32.5287550  98.0968432  60.1820337  33.7186919
  97.6332417  60.8621055  34.6695783  98.1490490  58.9334014  33.7493341
  96.0466403  61.9701610  31.0809258  96.0882045  62.6175328  32.1315486
  95.6240569  62.4957076  29.9456223  95.6534826  61.9598343  29.0900095
  95.1364535  63.8572325  29.8861491  95.8509806  64.6048767  30.2305010
  94.7360988  64.1900554  28.4316616  93.9637130  63.4875141  28.1186822
  94.2096273  65.6122513  28.3040467  94.9816730  66.3154304  28.6164312
  93.9386786  65.8082121  27.2666050  93.3309233  65.7331694  28.9375755
  95.8448148  63.9506578  27.5546031  95.5902126  64.1590979  26.6527545
  93.9416188  64.0421308  30.8135108  93.8609349  65.0204117  31.5682966
  92.9433365  63.1670817  30.6866755  93.0124362  62.3721377  30.0674917
  91.6851225  63.3823486  31.4011269  91.3868960  64.4280871  31.3263524
  90.5851604  62.5167328  30.7923463  91.0069531  61.5147386  30.8710720
  89.7392574  62.6088507  31.4735675  90.1165716  62.7576412  29.3689203
  90.9778658  62.7383547  28.7011620  89.0803803  61.6277982  28.9318319
  88.2185403  61.6467735  29.5988930  88.7516150  61.8116373  27.9089842
  89.5614780  60.6513490  28.9883331  89.4672938  64.1400486  29.2204847
  90.1912086  64.9119671  29.4816145  89.1428037  64.2808169  28.1894698
  88.6060081  64.2107326  29.8847811  91.8555859  63.0861076  32.8959849
  91.2686757  63.7680763  33.7549727  92.7000831  62.0967344  33.1962216
  93.0697078  61.5301906  32.4462182  93.0667872  61.7608760  34.5535112
  92.2043741  61.3785493  35.0995598  94.1450403  60.6778491  34.5231467
  94.7134474  60.7730272  33.5979690  94.8108763  60.8202230  35.3743178
  93.5061300  59.2594722  34.5958750  92.9976938  59.2238378  35.5593705
  92.7673520  59.2371127  33.7947451  94.5892315  57.8255300  34.4437076
  95.3510033  57.6783836  36.1048613  94.5706373  57.5290862  36.8510772
  96.0332371  56.8283969  36.1182897  95.9026708  58.5900642  36.3342140
  93.5352118  62.9949521  35.2744049  92.9231483  63.3922497  36.2875475
  94.5826936  63.6379182  34.7292284  95.0225408  63.2454235  33.9091176
  95.1040019  64.8975788  35.2601465  95.6370338  64.7050281  36.1912214
  96.0704912  65.5626097  34.2700988  95.5384828  65.6908445  33.3274313
  96.3373173  66.5400465  34.6719959  97.2994539  64.7728131  34.0387676
  97.5987382  63.8971014  34.8739100  97.9630726  65.0319651  33.0242109
  93.9969002  65.9060599  35.5239734  93.8866112  66.5033709  36.6006450
  93.1947475  66.1374382  34.4944298  93.3213294  65.7036948  33.5911341
  92.1404361  67.1179698  34.6431350  92.5378500  68.0386536  35.0703385
  91.5427826  67.4332286  33.2771836  92.3586285  67.5474853  32.5634329
  90.9123718  66.5963348  32.9766989  90.7317234  68.6789127  33.3058202
  89.6802661  68.4430858  33.1417347  90.8459941  69.1761715  34.2690325
  91.2152358  69.5841731  32.2171309  90.5713142  70.4610932  32.1502348
  92.2378578  69.8998700  32.4237204  91.1908543  68.8840176  30.9289105
  91.9311930  68.2242995  30.7371551  90.2565752  69.0715039  30.0077370
  89.3053858  69.9714752  30.1696671  89.2825089  70.5320871  31.0094831
  88.6045569  70.0955982  29.4530557  90.2746275  68.3354043  28.8957364
  90.9977306  67.6426749  28.7640244  89.5651145  68.4740586  28.1904244
  91.0537005  66.6652299  35.6254146  90.2766812  67.5058441  36.0867365
  90.9576381  65.3750569  35.9527855  91.4003192  64.6435786  35.4151311
  90.1069294  64.9905971  37.0763985  89.3328380  65.7494183  37.1907315
  89.4483298  63.6127937  36.8665527  90.2340342  62.9069073  36.5973066
  88.6882773  63.0902484  38.1511622  87.9020636  63.7954312  38.4207653
  88.2458532  62.1164514  37.9412072  89.3923062  62.9981895  38.9781856
  88.4514483  63.7211929  35.7416266  87.5216241  64.1361260  36.1306745
  88.8523005  64.3847807  34.9754228  88.1894082  62.3947269  35.1542903
  87.7880732  61.7306752  35.9198394  87.4673735  62.4919842  34.3435461
  89.1187507  61.9793287  34.7645895  90.8852273  65.0109753  38.3913552
  90.4152231  65.5820881  39.3817506  92.0746276  64.3756568  38.4332644
  92.4534816  63.8762400  37.6413352  92.8061994  64.3252282  39.7000749
  92.1549834  63.9300118  40.4797036  94.0417648  63.4252706  39.5912792
  94.4321508  63.2782118  40.5982905  93.7171718  62.4675143  39.1845334
  95.1438740  64.0150174  38.6957279  94.7765930  64.0128606  37.6694721
  95.3199934  65.0419454  39.0158885  96.4438102  63.2317739  38.7697306
  97.2535502  63.8512105  38.3840905  96.6457186  62.9771402  39.8101604
  96.3440610  61.9471115  37.9398163  97.2313793  61.3479797  38.1442862
  95.4570016  61.4055765  38.2683960  96.2499451  62.2128484  36.4709306
  97.0720208  62.7142631  36.1661773  96.1866957  61.3360727  35.9735739
  95.4275691  62.7676447  36.2811995  93.1792828  65.7368533  40.1513366
  93.5626270  65.9268494  41.3154314  93.0187941  66.7262117  39.2744185
  92.8604976  66.5209201  38.2982541  93.1421197  68.1251127  39.6767913
  93.9227333  68.2251119  40.4309410  93.5126345  69.0061131  38.4628942
  94.3100969  68.4935359  37.9249188  92.6284441  69.0678846  37.8284719
  93.9743650  70.4204796  38.8347885  94.2268562  70.4061061  39.8950444
  94.8711717  70.6280397  38.2510433  92.9393051  71.5034094  38.5753198
  92.6105731  71.4319820  37.5385303  92.0890108  71.3405642  39.2375739
  93.5305512  72.9083501  38.8324105  92.8043179  73.6039402  38.4118868
  93.5492374  73.0150285  39.9170163  94.9082177  73.2138524  38.2701087
  94.8910095  73.1154781  37.2650584  95.1682097  74.1595072  38.5114407
  95.5813839  72.5696866  38.6599763  91.8502065  68.6110356  40.3379540
  91.8273618  68.9176082  41.5320249  90.7720488  68.7202077  39.5638548
  90.8118956  68.4690055  38.5864046  89.5160623  69.2392364  40.0938372
  89.6515324  70.2623497  40.4445311  88.4534118  69.2353553  39.0034589
  88.9090880  69.6607959  38.1093343  88.1893712  68.1945721  38.8159674
  87.2119328  70.0127887  39.3521251  86.7919354  69.6107412  40.2741125
  87.4645535  71.0632575  39.4963477  86.1577437  69.9107920  38.2499676
  85.0407575  70.4189994  38.3921371  86.5092061  69.2430458  37.1532151
  85.8514846  69.1446643  36.3930672  87.4319606  68.8378913  37.0863170
  89.0135763  68.4398240  41.2770263  88.0485639  68.8729283  41.9124984
  89.6189230  67.2790233  41.5532490  90.1862077  66.8204524  40.8546790
  89.4589358  66.6333425  42.8401451  88.4163884  66.6922348  43.1527564
  89.8606077  65.1707866  42.7631576  90.8924954  65.2232141  42.4159422
  89.8412970  64.8037310  43.7893141  89.0751238  64.2251148  41.8730915
  89.0609449  64.5684050  40.8386585  89.8074545  62.8944137  41.9553556
  89.8216413  62.5502333  42.9894917  89.2957689  62.1585482  41.3350487
  90.8304687  63.0195605  41.6005589  87.6776385  64.0769716  42.2491265
  87.1829814  65.0470531  42.2005895  87.1877995  63.3852398  41.5638046
  87.6135558  63.6874659  43.2651372  90.2990045  67.3223498  43.9104134
  89.8667044  67.4375648  45.0612349  91.5158550  67.7386781  43.5579324
  91.9329085  67.4579013  42.6819587  92.3022257  68.5632065  44.4636664
  92.5737736  67.9984791  45.3555430  93.6150766  69.0130262  43.7369886
  94.1891972  68.1360794  43.4379084  93.3641481  69.6008376  42.8540319
  94.4464196  69.8627751  44.6940005  93.8700267  70.7590984  44.9230783
  94.5933108  69.2831131  45.6053275  95.7891871  70.2591771  44.1280510
  96.4383656  69.3960045  43.9810838  95.6890867  70.8020738  43.1881879
  96.4075878  71.1505772  45.1244175  95.8754347  71.3395139  45.9618035
  97.6018851  71.6825039  45.0079606  98.0532524  72.4844101  45.9868722
  97.4735712  72.6668878  46.7935764  98.9701965  72.9011229  45.9116159
  98.3856503  71.4359912  43.9855221  98.0735790  70.8159424  43.2518661
  99.2975849  71.8673669  43.9366441  91.5012627  69.7641786  44.9436398
  91.5259679  70.1174401  46.1373218  90.7576107  70.3979779  44.0435836
  90.7135636  70.0878724  43.0833785  90.0106890  71.5980710  44.4196879
  90.6273957  72.2108676  45.0771470  89.6189351  72.4342988  43.1952624
  88.6427382  72.0660413  42.8797862  89.5222106  73.4602174  43.5505589
  90.5770483  72.3947269  42.0212973  91.5640221  72.7135248  42.3564861
  90.6314905  71.3689223  41.6567974  90.1063009  73.3019622  40.9052552
  88.9474353  73.8095277  41.0414494  90.8812546  73.5033415  39.9282598
  88.7259987  71.2902098  45.2053636  87.8850034  72.1752590  45.4136033
  88.4972293  70.0426140  45.6091089  89.0958017  69.2962601  45.2854325
  87.3581861  69.6989439  46.4529195  86.7341478  70.5767962  46.6204032
  86.5148048  68.6236249  45.7631644  87.1486298  67.7849319  45.4751382
  85.7160078  68.2679798  46.4139638  85.8408140  69.1293109  44.4744860
  85.8924590  70.3859284  43.9601308  86.4626016  71.1246959  44.5233889
  85.1852773  70.4473555  42.7968296  85.0851624  71.2680291  42.2166818
  84.6353526  69.2216102  42.5404855  83.8491378  68.7974889  41.4934147
  83.5922720  69.5022975  40.7026154  83.4378851  67.4972718  41.5194499
  82.7923550  67.1376341  40.7181687  83.8175894  66.6058904  42.5432218
  83.4943225  65.5649307  42.5441178  84.6056943  67.0300022  43.5656669
  84.9226077  66.2965231  44.3070676  85.0184838  68.3665872  43.5912263
  87.7749149  69.2379470  47.8412231  87.2589785  69.6548025  48.8774104
  88.8306384  68.2682796  47.8195217  89.1391835  67.8901044  46.9352804
  89.5210069  67.8252445  49.0512824  89.1937311  68.4612310  49.8737852
  89.2409744  66.3735943  49.4173459  88.1672061  66.2497218  49.5579745
  89.5711429  65.7559306  48.5821332  89.9689226  65.9478255  50.6800847
  90.1060891  66.7932075  51.5861353  90.3786212  64.7780081  50.7557170
  91.0036660  67.9670671  48.7289731  91.4254602  67.6494900  47.6176256
  91.7821711  68.4010420  49.5843477  91.3637718  68.5516158  50.4911933
  93.1898344  68.8173144  49.3823043  93.3146329  69.1318824  48.3461714
  93.6069258  69.9780381  50.3021636  93.4199069  69.6489738  51.3243377
  94.6776742  70.1217574  50.1574480  92.8766485  71.2990449  50.0502387
  91.8165412  71.1353316  50.2438135  93.2685335  72.0224513  50.7652271
  93.0573674  71.8346482  48.6357215  92.0430016  72.1092990  47.9473452
  94.2217131  71.9909639  48.2104000  94.1033385  67.6090322  49.5298355
  95.3032420  67.8778374  49.5385771  93.8329036  66.3255056  49.6487405
  92.8479731  66.1603892  49.7995644  94.7430756  65.1686853  49.6529345
  95.5895485  65.3793419  50.3065449  94.0369635  63.8940681  50.1566187
  93.1701129  63.6954813  49.5263549  94.7666194  63.0938570  50.0326651
  93.5850662  63.9201289  51.6125197  93.2758061  64.9694640  52.2019627
  93.4888057  62.7430799  52.2156404  93.1942139  62.6961141  53.1805806
  93.7105233  61.8989723  51.7072857  95.3090696  64.9620404  48.2535340
  94.5804738  65.1179447  47.2723440  96.6150017  64.6416052  48.1737106
  97.1358242  64.6115463  49.0385457  97.3443036  64.4659532  46.9190512
  96.9630428  65.1714191  46.1807713  98.8552328  64.7107204  47.0998108
  99.0429763  64.4663050  48.1453311  99.3881570  64.0062730  46.4611828
  99.3477071  66.1361679  46.8113802  98.7821427  66.5316008  45.9676559
  99.1636028  67.0521422  48.0222384  99.7292863  66.6575808  48.8662895
  99.5233763  68.0521446  47.7800422  98.1067480  67.1004397  48.2845848
 100.8011418  66.1299130  46.3985226 100.9208009  65.5286155  45.4972888
 101.1272555  67.1507704  46.1995218 101.4053706  65.7058338  47.2004973
  97.1145459  63.1324485  46.2170010  96.9847895  62.1001765  46.8144085
  97.0690044  63.2058225  44.8624526  97.0989761  64.1535414  44.5145590
  96.9031910  62.1133368  43.8941995  95.9713112  61.5857631  44.0975837
  96.8597013  62.6486801  42.4585762  96.2455863  63.5492108  42.4611304
  97.8793706  62.9057056  42.1716745  96.2836544  61.6387569  41.4523899
  95.5030463  61.0711022  41.9588680  95.8460308  62.2015510  40.6278595
  97.3342967  60.6835006  40.9118114  98.1101974  61.2584046  40.4062797
  97.7743796  60.1325887  41.7430288  96.7030500  59.6967341  39.9221708
  95.8902639  59.1827979  40.4353460  96.2997606  60.2715967  39.0885103
  97.6818829  58.6901818  39.4060694  98.0553773  58.1571036  40.1783578
  97.2162447  58.0676855  38.7612598  98.4348910  59.1661775  38.9301430
  98.0041288  61.0753058  44.0681920  97.7559673  59.8756975  43.9123560
  99.2172315  61.5690920  44.4157983  99.2227447  62.5790419  44.4241674
 100.4741831  60.8637702  44.6960085 101.0105085  60.6618744  43.7688126
 101.3695879  61.7484092  45.6044430 101.5206905  62.7092294  45.1124147
 100.7680704  61.8911295  46.5021666 102.7208779  61.1560311  45.9875220
 103.5952930  61.0321109  45.0939388 102.9247167  60.8721273  47.1892301
 100.2816343  59.4801116  45.3302749 100.8760369  58.4996363  44.8628694
  99.4438253  59.4077470  46.3788202  99.0310934  60.2642728  46.7195772
  99.1996445  58.1824349  47.1209778  99.7930508  57.3635735  46.7142419
  99.6047195  58.4005449  48.5959993 100.6016825  58.8402828  48.6241871
  98.8785405  59.1238118  48.9670103  99.5745687  57.1649044  49.4663811
 100.5548128  56.3816061  49.4224901  98.5984263  57.0064013  50.2360465
  97.7521138  57.6745167  46.9693071  97.5342705  56.6492052  46.3206797
  96.7741234  58.4109682  47.5376372  97.1058494  59.2190762  48.0446073
  95.3437391  58.0899189  47.5995081  95.1834230  57.2612882  48.2892683
  94.5379329  59.2944091  48.0871081  93.4825139  59.0689227  47.9343151
  94.7331492  59.4122588  49.1529890  94.8668960  60.4970005  47.4107133
  94.3323531  61.2153451  47.7568992  94.7061512  57.5187315  46.3127821
  93.9832952  56.5271287  46.3959981  94.9032779  58.0360364  45.1781827
  95.5593917  58.8038995  45.1786698  94.1781510  57.7343259  43.9252822
  93.2145883  57.2742965  44.1444147  93.9357485  59.0342325  43.1595167
  94.8484805  59.6118506  43.3057250  93.8237930  58.7941182  42.1022036
  92.7353004  59.8540367  43.6245710  92.5925398  59.6942321  44.6933005
  92.9574723  61.3312306  43.3597185  93.0998602  61.4918926  42.2910688
  92.0893639  61.8963210  43.6990728  93.8430459  61.6683126  43.8984536
  91.4712731  59.3816193  42.9355558  91.2971160  58.3324439  43.1743017
  90.6253757  59.9771166  43.2789823  91.5806935  59.4949565  41.8570008
  94.8623600  56.6390661  43.0800946  96.0899032  56.5972648  43.0099839
  94.0754317  55.6726913  42.3796051  92.6648281  55.4724480  42.4746215
  92.1838111  56.4388155  42.3234363  92.4497091  55.1136051  43.4811277
  92.2906291  54.4648137  41.4110755  92.0729427  54.9615014  40.4655529
  91.4255749  53.8781737  41.7203262  93.5407894  53.5827892  41.3055046
  93.6618858  53.1415660  40.3161833  93.5808541  52.7975064  42.0603724
  94.6423849  54.5995974  41.5560686  95.4221167  54.0962143  42.1276647
  95.2322748  55.1482890  40.2728860  94.8962623  56.2465713  39.8342578
  96.1562632  54.3711709  39.6184804  96.3227662  53.4300053  39.9449517
  96.9534786  54.8670424  38.5028604  96.8541917  55.9494131  38.4209150
  98.4365788  54.5251750  38.7333241  98.9440510  54.4592005  37.7709216
  98.8973332  55.3098458  39.3334051  98.5482959  53.2765635  39.4164327
  99.4753503  53.0702622  39.5564675  96.5431199  54.3435907  37.1298024
  96.9361782  54.9419044  36.1256575  95.9375617  53.1535908  37.0883354
  95.8192587  52.6142172  37.9340185  95.4772312  52.5658123  35.8116874
  96.3059559  52.5758610  35.1037230  94.9854597  51.1270436  35.9675924
  94.2248316  51.1029004  36.7479521  94.5457593  50.8086948  35.0223846
  96.0879246  50.1606254  36.3374043  96.3907585  49.9738887  37.5129680
  96.6924257  49.5402688  35.3371278  97.4359111  48.8842283  35.5293264
  96.4075692  49.7256493  34.3860276  94.3794168  53.4913401  35.3055621
  93.7200151  54.0850051  36.1445640  94.2323243  53.7532103  33.9946781
  95.0274420  53.3731678  32.8447604  95.3025945  52.3255130  32.9664594
  95.9277434  53.9876084  32.8491513  94.1733237  53.6107138  31.6198005
  93.5700040  52.7320592  31.3916112  94.7928426  53.8592025  30.7580864
  93.2968893  54.8017642  32.0254798  92.3400531  54.7649775  31.5047013
  93.7464898  55.7853397  31.8893249  93.0902264  54.5265066  33.5060042
  93.0475434  55.4913318  34.0113644  91.8044402  53.7330789  33.8062760
  90.8083814  54.3635843  34.0848631  91.8502991  52.4009124  33.7059497
  92.7045353  51.9824568  33.3664285  90.6683820  51.5098858  33.9449136
  89.7503058  51.8960310  33.5020513  90.9121942  50.0659208  33.4482218
  90.1660000  49.4079505  33.8936089  90.8081637  49.9967168  31.9291634
  91.5544102  50.6541213  31.4830288  90.9827446  48.9727703  31.5987762
  89.8128354  50.3136995  31.6178069  92.2307707  49.4587264  33.9488734
  92.9776467  49.6712195  33.1839396  92.4872367  49.9918209  34.8643705
  92.1999100  47.9727070  34.2233769  91.9439488  47.4388778  33.3081665
  93.1799544  47.6465972  34.5716076  91.4535367  47.7594790  34.9885963
  90.2290908  51.5300103  35.4220477  89.0152494  51.3858569  35.6502316
  91.1514572  51.6001601  36.3955251  92.1337651  51.5916834  36.1607943
  90.7753087  51.6164624  37.8134277  89.8860445  51.0069617  37.9741050
  91.9130982  51.0483130  38.6525029  92.7550811  51.7311838  38.5391384
  91.6017758  51.0264268  39.6968684  92.3308662  49.6540035  38.2199028
  91.6214699  49.0029474  37.4077224  93.3716385  49.1935157  38.7207390
  90.3969783  53.0163401  38.3057411  89.4530555  53.1785250  39.0899374
  91.1330832  54.0307848  37.8842135  91.9820310  53.8833526  37.3572878
  90.7735871  55.3933865  38.2458488  90.8372647  55.5399821  39.3240668
  91.7699917  56.3540892  37.5569379  92.7663680  55.9640578  37.7648054
  91.6144427  56.3961267  36.4789131  91.7526802  57.7695201  38.0480404
  90.8881949  58.6947907  37.4743841  90.2138258  58.3618803  36.6853994
  90.8723055  60.0343327  37.8920437  90.1716826  60.7388147  37.4437877
  91.7347471  60.4537969  38.8597307  91.7322887  61.4955306  39.1804874
  92.6229422  59.5464214  39.4408444  93.3044361  59.8867148  40.2205024
  92.6424157  58.2093640  39.0294282  93.3519423  57.5122586  39.4752041
  89.3316610  55.6628194  37.8634511  88.5542720  56.1888986  38.6695869
  88.9349376  55.2580399  36.6525258  89.5534982  54.7588411  36.0294025
  87.5960927  55.5899466  36.1784041  87.4612599  56.6715738  36.1797520
  87.3896440  55.0730170  34.7523257  86.5597958  55.6348013  34.3235491
  88.3012734  55.2911037  34.1960252  87.1084476  53.6768822  34.6750838
  86.9913428  53.4244135  33.7563097  86.5167508  55.0312799  37.0911218
  85.4469310  55.6387945  37.2006505  86.7747780  53.8816830  37.7277175
  87.6408944  53.3993621  37.5345642  85.8238604  53.2565101  38.6389878
  84.8050592  53.3814295  38.2721930  86.1262770  51.7780055  38.7311955
  87.2074723  51.6717152  38.8196169  85.6468704  51.3574238  39.6151527
  85.6484369  51.0448798  37.5041822  84.4385070  51.3291516  36.9242407
  83.8220469  52.1026799  37.3822040  83.9942770  50.6710294  35.7975211
  83.0320901  50.9243599  35.3524124  84.7712321  49.6729965  35.2415983
  84.3570212  49.0216359  34.1228246  83.5085794  49.3335500  33.7996284
  85.9801304  49.3437109  35.8120165  86.6050342  48.5536114  35.3956771
  86.4033762  50.0464964  36.9503058  87.3571955  49.8025302  37.4180764
  85.8755545  53.9352452  40.0033409  84.8355848  54.3413769  40.5500274
  87.0717495  54.1228209  40.5627567  87.9053981  53.6520682  40.2410096
  87.1780703  55.0049526  41.7262349  86.8648962  54.4745855  42.6255302
  88.5982123  55.4552542  41.9051854  89.2638868  54.5954530  41.8295639
  88.8980826  56.2112037  41.1794318  88.8165054  56.0409039  43.2378547
  89.3515752  55.4201328  44.3365506  89.6463149  54.3776446  44.2163566
  89.4001274  56.2850048  45.3901430  89.7890331  56.0840872  46.3003540
  88.8556958  57.4736718  45.0073191  88.6805420  58.6461739  45.7260693
  88.9919047  58.6792146  46.7701288  88.1133606  59.7098494  45.0565616
  87.9589876  60.6483779  45.5889460  87.7239205  59.6191970  43.6929005
  87.2923869  60.4698947  43.1654617  87.8826702  58.4534850  43.0050501
  87.5461580  58.4202720  41.9688275  88.4749016  57.3544245  43.6540786
  86.2723506  56.2171064  41.6196233  85.3968912  56.4499680  42.4507510
  86.3896986  56.9319724  40.4991283  87.0661863  56.6882463  39.7898601
  85.5816460  58.1451255  40.3043399  85.5509030  58.8513045  41.1340781
  86.0819188  58.8866582  39.0424677  86.0856322  58.1874136  38.2063202
  85.2156577  60.0326437  38.7196275  85.2118036  60.7325998  39.5551797
  85.5925942  60.5339124  37.8281405  84.2003704  59.6809943  38.5362260
  87.5472767  59.2149164  39.2417880  88.1106534  58.2927048  39.3840360
  87.9253153  59.7393209  38.3641853  87.6617546  59.8492550  40.1207705
  84.0996293  57.8023050  40.2052664  83.2373637  58.5764026  40.5996063
  83.7814341  56.6510857  39.6126184  84.4840626  56.0094086  39.2739992
  82.3787979  56.3089060  39.4118231  81.8351185  57.1374962  38.9580058
  82.2922129  55.1041381  38.4845764  82.8243765  54.2634347  38.9296829
  81.2467724  54.8339643  38.3357126  82.7434237  55.3513992  37.5236550
  81.7113340  56.0026528  40.7454028  80.5323212  56.3207931  40.9842428
  82.4628154  55.3626505  41.6240528  83.4014824  55.0696279  41.3935286
  81.9482844  55.0368123  42.9229629  80.9370735  54.6436417  42.8182319
  82.8246677  53.9648814  43.5745818  83.8383849  54.3471205  43.6944601
  82.4166928  53.7058271  44.5515913  82.8440605  53.0770767  42.9425011
  81.8863638  56.2525009  43.8308484  81.0573353  56.2749175  44.7398931
  82.7456098  57.2579908  43.6413878  83.3953643  57.2887942  42.8687497
  82.8464844  58.2852680  44.6704669  82.2476427  58.0074752  45.5378301
  84.2964874  58.4365690  45.1087106  84.9505790  58.4077924  44.2372548
  84.4040138  59.3976936  45.6114807  84.7201153  57.3307393  46.0737661
  84.4780667  57.3821189  47.3043085  85.3412104  56.3068415  45.5288752
  85.6492069  55.5398005  46.1092941  85.5071177  56.2926326  44.5326956
  82.2415301  59.6193292  44.2888703  82.2723891  60.5424106  45.1044195
  81.6053901  59.6964034  43.2401695  81.4710315  58.9073162  42.6242242
  80.9867449  60.9679765  42.8804085  81.5835756  61.8008281  43.2522291
  80.9013523  61.0691081  41.3794450  81.1218727  60.0457782  41.0756918
  79.8504331  61.2859263  41.1879806  81.7623423  62.0231202  40.5920245
  81.4668893  63.0506660  40.8040575  83.1941497  61.8217241  40.9935171
  83.4904857  60.7944628  40.7813425  83.8294188  62.5060946  40.4312263
  83.3040480  62.0181177  42.0600312  81.5422318  61.7436761  39.0845643
  80.4918939  61.8955649  38.8359288  82.1567133  62.4239684  38.4948896
  81.8229662  60.7145584  38.8605018  79.5706817  61.0919409  43.4134861
  78.7680897  60.1809444  43.1907025  79.1807550  62.2720946  44.0058241
  79.9508133  63.3445519  44.4433004  80.5818782  63.6612563  43.6129055
  80.5782405  62.9915257  45.2617176  78.9839944  64.4211280  44.8812331
  78.7170838  65.0663623  44.0442562  79.4124216  65.0240339  45.6818928
  77.7730452  63.6254289  45.3832232  76.8048531  64.1244808  45.3425983
  77.9643488  63.2870229  46.4015473  77.7834532  62.4395454  44.4320235
  77.5427937  61.5535862  45.0196098  76.7563857  62.6093768  43.3324920
  76.1809472  63.6832746  43.2072639  76.4243804  61.5524617  42.6069342
  76.7577187  60.6287530  42.8430425  75.6167306  61.7088385  41.4047391
  75.3438414  62.7595039  41.3060838  76.3856833  61.2604891  40.1536753
  75.6916589  61.0022664  39.3538306  77.2555983  62.4125805  39.7121926
  77.9502496  62.6710910  40.5114001  77.8164560  62.1250720  38.8228792
  76.6290914  63.2746108  39.4830811  77.2540097  60.0442524  40.4823051
  77.9985116  60.3490858  41.2177604  76.6114207  59.2765116  40.9132957
  77.9515504  59.4894618  39.2588566  78.5947220  60.2565393  38.8275536
  78.5553152  58.6278039  39.5436600  77.2076305  59.1839671  38.5230875
  74.3196738  60.9428731  41.5102731  74.1928402  60.0067917  42.2929179
  73.3311511  61.3944199  40.7163226  73.3783074  62.3041190  40.2800620
  72.1372743  60.5958157  40.5140619  71.5315291  60.6240780  41.4198065
  71.2983883  61.1121779  39.3507093  71.9481188  61.2014723  38.4800912
  70.5239146  60.3716292  39.1510140  70.6534317  62.4514924  39.6381824
  70.6777358  62.9699164  40.7732537  70.0839124  63.0625341  38.7135312
  72.5715808  59.1522165  40.2797797  73.5894920  58.8803971  39.6277575
  71.8436663  58.2175674  40.8788336  71.2557136  58.4390491  41.6696286
  71.9059296  56.8252528  40.4281659  72.8864171  56.4043362  40.6508149
  70.8254822  55.9804069  41.1582959  69.9950963  56.6661121  41.3267208
  70.4994995  55.1686352  40.5080176  71.2860445  55.4112271  42.4831245
  72.5232965  55.2575730  42.7147880  70.4024785  55.0664381  43.2771444
  71.7010385  56.7283213  38.9001996  72.2631884  55.8283430  38.2520595
  70.9035239  57.6381075  38.3123598  70.3242824  58.2845975  38.8287214
  70.8412146  57.6657920  36.8536418  70.4330793  56.7211971  36.4941069
  69.9611331  58.7976669  36.3508686  69.8264574  58.7010319  35.2735463
  68.9901952  58.7482833  36.8437589  70.5686275  60.0296938  36.6373335
  70.0108973  60.7432005  36.3188289  72.2315244  57.8142744  36.2709708
  72.5764759  57.1961777  35.2680721  73.0689328  58.5835781  36.9129561
  72.8477955  59.0253540  37.7938827  74.3586930  58.8797197  36.2941664
  74.2493776  58.9643730  35.2129712  74.8931055  60.2126403  36.8393406
  74.5747949  60.3086012  37.8774008  75.9820851  60.2136970  36.7921994
  74.3451965  61.3922859  36.0256471  73.2573982  61.3414368  35.9786362
  74.7516362  62.6479469  36.6961724  75.8393910  62.6997328  36.7431477
  74.3717955  63.5005027  36.1331712  74.3434117  62.6694692  37.7066129
  74.9017523  61.3274651  34.6232745  74.6018066  60.3896116  34.1557675
  74.5160126  62.1633974  34.0397307  75.9897167  61.3825332  34.6606889
  75.3184833  57.7287943  36.5492653  76.1099453  57.3460238  35.6791408
  75.2894385  57.2087846  37.7686419  74.7966552  57.6768002  38.5157867
  76.0083820  55.9785826  38.0788681  77.0820358  56.1626785  38.1172770
  75.5457065  55.4585891  39.4621151  74.5610377  55.0119132  39.3242485
  76.2536501  54.6886465  39.7688794  75.4676726  56.5490008  40.5519541
  75.3002835  57.5134682  40.0724915  74.6324636  56.3236739  41.2150950
  76.7801744  56.6022401  41.3745132  77.6161753  56.5567877  40.6765622
  76.8040965  57.5525199  41.9078944  76.9200698  55.5170846  42.3443013
  76.4876230  54.6307527  42.1263449  77.5747364  55.6392557  43.5023232
  78.1012017  56.8020574  43.8839939  78.0079046  57.6141215  43.2907422
  78.5912005  56.8661834  44.7648393  77.7190273  54.5629232  44.2971003
  77.3327036  53.6739490  44.0132361  78.2129874  54.6489723  45.1738544
  75.7857353  54.9079615  36.9959942  76.7135267  54.2042755  36.6149807
  74.5439114  54.7185727  36.5669614  73.7847770  55.2788958  36.9273118
  74.2295646  53.6571122  35.6162093  74.7167959  52.7282402  35.9126913
  72.7080679  53.4548540  35.6031855  72.2238548  54.4293361  35.6666096
  72.2622651  52.7460583  34.3203900  72.7457406  51.7712409  34.2564914
  71.1803623  52.6142186  34.3347200  72.5430362  53.3476613  33.4559013
  72.2103432  52.6079738  36.7893980  72.4709870  51.5726748  36.5695763
  72.7610333  52.9418770  37.6688004  70.7258886  52.7075807  37.0570207
  70.1744998  52.3733833  36.1781678  70.4667216  52.0786990  37.9087480
  70.4645457  53.7425866  37.2773898  74.7809807  54.0301228  34.2486825
  75.4558436  53.2299766  33.5685059  74.5344941  55.2728523  33.8333156
  73.8363911  55.8568949  34.2710893  75.2107617  55.7774386  32.6401476
  74.8193715  55.2974736  31.7431824  74.9641290  57.2705837  32.5377998
  73.8811913  57.3940947  32.5473062  75.3867257  57.7042477  33.4441373
  75.5457068  57.9777166  31.3169414  76.6213094  57.8011965  31.3124021
  75.1054441  57.5586497  30.4121465  75.2973492  59.4918902  31.3271806
  76.1189822  60.2991724  30.8686847  74.1651528  59.8730807  31.8742703
  73.9338123  60.8553159  31.9166621  73.5314707  59.1820834  32.2498646
  76.6837115  55.4180790  32.6562821  77.2371358  55.0443931  31.6203157
  77.3328833  55.4390117  33.8297181  76.9124967  55.5612434  34.7399015
  78.7821059  55.3064934  33.7501394  79.1430178  55.8350963  32.8678578
  79.4631608  55.8836540  34.9718967  79.0773700  55.3899413  35.8638117
  80.5401906  55.7284667  34.9084631  79.1723326  57.3611145  35.0501168
  78.1023991  57.5620130  34.9955004  79.7171140  57.8152400  36.4437517
  80.7871535  57.6150708  36.4989489  79.5406126  58.8830555  36.5730501
  79.2038583  57.2645928  37.2320768  79.8754378  58.0860195  33.8970540
  79.5120448  57.6957114  32.9464202  79.6638531  59.1536840  33.9555841
  80.9511250  57.9248966  33.9680149  79.1847383  53.8654507  33.6065391
  80.2769178  53.5497890  33.1332235  78.3358483  52.9746712  34.1435415
  77.5166083  53.3070698  34.6318615  78.5804244  51.5123467  34.0946581
  79.6188862  51.2969726  34.3462733  77.6723462  50.7985441  35.1061412
  77.6381691  51.4790802  35.9569066  76.6767757  50.7114236  34.6709981
  78.1468602  49.4197005  35.5745125  78.5458640  48.8814987  34.7147244
  79.2239173  49.5335193  36.6466652  78.8254856  50.0712384  37.5070192
  79.5368873  48.5360860  36.9553354  80.0808210  50.0747573  36.2455694
  76.9789743  48.5943725  36.0978491  76.2430840  48.4614909  35.3048122
  77.3401228  47.6192911  36.4247885  76.5165847  49.1107474  36.9390695
  78.3273915  51.0426775  32.6646612  79.0669120  50.1890282  32.2145166
  77.3502175  51.6412115  31.9666689  76.8169929  52.3647743  32.4273507
  77.0025042  51.2946179  30.5604633  76.7377232  50.2394485  30.4925833
  75.8085560  52.1303230  30.0880897  76.0141916  53.1591114  30.3837376
  75.7932748  52.0615598  29.0003682  74.4563878  51.7041789  30.6421215
  74.0911271  50.8934246  30.0117543  74.6254416  51.3305723  31.6520428
  73.4310089  52.8125021  30.6807575  73.6096407  53.4039045  31.5787736
  73.5784765  53.4370909  29.7997118  72.0096350  52.2888224  30.6958873
  71.8306551  51.7623464  29.7583961  71.9124665  51.5914177  31.5279235
  71.0162154  53.3801431  30.8472332  71.1057978  54.0262540  30.0761201
  70.0849242  52.9892869  30.8525362  71.1816202  53.8678430  31.7160768
  78.1928103  51.5610580  29.6362744  78.3061089  50.8435311  28.6222134
  79.0512305  52.5344856  29.9631328  78.8709470  53.0751703  30.7969537
  80.2267373  52.9056109  29.1185366  79.9711397  53.0874365  28.0746455
  80.9632678  54.1421822  29.6925393  81.2039204  53.9534877  30.7387616
  82.2381704  54.4152116  28.9231406  81.9982658  54.6044694  27.8768481
  82.7376200  55.2876706  29.3444080  82.8978542  53.5503542  28.9934129
  80.0818639  55.3967602  29.7761168  79.3495925  55.2114852  30.5619619
  80.7346724  56.2170420  30.0745768  79.3645934  55.7638248  28.4950533
  78.7111991  54.9441548  28.1961940  78.7689618  56.6623587  28.6561716
  80.0962797  55.9497094  27.7088078  81.1347653  51.6695823  29.0401626
  81.2745562  51.0154690  30.0870524  81.7061698  51.3504870  27.8698029
  81.5173562  51.9435590  27.0743694  82.5509394  50.1340303  27.6625092
  82.4702302  49.4820149  28.5322569  82.1016584  49.3587866  26.4291359
  82.0614964  50.0527325  25.5895375  82.8536806  48.5946313  26.2325926
  80.7491300  48.7017374  26.6054949  80.2435329  48.5167232  27.7314373
  80.1129794  48.3394539  25.5987084  84.0299992  50.5078429  27.5440103
  84.8322784  49.5780794  27.3162078  84.3895358  51.7818934  27.6959800
  83.6523275  52.4432517  27.8940417  85.7494989  52.2866409  27.5471330
  86.4650692  51.4662710  27.4918922  85.8250165  53.1086997  26.2124280
  85.4790629  52.4792267  25.3925627  85.1759035  53.9799799  26.2997390
  87.1471530  53.5312124  25.9552917  87.1697211  54.0310313  25.1359800
  86.1318743  53.1413895  28.7667723  85.3317040  53.9583907  29.2427727
  87.3587168  52.9198722  29.2647819  87.8983985  52.1178076  28.9723178
  87.9090823  53.7809192  30.2965871  87.2352315  53.7661032  31.1532112
  89.2821901  53.2646329  30.7441722  89.9705843  53.2820924  29.8992410
  89.6685178  53.9012648  31.5401313  89.1847089  52.2431008  31.1116894
  87.9962856  55.2439107  29.8135908  87.4787103  56.1426459  30.4963799
  88.6457228  55.5219450  28.6428567  89.0989493  54.8011757  28.0995550
  88.7847473  56.9233962  28.2005711  89.2939780  57.5046914  28.9692577
  89.5729225  57.0291726  26.8637045  89.1412685  56.3328765  26.1447142
  89.5024482  58.4415620  26.3058869  89.9343692  59.1384190  27.0241731
  90.0605762  58.4917900  25.3709692  88.4617963  58.7086262  26.1219858
  91.0372212  56.6278210  27.0703327  91.4993158  57.4145046  27.6667372
  91.0327070  55.6973588  27.6380644  91.8363849  56.4322958  25.7746687
  91.8417369  57.3625371  25.2065820  92.8606513  56.1499013  26.0180426
  91.3751264  55.6453924  25.1779079  87.4083891  57.5538437  28.1040724
  87.1163555  58.6195934  28.6690857  86.5215769  56.8533327  27.4408074
  86.7322888  56.0069508  26.9315555  85.1765726  57.3862329  27.3609656
  85.2041929  58.3927728  26.9435763  84.2979514  56.5070519  26.4625073
  84.7577708  56.3889733  25.4813229  84.1537954  55.5264142  26.9160145
  82.9526170  57.1975896  26.3113122  82.5664087  57.4190664  27.3062454
  83.1559669  58.1302744  25.7851469  81.9111484  56.4379365  25.5524669
  82.0915626  55.2676654  25.1482216  80.7606816  57.1057801  25.3764409
  79.9995652  56.6709258  24.8747389  80.6610911  58.0402715  25.7464529
  84.5658865  57.5464086  28.7534211  83.7758956  58.4793506  28.9727444
  84.9183702  56.6655947  29.7104519  85.5488081  55.8953152  29.5392303
  84.3046771  56.7802752  31.0383308  83.2405430  56.9827205  30.9169486
  84.4687020  55.5042025  31.8733992  84.4083357  54.6383959  31.2139796
  85.4435580  55.5218691  32.3606813  83.3562512  55.4131447  32.9478565
  83.6782497  55.9631898  33.8320896  82.4479015  55.8655644  32.5499628
  83.0884075  54.0182172  33.3110976  82.6388281  53.9662483  34.3027007
  82.4171387  53.5612600  32.5839884  84.3312622  53.2756500  33.3257611
  85.0815636  53.6067734  33.9152562  84.5321064  52.1930358  32.6002171
  83.6088812  51.7553578  31.7363357  82.7394607  52.2588687  31.6329687
  83.7856048  50.9234564  31.1915343  85.6712262  51.5251257  32.7411398
  86.3662666  51.8510006  33.3975119  85.8373001  50.6943484  32.1912969
  84.8844978  57.9833739  31.7966582  84.1459897  58.7624692  32.4301322
  86.1795426  58.2403919  31.5935456  86.7244414  57.6070868  31.0259989
  86.8637524  59.4099705  32.1966948  86.6705541  59.4447127  33.2688732
  88.3772072  59.3018564  31.9747516  88.4648663  59.1510729  30.8987965
  88.8401595  60.2503295  32.2471008  89.0840134  58.1604302  32.7086081
  88.4039702  57.3109746  32.7723825  90.3507774  57.7420290  31.9746283
  91.0315526  58.5908975  31.9108619  90.8339862  56.9293706  32.5170271
  90.0949028  57.4058786  30.9698241  89.4021673  58.5426564  34.1459516
  88.4772514  58.7745025  34.6740400  89.9039771  57.7112517  34.6409814
  90.0536052  59.4165308  34.1543844  86.3055653  60.6840801  31.5519981
  86.3652392  61.7227737  32.2311599  85.8167819  60.6406074  30.2989850
  85.8302936  59.7930294  29.7498690  85.3370357  61.8754663  29.6626791
  85.9427775  62.7210645  29.9884699  85.4391171  61.7580635  28.1210433
  86.4897448  61.5701286  27.8997716  84.8480866  60.8853700  27.8432141
  84.9495647  62.9989657  27.3069726  83.8604652  62.9558440  27.3171503
  85.2831814  63.8751659  27.8629179  85.4743928  63.1005737  25.7676882
  84.5929135  63.1826669  25.1317998  86.0651003  64.0132100  25.6885742
  86.2795893  61.9834212  25.3051032  85.7654008  61.1606317  25.0245198
  87.6146544  61.9486763  25.2558305  88.3746489  63.0083178  25.5598734
  87.9383687  63.8753369  25.8392255  89.3807266  62.9357550  25.5084726
  88.2153481  60.8257102  24.8536921  87.6586744  60.0239311  24.5941448
  89.2235544  60.7833697  24.8109589  83.9262721  62.1784244  30.1290098
  83.5087798  63.3386497  30.2219962  83.1453011  61.1554798  30.4368062
  83.3659054  60.1848058  30.2658528  81.8377462  61.4792134  30.9893827
  81.3738766  62.2866856  30.4228911  80.9498312  60.2603705  30.9076578
  81.0977916  59.7719811  29.9444949  81.2129761  59.5697670  31.7088579
  79.1584206  60.5485857  31.0576413  78.8016540  59.2732356  30.9347667
  81.9709257  61.9926266  32.4177577  81.1882072  62.8536957  32.8457012
  82.9748945  61.4997402  33.1509015  83.5923092  60.7937111  32.7761732
  83.1282396  61.8804192  34.5526125  82.1866928  61.7391342  35.0832982
  84.2077466  61.0048617  35.2221815  84.9864622  60.7821439  34.4927309
  84.6405093  61.5532855  36.0588701  83.5792909  59.6594403  35.7458223
  83.1956505  59.8446638  36.7491235  82.7482029  59.4487959  35.0727540
  84.5349724  58.4492743  35.7765139  85.7710266  58.6770688  35.5054962
  84.0820656  57.3260857  36.0845134  83.4082310  63.3616611  34.6485710
  82.5833286  64.1028411  35.1939289  84.5069898  63.8227788  34.0130683
  85.1602840  63.1778110  33.5919716  84.8272917  65.2556813  33.9851585
  85.0948519  65.5981104  34.9847849  85.9990311  65.5074787  33.0571138
  86.6415939  64.6631218  33.3066606  85.6198841  65.3873743  32.0422628
  86.7982117  66.7963268  33.1495845  87.6131875  66.7136020  32.4305073
  85.9894005  68.0816429  32.8651695  85.1744684  68.1653031  33.5841865
  86.6425114  68.9497374  32.9543827  85.5798009  68.0379552  31.8560016
  87.4827267  66.9571528  34.5082924  88.1657267  66.1237058  34.6725375
  88.0414080  67.8929260  34.5257518  86.7294403  66.9695737  35.2960134
  83.6206030  66.1061390  33.5795759  83.3726596  67.1609128  34.1806668
  82.8154198  65.6401439  32.6173979  83.0491668  64.8077386  32.0953222
  81.5951237  66.3687249  32.2546748  81.8130648  67.4326657  32.1617716
  81.0455480  65.8591519  30.9079610  81.7620196  66.0901496  30.1196668
  80.9464293  64.7778081  31.0026769  79.6714892  66.4732048  30.5514298
  79.5650083  67.7166684  30.4202614  78.6969080  65.7051395  30.3704956
  80.5016962  66.2706389  33.3121995  79.5553258  67.0753297  33.2956179
  80.5988580  65.3122411  34.2182747  81.2995827  64.5892940  34.1380771
  79.6515164  65.2391189  35.3295182  78.7134046  65.6338756  34.9393739
  79.4463981  63.7868113  35.7816134  80.4257838  63.3540230  35.9855699
  78.5854063  63.6896882  37.0197335  77.6056318  64.1218879  36.8163968
  78.4689955  62.6429949  37.3007716  79.0596834  64.2340293  37.8363443
  78.6810745  62.9217605  34.7777369  77.6310431  63.2116963  34.8161041
  79.0785322  63.1286975  33.7841052  78.8116700  61.3854794  35.0844683
  78.4139634  61.1776837  36.0778213  78.2502749  60.8173458  34.3427412
  79.8614535  61.0946853  35.0458246  80.1168443  66.0928410  36.5065919
  79.3254562  66.8516267  37.0817630  81.4054910  65.9851684  36.8890609
  82.0413486  65.3168511  36.4777989  81.9138368  66.8744268  37.9315180
  81.3499090  66.6986584  38.8475912  83.3931830  66.6522701  38.2202850
  83.9565704  67.2344096  37.4910338  83.5892107  67.0369781  39.2211211
  83.8333474  65.1540204  38.1427734  83.5050589  64.5924835  39.0174183
  83.4592580  64.6709767  37.2400952  85.7005380  65.1812916  38.0958613
  86.0221633  66.4312016  39.3130808  85.6081476  66.1201304  40.2722078
  87.0981658  66.5746691  39.4117535  85.5580642  67.3678507  39.0042090
  81.7573475  68.3135820  37.5142921  81.6119813  69.1907446  38.3597437
  81.8060955  68.5739156  36.2019526  82.0222751  67.8513692  35.5301695
  81.6025785  69.9367402  35.7128444  82.3215768  70.5996426  36.1941978
  81.7905779  70.0336802  34.1759329  81.2788166  69.1995573  33.6958927
  81.3311003  70.9707187  33.8613870  83.2656530  70.0322702  33.7250198
  84.1852811  69.9736588  34.5546257  83.4792689  70.0623161  32.4165706
  84.4250898  70.0629959  32.0622795  82.6951582  70.0843802  31.7803439
  80.2126726  70.4405946  36.0954215  80.0763324  71.4778288  36.7345660
  79.1553580  69.6902207  35.7731501  79.2752238  68.7903804  35.3304098
  77.7634612  70.1964426  35.9856700  77.7448472  71.2838215  35.9124597
  76.8313613  69.6185395  34.9187315  76.7547704  68.5496857  35.1181923
  75.8583664  70.0862974  35.0690094  77.2819745  69.8353259  33.4788810
  78.2184354  70.3922978  33.5092789  77.4579395  68.8534139  33.0395778
  76.2735342  70.5899278  32.6393466  75.3179934  70.0728627  32.7270077
  76.1825627  71.5933741  33.0551821  76.6650695  70.6825121  31.1788887
  75.8439660  71.1508537  30.6361678  77.5535154  71.3095975  31.1045458
  76.9494159  69.3522247  30.5919063  76.1261530  68.7711399  30.6603051
  77.2054010  69.4604603  29.6208982  77.7105231  68.9182588  31.0943887
  77.2159615  69.8904513  37.3848206  75.9952067  70.0129398  37.5603518
  78.0796525  69.5368731  38.3390965  79.0588388  69.4628501  38.1028463
  77.6635214  69.2198552  39.7349739  76.7895550  68.5685303  39.7273722
  78.7962346  68.5061195  40.4617600  79.7032548  69.1102520  40.4408435
  78.5183545  68.3045311  41.4962863  79.2400587  66.9128565  39.7437328
  80.2059324  66.6323945  40.6139784  77.2957461  70.5092881  40.4724373
  77.6942466  71.5811978  39.9891197  76.5546008  70.4198053  41.5855435
  76.1369640  69.5493055  41.8820380  76.2803971  71.6416264  42.3862129
  77.1334254  72.2940948  42.1998614  75.0071273  72.3309721  41.8544088
  74.1501613  71.6885898  42.0570284  74.7972928  73.6893868  42.5294925
  75.6537041  74.3325218  42.3269178  73.8931450  74.1548776  42.1371480
  74.6954613  73.5490371  43.6056119  75.1952170  72.6694893  40.4751723
  74.4045754  73.0989172  40.1403920  76.1330896  71.3182158  43.8696060
  77.0349017  70.6670469  44.4109358  75.0703171  71.8075714  44.5072586
  74.4757663  72.4473935  44.0000739  74.7424438  71.5162917  45.9271175
  75.6583328  71.2776948  46.4677820  74.0844756  72.6968445  46.5922814
  73.2065734  72.9825541  46.0128360  73.7774669  72.4079104  47.5974494
  74.9778597  73.7951427  46.6687065  74.5394411  74.5351721  47.0950227
  73.8397684  70.2808292  45.9847694  73.4120020  69.8490665  44.9077927
  73.6306608  69.6943244  47.1667589  74.0881241  70.0795060  47.9806765
  72.7768467  68.4841650  47.3419751  72.3703033  68.1620506  46.3832968
  73.6292414  67.3477826  47.9194552  74.3086712  67.8647550  48.5971084
  72.9840862  66.6809282  48.4914518  74.4410689  66.5296995  46.9080008
  73.7999795  66.2989246  46.0572081  75.6678302  67.2934018  46.4264849
  76.3096720  67.5241437  47.2767178  76.2188339  66.6829219  45.7110759
  75.3541202  68.2204342  45.9465917  74.8425255  65.1880626  47.5056907
  73.9475103  64.6278705  47.7763049  75.4178688  64.6212075  46.7737368
  75.4499957  65.3533082  48.3955069  71.6047040  68.7930172  48.2752129
  71.8430560  68.7847102  49.4986300  70.3830351  69.0006212  47.7576673
  70.2485469  69.0543925  46.7581069  69.2257625  69.1822130  48.6199355
  69.4984788  69.7668945  49.4984983  68.1328129  69.9249625  47.8606987
  67.3093721  70.1789886  48.5281680  68.5305577  70.8354158  47.4123976
  67.4065550  68.9776653  46.5085129  66.5492683  69.9190145  46.1240401
  68.6955890  67.8174574  49.1039812  68.8694606  66.7639816  48.4656119
  67.9795321  67.8625091  50.2202603  67.8856928  68.7336347  50.7226887
  67.3528212  66.6731706  50.7781664  68.0800102  65.8652746  50.8594079
  66.8146906  66.9814847  52.1614736  67.5822586  67.4890611  52.7456873
  66.5353808  66.0525376  52.6586087  65.3530901  68.0476254  52.0825879
  66.2311377  66.1845123  49.8580592  65.5293927  66.9693487  49.2060265
  66.0887725  64.8552036  49.7973754  66.6711275  64.2486943  50.3569364
  65.1545842  64.2413419  48.8508554  65.4245115  64.5277378  47.8343832
  65.1917992  62.7127827  48.9552147  66.2176291  62.3944014  48.7697271
  64.9070220  62.4446166  49.9726079  64.2507926  62.0149166  47.9590684
  63.2310718  62.3210708  48.1926061  64.5119156  62.3568730  46.9575782
  64.3506361  60.4995860  48.0186876  65.3680505  60.2007919  47.7663210
  64.1154093  60.1679756  49.0300246  63.3701399  59.8585356  47.0301277
  62.3650705  60.1843257  47.2980769  63.6157659  60.2228421  46.0326069
  63.4296063  58.3633788  47.0433928  63.2016144  58.0255828  47.9675213
  62.7666080  57.9941696  46.3768961  64.3607313  58.0612787  46.7947148
  63.7392659  64.7774381  49.0559623  63.0589826  65.1588947  48.0878139
  63.3090554  64.8626563  50.3272364  64.0035930  64.8448300  51.0603115
  61.9034207  64.8901095  50.7082225  61.3400418  64.1510887  50.1385281
  61.7785557  64.5571115  52.2032095  61.8003344  65.5100836  52.7318578
  60.8009982  64.0926530  52.3326685  62.8805538  63.6175085  52.7807658
  62.4721094  63.2039382  53.7028469  63.1055068  62.8067117  52.0878684
  64.1655968  64.3463254  53.1054987  64.2475861  65.5446977  52.8983384
  65.1834376  63.6241233  53.5508303  66.0578051  64.0756559  53.7782094
  65.0801806  62.6254549  53.6608339  61.2316260  66.2150211  50.3795281
  60.1784498  66.2185881  49.7295357  61.8687707  67.3457936  50.7184180
  62.7110596  67.2751495  51.2712822  61.3409051  68.7047823  50.4046958
  60.2732102  68.6131762  50.2053570  61.5369572  69.6493866  51.5874221
  60.9640977  69.2872798  52.4411262  61.1929218  70.6476197  51.3167372
  63.2452618  69.7697888  52.1736608  61.9855750  69.2545043  49.1212098
  61.2966151  70.0359211  48.4390133  63.2249607  68.8532182  48.7787750
  63.7034072  68.2422183  49.4252017  63.9432869  69.2739219  47.5379858
  64.9082559  68.7682833  47.5024415  63.1623659  68.9307648  46.2616929
  62.3818301  69.6861287  46.1706520  63.8670021  69.0359094  45.4367489
  62.5342871  67.5448773  46.2185328  63.3117510  66.8006079  46.0461558
  62.0471503  67.3462615  47.1731801  61.5062145  67.4316039  45.1198054
  61.8196155  67.1222487  43.9745120  60.2544908  67.6803086  45.4685400
  59.5198125  67.6210546  44.7780052  60.0393499  67.9282801  46.4236975
  64.2013888  70.7790705  47.5730893  64.4326878  71.3417601  46.4869820
  64.2548830  71.3944866  48.7607578  64.1289891  70.8406650  49.5959414
  64.3497690  72.8746893  48.9023659  64.4425411  73.3264923  47.9147595
  63.1029505  73.4544733  49.5931859  63.0107205  72.9427681  50.5511789
  63.3045431  74.5118676  49.7645852  61.7983048  73.3051073  48.8078953
  61.9094637  73.8478736  47.8691998  61.6718900  72.2426339  48.5998840
  60.5759663  73.8251574  49.5529608  59.4463282  73.7584394  49.0051037
  60.7407848  74.2948686  50.6985106  65.6237112  73.3597979  49.5888074
  66.1608578  74.3528364  49.0750662  66.1123086  72.7164123  50.6576720
  65.6717432  71.8619132  50.9672407  67.2223776  73.2400228  51.4353557
  67.3767955  74.3037925  51.2546672  67.0446325  73.0198323  52.9417527
  67.9579037  73.3425221  53.4416600  65.8618228  73.7938712  53.4993025
  64.9480610  73.4713734  53.0001690  65.7761640  73.6063045  54.5696204
  66.0115863  74.8599578  53.3286248  66.9158350  71.6260195  53.2295357
  66.8053445  71.5034243  54.1752432  68.4931478  72.5694994  50.9177745
  68.5625534  71.3455966  50.8518216  69.4615913  73.3591811  50.4465538
  69.2757561  74.3020425  50.1357853  70.8038280  72.8200374  50.2561024
  70.7352127  71.9473305  49.6066613  71.7798493  73.8280794  49.6237998
  72.7215607  73.2996284  49.4754134  71.3612667  74.1024064  48.6554852
  72.0294351  75.0924792  50.4476793  71.0622106  75.5424036  50.6716113
  72.5070392  74.7783354  51.3757456  72.9130046  76.1135603  49.7426536
  73.2883712  77.1383206  50.3667428  73.2456863  75.8880267  48.5596615
  71.2982421  72.2873678  51.6073517  70.9667963  72.8231803  52.6730429
  72.0823638  71.2122092  51.5756477  72.3418284  70.7548059  50.7133486
  72.5534039  70.6357199  52.8360263  72.2610111  71.2645055  53.6769985
  72.0378985  69.1858026  53.0689340  72.5644229  68.5216853  52.3834994
  72.2745544  68.7140381  54.5314186  71.7479207  69.3774448  55.2174572
  71.9002598  67.6973056  54.6508310  73.3416262  68.7361633  54.7527042
  70.5487235  69.0521018  52.7107202  70.3895250  69.6149465  51.7909580
  70.3580057  67.9948125  52.5266941  69.6071562  69.5543763  53.7764187
  69.7969743  70.6117878  53.9606735  68.5775675  69.4232144  53.4434882
  69.7654568  68.9916549  54.6964109  74.0775897  70.6423292  52.8547331
  74.6868064  70.6977205  53.9252749  74.7015072  70.4986649  51.6758690
  74.1869966  70.2355858  50.8475168  76.1479270  70.6533998  51.5713555
  76.4303886  71.6168761  51.9956526  76.8901256  69.5555186  52.3205811
  76.5661626  69.5355316  53.3611333  76.5856623  68.2357872  51.6772366
  76.9097876  68.2548527  50.6367180  77.1129851  67.4424745  52.2070336
  75.5125702  68.0492991  51.7196156  78.3007044  69.7884232  52.2660768
  78.7587392  69.0911316  52.7410387  76.5355647  70.6672653  50.0989746
  75.6818084  70.6435701  49.1957582  77.8512634  70.7364156  49.8591455
  78.5344555  70.6768064  50.6006269  78.3263674  70.9298921  48.4969986
  77.5513433  70.6191366  47.7963790  78.6954798  72.4003845  48.2041179
  79.0819891  72.4597788  47.1866784  77.5055504  73.3173292  48.3440229
  77.1187500  73.2588226  49.3614029  77.8086797  74.3421154  48.1294888
  76.7283234  73.0144438  47.6423968  79.7173500  72.8004638  49.1274005
  79.9600199  73.7140695  48.9599602  79.5493511  70.0742754  48.2184132
  80.2014548  69.5475094  49.1292284  79.8918716  70.0157548  46.9235869
  79.3086768  70.4672160  46.2335391  81.0347268  69.2361340  46.4600662
  80.9107316  68.1935413  46.7528540  81.1560431  69.3051010  44.9339660
  81.9062579  68.5752856  44.6295868  80.1891850  69.0284244  44.5135668
  81.5581883  70.6975146  44.4206322  80.8309915  71.4154721  44.7998719
  82.5430705  70.9304268  44.8254297  81.6029535  70.7756222  42.9042466
  82.2592453  69.9906262  42.5285320  80.5969696  70.6260048  42.5121874
  82.1295674  72.1416895  42.4510328  83.1107359  72.2875340  42.9028495
  82.2298226  72.1172258  41.3659293  81.2281875  73.2689503  42.8427618
  81.1354988  73.2920606  43.8482340  81.6212735  74.1418084  42.5207336
  80.3190874  73.1342217  42.4238533  82.3157647  69.6684250  47.1243729
  83.1859444  68.8321136  47.4002074  82.4413730  70.9698354  47.4002215
  81.6968214  71.5954293  47.1275043  83.6534679  71.5468282  47.9867769
  84.5363567  71.2303094  47.4314188  83.5553563  73.0918373  47.9220406
  82.8344313  73.4537829  48.6550904  84.5431380  73.4872454  48.1587676
  83.1288521  73.6188135  46.4892265  81.9382534  73.8415031  46.1844085
  84.1123312  73.8450375  45.6493184  83.9103152  74.1822025  44.7189372
  85.0663176  73.6808451  45.9375049  83.9116829  71.0455770  49.4117815
  85.0665784  71.0538900  49.8621917  82.8632722  70.6343519  50.1410755
  81.9447728  70.6314392  49.7210164  82.9914673  70.2059413  51.5646413
  83.7395277  70.8203209  52.0656828  81.6603461  70.3587839  52.3015813
  80.9799238  69.6112112  51.8938316  81.8488661  70.1426306  53.3531696
  81.0333834  71.7386942  52.1724019  80.6165949  71.7979623  51.1669789
  80.2255206  71.7793153  52.9030228  81.9791320  72.9066251  52.3979922
  82.4489351  73.0708723  53.5412817  82.2435076  73.6450594  51.4305345
  83.4518205  68.7441430  51.6436247  83.9386146  68.3547774  52.7155823
  83.3795426  67.9877238  50.5473583  83.0415967  68.3958365  49.6875118
  83.7088323  66.5336251  50.5580479  83.1601016  65.9899630  51.3270898
  83.4463214  65.8844327  49.1834727  83.8670124  66.5296522  48.4122326
  84.0758320  64.5003415  49.0862165  83.6552705  63.8543753  49.8569022
  83.8695920  64.0750214  48.1040411  85.1536238  64.5800436  49.2280320
  81.9448464  65.8400607  48.8787760  81.5161634  65.0695713  49.5196175
  81.5380404  66.8119669  49.1580730  81.6001093  65.5455850  47.4387491
  82.0062138  64.5735605  47.1588432  80.5167727  65.5343283  47.3189395
  82.0280931  66.3159554  46.7972983  85.1613104  66.3594989  50.9906384
  85.9684897  67.2271968  50.6259510  85.4711711  65.3166562  51.7736233
  84.7163075  64.7430703  52.1218755  86.8555285  64.9945440  52.2025048
  87.5436191  65.1935978  51.3809160  87.2765476  65.8362199  53.4070851
  88.3613015  65.9412388  53.4265549  86.8174375  66.8232035  53.3506818
  86.8769469  65.2508772  54.7340023  85.5523581  65.2618512  55.1338034
  84.8008384  65.6970061  54.4750482  85.1763101  64.7273524  56.3572935
  84.1279850  64.7331695  56.6557585  86.1246132  64.1910397  57.1922090
  85.8321878  63.7826098  58.1595623  87.4423707  64.1693325  56.8079685
  88.1927677  63.7396175  57.4715569  87.8200491  64.6916417  55.5803850
  88.8660074  64.6641099  55.2749129  86.9357172  63.5025808  52.5203752
  85.8920623  62.9599838  52.9372419  88.0940068  62.8575863  52.3177962
  88.9012188  63.3618047  51.9797548  88.2144760  61.4311083  52.5270610
  87.2316961  60.9688370  52.4346050  89.1526425  60.7929338  51.5031426
  88.7037601  60.8936936  50.5149871  90.1024534  61.3271811  51.5263626
  89.3755084  59.4209333  51.7829844  89.9670481  59.0517572  51.1231438
  88.7161059  61.1109982  53.9253996  89.7013242  61.6954264  54.3813652
  88.0259393  60.1756831  54.5908210  87.1179665  59.9007658  54.2442591
  88.5036344  59.5738914  55.8231728  89.4050693  60.0864565  56.1590170
  87.4411814  59.6828272  56.9205163  86.5123922  59.8805617  56.3853987
  87.3637628  58.7283877  57.4412386  87.6904834  60.7945508  57.9326507
  88.0842839  61.6644017  57.4069308  86.3946413  61.1792019  58.6578333
  86.0004637  60.3099151  59.1842014  86.6008821  61.9744058  59.3742244
  85.6604727  61.5269968  57.9311040  88.7550046  60.4481537  58.9787614
  89.7028016  60.2454509  58.4800713  88.8777959  61.2865999  59.6643499
  88.4428042  59.5656291  59.5371344  88.8889379  58.1209636  55.6284213
  89.2949496  57.4601826  56.6018605  88.7436232  57.5857060  54.4034217
  88.3959335  58.1511784  53.6422042  89.0481231  56.1869405  54.1407642
  89.6105051  55.7761734  54.9792724  87.7864346  55.3718327  53.9591726
  88.0460452  54.3206616  53.8337103  87.1489595  55.4859651  54.8359277
  87.0985494  55.8246926  52.8168956  86.2975915  55.3085238  52.7001229
  89.9064084  56.0357235  52.8989185  89.8246204  56.8444115  51.9728028
  90.7304667  54.9829567  52.8863110  90.8245728  54.3483927  53.6664213
  91.5747907  54.7721556  51.7195973  92.1340698  55.6785961  51.4879257
  92.5921502  53.6178938  52.0148914  93.1704117  53.8558221  52.9076977
  92.0537943  52.6828680  52.1698096  93.5346643  53.4706023  50.8227562
  92.9417432  53.1263802  49.9753740  93.9433352  54.4568751  50.6028557
  94.6655692  52.5017166  51.0719942  95.3027839  52.8249244  51.8951546
  94.3003163  51.4940017  51.2699851  95.4665218  52.4790396  49.8359316
  95.1997207  51.8082857  49.1295282  96.4731281  53.2849909  49.5865101
  97.1281446  53.1600513  48.4204618  96.8412981  52.4549408  47.7566559
  97.9045230  53.7717856  48.2128144  96.8436986  54.2263746  50.4193536
  96.3471768  54.3501590  51.2901254  97.6241097  54.8237779  50.1866163
  90.7047806  54.4550191  50.5042719  90.9931104  54.8890774  49.3773543
  89.6195101  53.7045695  50.7173410  89.4165093  53.3116406  51.6253591
  88.7661320  53.3251188  49.5906232  89.3971023  52.9645509  48.7782401
  87.7593876  52.2200170  49.9593343  88.3388896  51.3959313  50.3754585
  87.1106711  52.6336170  50.7314754  86.9063114  51.7075407  48.7979309
  86.3043011  52.5391717  48.4317692  87.5943430  51.3858434  48.0161236
  85.9936171  50.5495465  49.1783882  85.2360729  50.0508149  48.3082419
  86.0393393  50.1241675  50.3524223  88.0706695  54.5570709  49.0006639
  87.8464424  54.6472277  47.7775683  87.6984041  55.5137272  49.8473500
  87.7721300  55.3985668  50.8480507  87.1668882  56.7700748  49.3335966
  88.0378117  57.3956872  49.1381470  86.6830978  56.5167307  48.3902712
  86.1798344  57.5490465  50.2060580  85.5778543  57.0367272  51.1274162
  85.9428094  58.8031623  49.8665780  86.3414212  59.5105953  48.7229229
  86.3430033  58.8151560  47.8836006  87.3539260  59.8768976  48.8924978
  85.3446394  60.6331606  48.5448717  84.4964004  60.3067959  47.9431444
  85.8136544  61.4964136  48.0727270  84.9194395  60.9589767  49.9821173
  83.9251642  61.3906252  50.0969875  85.6547307  61.6110206  50.4535887
  84.9617165  59.5813055  50.6227090  85.3695361  59.7051261  51.6259288
  83.6150907  58.9811805  50.7100804  82.7801660  59.5059876  51.4565335
  83.3165794  58.0710343  49.8099860  84.0480531  57.8086084  49.1648673
  82.0170294  57.4457810  49.6665102  81.3158050  57.8804528  50.3788611
  81.4865507  57.6593950  48.2811455  81.5354070  58.7290323  48.0772134
  82.1477539  57.1288458  47.5959973  80.1134057  57.1899551  48.0948453
  79.9881818  56.7939351  47.0870814  79.8837177  56.4110238  48.8219021
  79.0129965  58.5376181  48.3260402  79.0478558  59.4625475  46.8026779
  78.7224019  58.8237526  45.9816299  78.3795154  60.3199255  46.8822057
  80.0629997  59.8103613  46.6113412  82.1907400  55.9710867  49.9643443
  83.1935641  55.3487420  49.6001440  81.2365051  55.4195168  50.6717236
  80.3856568  55.8937147  50.9387308  81.4239183  54.0488452  51.1040067
  81.7373747  53.4452866  50.2522078  82.4530688  53.8799187  52.2300116
  82.1481306  54.4712791  53.0933804  82.5134819  52.8290515  52.5130817
  83.4295314  54.2192846  51.8843951  80.0896905  53.5245942  51.5977294
  79.1643271  54.2924394  51.9889752  79.9788011  52.2073441  51.4667686
  80.7422001  51.7051524  51.0365071  78.8469178  51.4499328  51.9512189
  77.9241003  52.0290020  51.9856550  78.6066322  50.1980753  51.1088408
  79.5192941  49.6032386  51.0725422  77.8062115  49.6076149  51.5546922
  78.3227292  50.4890310  50.0974838  79.1897154  51.0074564  53.3531299
  80.1941220  50.3021484  53.5463859  78.3516469  51.3559459  54.3141040
  77.6587081  52.0723043  54.1505014  78.4308437  50.7599422  55.6460580
  79.1470772  49.9384669  55.6291209  78.8838839  51.7878290  56.7056171
  78.1887285  52.6268093  56.7367659  78.8727978  51.2716359  57.6655764
  80.2809008  52.3004091  56.4245897  81.3794069  51.5293190  56.7363995
  81.2330677  50.5626372  57.2182819  82.6251537  51.9588914  56.4517536
  83.4984946  51.3512974  56.6888337  82.7874589  53.2156618  55.8422601
  84.0578635  53.6859228  55.5400802  84.7537338  53.0734718  55.7896157
  81.6974947  54.0003912  55.5303696  81.8185137  54.9803538  55.0687116
  80.4641207  53.5338446  55.8074113  79.5864580  54.1256449  55.5474486
  77.0686301  50.1966487  55.9839878  76.0397567  50.6673365  55.4677771
  77.0815626  49.1581489  56.8155706  77.9767693  48.8214342  57.1401127
  75.8742031  48.4460641  57.2444253  74.9857113  48.8188109  56.7347772
  76.0039059  46.9355546  56.9668930  76.3630023  46.8032276  55.9462860
  76.9902916  46.2522484  57.9556873  76.6315946  46.3837629  58.9765405
  77.0549217  45.1882383  57.7280783  77.9768301  46.7050465  57.8566046
  74.6552165  46.3173928  57.0587829  73.9947307  46.7739140  56.3215930
  74.7313218  45.2475459  56.8645273  74.2492050  46.4767838  58.0577074
  75.6302461  48.7043207  58.7273628  76.5825943  48.7317153  59.5142093
  74.3581673  48.8932191  59.0936440  73.6763394  49.0184658  58.3591214
  73.9202972  49.0320198  60.4690778  74.7098698  49.4524060  61.0919339
  72.7189058  49.9902409  60.4858979  72.5573305  50.3342530  61.5074890
  72.9709156  50.8406131  59.8522906  71.4349360  49.3699225  59.9753024
  71.3303369  48.1703802  59.7845978  70.4312993  50.2168348  59.7691373
  69.5451956  49.8717496  59.4287900  70.5594580  51.2015070  59.9537904
  73.6119455  47.6901070  61.1307842  73.8149478  46.6335907  60.5340821
  73.2067921  47.6725807  62.3979707  73.3687672  48.6692384  63.4057620
  72.4404150  49.2344770  63.4880280  74.1756047  49.3382861  63.1066176
  73.6945112  47.9010336  64.6666369  73.4084165  48.4692588  65.5517182
  74.7580685  47.6671023  64.7137895  72.8587384  46.6231678  64.5273751
  71.8145783  46.7228711  64.8238340  73.3128808  45.7950168  65.0714525
  72.9492522  46.3722138  63.0309526  73.8288005  45.7512223  62.8610625
  71.7185371  45.6605085  62.5010084  71.6936485  44.4229610  62.5026235
  71.6398667  45.8416047  61.2986324  72.1705886  46.4454872  60.6872736
  70.4974156  45.1292432  60.7437479  70.4344546  44.1258835  61.1649419
  69.2040307  45.8912277  61.0913601  69.2396670  46.8993084  60.6783195
  68.3314785  45.3689804  60.6989185  68.9863733  46.0403250  62.5717290
  69.5402062  47.0981962  63.2831247  69.1457512  46.9370285  64.5406298
  69.4791765  47.6758732  65.2693513  68.3783687  45.8479845  64.6812969
  67.9447186  45.4959668  65.5228021  68.2753264  45.2619636  63.4278872
  67.6975447  44.3465764  63.3000755  70.6611052  44.8939053  59.2231293
  69.6973492  44.5848827  58.5150266  71.1167417  45.1966432  59.4724728
  71.8373518  45.7211947  59.9475161  71.4371360  44.5887410  58.2002823
  72.4889749  44.3048001  58.2336225  70.8224851  43.6935215  58.1060183
  71.1993953  45.4935235  56.9708390  71.3429162  45.0438376  55.8366828
  70.8484120  46.7365912  57.1880820  70.6484903  47.0352342  58.1319797
  70.6216880  47.6678105  56.1158955  70.2971263  47.1459364  55.2156698
  69.5421449  48.6286130  56.5297500  68.7512921  48.0244268  56.9742836
  69.9344006  49.3190730  57.2764095  68.9961658  49.3929456  55.3925177
  69.7092104  50.4699054  54.8430679  70.6879765  50.7236129  55.2501906
  69.1782000  51.2133902  53.7865840  69.7338246  52.0533902  53.3697110
  67.9385033  50.8720968  53.2620605  67.4267956  51.5981693  52.2103946
  68.0077503  52.3078062  51.9266575  67.2124456  49.7884471  53.8189199
  66.2390143  49.5151752  53.4116675  67.7488097  49.0687769  54.8945664
  67.1818850  48.2514019  55.3402060  71.9143409  48.3426173  55.7132963
  72.7805117  48.5774482  56.5394571  72.1159980  48.4365127  54.4136910
  71.3827721  48.1429194  53.7841815  73.3674699  48.9173962  53.8407424
  74.1801284  48.9222667  54.5671456  73.8105870  48.1078290  52.6145555
  72.9571576  47.9310220  51.9599588  74.8755201  48.9014619  51.8592553
  75.7295205  49.0782708  52.5131076  75.1987512  48.3362639  50.9850852
  74.4591007  49.8568432  51.5399700  74.2932332  46.7110843  52.9875203
  73.4865306  46.1662398  53.4779054  74.5956902  46.1778984  52.0862255
  75.1431420  46.7887883  53.6655454  73.1569700  50.3703655  53.4615168
  72.2808304  50.6764485  52.6295489  73.9454129  51.2596165  54.0878806
  74.5769125  50.9019096  54.7902718  73.9301945  52.7026416  53.8380390
  73.0296271  53.0052289  53.3036998  73.9456547  53.3928850  55.1957084
  74.6703939  52.9294720  55.8651118  74.2039178  54.4419949  55.0515952
  72.6369732  53.3699836  55.9035362  71.4486329  53.6892121  55.2764680
  70.4624454  53.6251853  56.1550890  69.4334677  53.8276508  55.8579163
  70.9780202  53.2967641  57.3272187  70.4631586  53.2076940  58.1915589
  72.3291513  53.0935896  57.1908003  72.9207088  52.7693607  58.0469759
  75.1258839  53.1862710  52.9918620  76.2806908  52.7466522  53.2038270
  74.8565714  54.1565639  52.0951477  73.9061505  54.4595549  51.9370467
  75.9270475  54.7681258  51.2905989  76.8248138  54.1559512  51.3763726
  75.5542297  54.8828377  49.8154877  74.5477460  55.2952681  49.7448407
  76.2586678  55.5604177  49.3330434  75.5971611  53.5274369  49.1211364
  76.5527013  53.0576355  49.3542250  74.7903669  52.9559054  49.5799764
  75.4061514  53.5575276  47.6435655  74.2455476  53.8283333  47.2455212
  76.4331033  53.3517040  46.8968236  76.2500163  56.1413384  51.8411732
  75.4561198  57.0924187  51.7137232  77.4286759  56.2626260  52.4141313
  78.1396744  55.5667678  52.2398848  77.7502272  57.3725372  53.3075108
  76.8729826  57.9889426  53.5039424  78.3061186  56.8390399  54.6319670
  79.1413596  56.1718879  54.4189387  78.7598652  57.9263637  55.4771882
  77.9250103  58.5937344  55.6910441  79.1500639  57.5225412  56.4114115
  79.5460933  58.4813365  54.9653779  77.2339141  56.0052486  55.3520050
  77.0999734  55.0725065  54.8041429  77.5888560  55.7866964  56.3591548
  75.8958806  56.7465440  55.4322065  75.5400535  56.9650447  54.4253578
  75.1651529  56.1236102  55.9480455  76.0289369  57.6792363  55.9803680
  78.7834654  58.2536635  52.6342491  79.9451854  57.8358523  52.4679052
  78.3952813  59.4988783  52.3123683  77.4150638  59.7361731  52.3668128
  79.3356552  60.5299890  51.8678531  80.2238391  60.0641096  51.4410218
  78.6905272  61.4068028  50.8081223  78.5181228  60.7327675  49.9690440
  77.7372236  61.8055238  51.1550140  79.5890837  62.5552936  50.3609206
  79.9808646  63.1126268  51.2117956  80.7396835  61.8948139  49.6140990
  80.3487018  61.3376344  48.7627569  81.4308004  62.6599346  49.2604770
  81.2644931  61.2133276  50.2836150  78.9396128  63.6367524  49.5382522
  78.1340647  64.0957076  50.1114465  79.6805969  64.3943324  49.2830730
  78.5334509  63.2040401  48.6239811  79.7683524  61.4010548  53.0428217
  78.9543653  62.1614116  53.5608280  81.0629284  61.3419915  53.4084686
  81.6523372  60.6280231  53.0048034  81.6437216  62.2362299  54.4107190
  80.9588903  62.3494303  55.2511302  82.9545961  61.6281482  54.9251144
  83.4444936  62.3685803  55.5574601  82.7309451  60.3677324  55.7115808
  82.2414678  59.6266144  55.0797139  83.6894942  59.9770606  56.0531334
  82.0993795  60.5837807  56.5732934  83.8188608  61.2879851  53.8442427
  84.6306965  60.9102150  54.1903827  81.9110693  63.6614989  53.9061126
  82.3849459  63.8594660  52.7890603  81.6411331  64.6562566  54.7621807
  81.1467470  64.4202935  55.6107107  81.9634414  66.0651930  54.5142581
  82.8535555  66.1823963  53.8961486  80.7876511  66.7906021  53.8278961
  81.1509181  67.7315860  53.4147549  80.1954523  65.9380746  52.7076409
  79.8315275  64.9970511  53.1201144  79.3686095  66.4736190  52.2411395
  80.9629658  65.7342335  51.9609994  79.7197853  67.1581415  54.8624313
  80.1540986  67.8151221  55.6159898  78.8943801  67.6697060  54.3673477
  79.3498062  66.2515419  55.3412772  82.3393224  66.7863026  55.8180370
  82.1881684  66.2491956  56.9229146  82.8312979  68.0422519  55.6647768
  82.8076557  68.4602892  54.7456548  83.3178623  68.8492415  56.7798660
  83.7174947  68.1834210  57.5447687  84.4192841  69.8337611  56.3623480
  84.0786727  70.3020262  55.4388704  84.4494605  70.5789102  57.1572959
  85.7748616  69.2729229  56.1602187  86.1748497  68.1356379  56.8406380
  85.4833750  67.6508883  57.5298260  87.4333712  67.6174081  56.6522811
  87.7568055  66.7326220  57.2005927  88.2964474  68.2316070  55.7533589
  89.5555250  67.7252030  55.5407565  89.7385251  66.9424116  56.0654929
  87.9109893  69.3529053  55.0613507  88.5875524  69.8305151  54.3526534
  86.6584852  69.8716661  55.2700671  86.3430278  70.7667534  54.7339650
  82.2749791  69.7648544  57.3770943  82.3582092  70.1099321  58.5495665
  81.3994967  70.2932812  56.5355477  81.4139232  70.0079238  55.5668051
  80.4609169  71.3284827  56.9349747  80.2618832  71.2305347  58.0021631
  80.9965127  72.7385395  56.6641130  81.9615122  72.8259724  57.1633430
  81.1347603  72.8372855  55.5874344  80.0583154  73.8500542  57.1642879
  79.1504372  73.8162447  56.5620296  79.8120241  73.6356890  58.2042352
  80.6793941  75.2325979  57.0660839  81.6443476  75.2244875  57.5729350
  80.8237682  75.4824519  56.0149756  79.7686964  76.2780100  57.7188473
  78.8271545  76.2896135  57.1697891  79.5853907  75.9654146  58.7468464
  80.3650226  77.6491868  57.7140140  80.5345570  77.9392069  56.7615193
  79.7260172  78.2957503  58.1541592  81.2372745  77.6387464  58.2230982
  79.1773349  71.0378397  56.1869281  79.1598294  71.0590185  54.9510963
  78.1147690  70.7606809  56.9119975  78.2118697  70.5783592  57.9006479
  76.7926895  70.6489460  56.3169829  76.8260775  70.8954432  55.2557461
  76.2293426  69.2296378  56.4733970  76.1812540  68.9718061  57.5313716
  75.2286698  69.1859298  56.0434623  76.8775068  68.5219039  55.9565845
  75.9011851  71.6832013  56.9793453  75.8812006  71.7941820  58.2068476
  75.1714733  72.4323460  56.1698547  75.2668198  72.3083761  55.1720372
  74.2555489  73.4513607  56.6528923  74.5506498  73.7843167  57.6479576
  74.2846606  74.6482209  55.7104480  74.2030726  74.3200581  54.6742280
  73.4688474  75.3339619  55.9391577  75.7989775  75.6222347  55.8087103
  75.4489597  76.5166061  54.8886637  72.8284653  72.9072043  56.7540866
  72.4543484  71.9408619  56.0860111  72.0397825  73.5241111  57.6389932
  72.4672292  74.1706751  58.2865606  70.6035156  73.2557656  57.7702378
  70.1753250  73.9488653  58.4943681  69.8644774  73.4253999  56.4303230
  70.0389375  72.5672270  55.7813222  68.8043570  73.4842661  56.6768582
  70.2645973  74.7025373  55.6741245  71.3515355  74.7873464  55.0937775
  69.3632538  75.6717542  55.6282050  69.5756411  76.5321821  55.1437927
  68.4676274  75.5460136  56.0778085  70.3248407  71.8593741  58.3382459
  69.3491599  71.2181268  57.9380174  71.1360152  71.4048490  59.2995756
  71.9052902  71.9758473  59.6193822  70.9756573  70.0710806  59.8772494
  70.0287669  69.6400194  59.5521588  72.1177416  69.1456699  59.4254211
  72.9837583  69.6987807  59.7889905  72.0104696  68.2233653  59.9963387
  72.3131949  68.8078672  57.9391979  72.3875642  69.7328363  57.3673568
  73.5845201  67.9941589  57.7539280  73.5107009  67.0687596  58.3251423
  73.7153627  67.7590739  56.6976534  74.4400113  68.5705911  58.1060090
  71.1066341  68.0722588  57.3385911  70.2185884  68.6982702  57.4256769
  71.2977202  67.8578738  56.2871034  70.9458557  67.1376927  57.8760252
  70.9278539  70.1086250  61.3993263  71.9596739  70.2333312  62.0633857
  69.7367212  69.9530626  61.9544049  68.8801836  69.9685070  61.4194243
  69.6458741  69.7979964  63.3928493  70.2772880  70.5395718  63.8822178
  68.2148919  69.9901201  63.8665237  67.6228490  69.1700268  63.4602833
  68.1574726  69.9746581  64.9549005  67.6436239  71.2785464  63.3772391
  66.8249587  71.2928725  62.4656559  68.1140824  72.3878679  63.9593770
  67.7667215  73.2916051  63.6718020  68.8143676  72.3163125  64.6836569
  70.1527731  68.4226349  63.8007220  70.4048035  67.5406115  62.9653266
  70.3186525  68.2637414  65.0992419  70.1169005  69.0323673  65.7226275
  70.8328441  67.0378444  65.6668805  70.9585005  66.2940023  64.8801095
  72.1727603  67.2728993  66.3283107  72.0739707  68.3071071  66.6580896
  72.2480841  66.6203447  67.1981376  73.4350159  67.1287479  65.4711210
  73.3569546  66.2038216  64.8997029  73.6055333  68.2842039  64.5304493
  73.6841367  69.2094980  65.1011955  74.5117515  68.1431612  63.9414024
  72.7448231  68.3409625  63.8640734  74.5993050  66.9520702  66.4683375
  74.4279347  66.0620169  67.0737602  75.5348716  66.8431074  65.9197542
  74.6586858  67.8261106  67.1168946  69.8252236  66.4773854  66.6687152
  69.1968979  67.2169241  67.4340683  69.6307774  65.1673363  66.6305843
  70.1125546  64.6071348  65.9419883  68.7088279  64.5059926  67.5306507
  68.2514050  65.2378892  68.1963765  67.6075487  63.7483583  66.7673766
  68.0184192  63.2790296  65.8734995  67.0547198  62.6687980  67.7020667
  66.6432282  63.1374272  68.5960254  66.2698704  62.1116800  67.1904696
  67.8569756  61.9877212  67.9860021  66.4996287  64.6996772  66.3040379
  66.2151703  65.3100572  67.1611379  66.9221816  65.3381332  65.5282013
  65.2569911  63.9781611  65.7536095  64.8335849  63.3398248  66.5290795
  64.5152883  64.7149266  65.4451410  65.5405970  63.3678987  64.8961438
  69.5214271  63.5596089  68.3873902  70.1352293  62.6223798  67.8648901
  69.5274316  63.7995202  69.6956978  69.2037361  64.6845500  70.0590745
  69.9952403  62.8053004  70.6318175  69.1985580  62.6027435  71.3476158
  70.2280537  61.8942063  70.0806326  71.2157388  63.2503816  71.3746378
  71.3907833  64.4742052  71.6510621  72.0630587  62.3185916  71.7307422
  71.8804548  61.3471612  71.5231895  73.2659335  62.6488038  72.4577981
  73.5928565  63.6506427  72.1793393  73.0261198  62.6126031  74.0052469
  72.2294545  63.3074431  74.2709930  72.7455144  61.6047378  74.3111363
  74.3138417  63.0196480  74.7161257  75.0819138  62.2949767  74.4459080
  74.5974179  64.0044108  74.3447379  74.1756544  63.0694780  76.2198502
  73.4508531  63.8195862  76.5362358  73.8989993  62.1000913  76.6343994
  75.5017320  63.4448566  76.7412849  76.2459551  63.5529115  76.0670776
  75.7647723  63.6747984  78.0072341  77.0190522  64.0075404  78.3573322
  77.7363461  64.0758832  77.6495761  77.2385879  64.1877227  79.3265784
  74.8440670  63.6234526  78.9391587  73.8908349  63.3998980  78.6912234
  75.0922945  63.8076923  79.9006874  74.2386335  61.5873291  71.9728402
  73.8828067  60.4129360  71.9193877  75.4715237  61.9516696  71.7063185
  76.1699051  63.1393436  72.0721394  76.4925119  63.0466232  73.1091678
  75.4888964  63.9852253  71.9782763  77.3313768  63.2247696  71.1082453
  78.1519145  63.7979327  71.5398714  77.0223431  63.6842342  70.1693674
  77.7240072  61.7567411  70.8963975  78.3622760  61.3349020  71.6727761
  78.1922503  61.6110886  69.9229329  76.3625997  61.0812736  70.9232543
  75.9871466  61.0726866  69.8999950  76.4477125  59.6575067  71.4421198
  76.3541215  59.4087666  72.6439302  76.6568575  58.7368848  70.4979081
  76.6186577  59.0233574  69.5301407  76.8885373  57.3388400  70.7909030
  77.2547664  57.2476652  71.8134795  75.6137436  56.4977946  70.6500606
  74.9187086  56.7850089  71.4390686  75.1656051  56.7056205  69.6784226
  75.9025698  55.0911435  70.7539889  75.0889929  54.5898223  70.6625036
  77.9695950  56.7676311  69.8775773  78.2304080  57.2586869  68.7551448
  78.5536490  55.6486208  70.3536054  78.2314304  55.2464165  71.2222286
  79.6572004  54.9976725  69.6578679  79.7206092  55.3911019  68.6433277
  80.9706835  55.2883299  70.3762511  81.7906817  55.2030213  69.6632114
  80.9572772  56.6741547  70.9609818  80.1377718  56.7600898  71.6745123
  81.9025435  56.8636327  71.4695767  80.8217853  57.4043953  70.1631779
  81.0715211  54.3224886  71.4295713  81.8872128  54.4632860  71.9158054
  79.5364900  53.4815491  69.5469810  80.5424270  52.8247610  69.1927788
  78.3736399  52.9074588  69.8684606  77.7157762  53.3655703  70.4828290
  78.0828416  51.5474240  69.4360827  78.8423178  50.8839916  69.8497886
  76.6972682  51.0513427  69.8880073  76.6777434  51.1275733  70.9751627
  75.9657471  51.7385663  69.4629182  76.3539607  49.6196606  69.4712001
  76.3797759  49.5735777  68.3824803  77.1304208  48.9731969  69.8802153
  74.9915103  49.1522464  69.9666737  74.5984542  47.9923367  69.6842535
  74.3100752  49.9442215  70.6519530  78.2651285  51.4727809  67.9231641
  77.9359136  52.4213375  67.1982614  78.8230637  50.3610666  67.4494777
  79.3376477  49.7418233  68.0592648  78.7519802  50.0323673  66.0307917
  79.4103148  49.1924337  65.8089667  77.3070219  49.6412064  65.6492295
  76.8182755  49.1310018  66.4792401  76.7544270  50.5484680  65.4050671
  77.1905940  48.7346042  64.4598082  77.5356879  47.3932915  64.4868544
  77.3455693  46.8814397  63.2808227  77.5723008  45.8324499  63.0902648
  76.8778072  47.8297300  62.4805171  76.6300096  47.7242670  61.5070831
  76.7816194  48.9974050  63.1952590  76.4239105  49.9055276  62.7100180
  79.2225050  51.1901034  65.1485953  78.7729770  51.3208255  63.9973671
  80.0847348  52.0720197  65.6415024  80.4433787  52.0274302  66.5846279
  80.5000108  53.1796860  64.7984543  79.6218568  53.7193075  64.4438370
  81.3874695  54.1486505  65.5737833  81.0548276  54.1655655  66.6116477
  82.4147701  53.7871989  65.5278905  81.3229183  55.4673935  65.0323749
  81.8908178  56.0504399  65.5414396  81.2468432  52.6615107  63.5681760
  82.1599727  51.8347416  63.6582735  80.8785154  53.1783323  62.4135280
  80.1340642  53.8574385  62.3449238  81.5307470  52.7372021  61.1804668
  81.5280157  51.6491076  61.1161086  80.7704990  53.2976043  59.9847175
  80.7083967  54.3825335  60.0693997  81.2577718  53.0342612  59.0459333
  79.3726346  52.7971385  59.8936662  78.9131141  51.4983528  60.1581006
  79.6426741  50.7562647  60.4823648  77.5557358  51.4454573  59.9352055
  76.9731835  50.6311587  60.0680594  77.1164708  52.6853916  59.5222212
  75.8453651  53.1100567  59.1941313  75.0308616  52.3901090  59.2738690
  75.6826118  54.4126463  58.7872792  74.6951829  54.7722469  58.4978462
  76.7501829  55.2805748  58.7371869  76.6142680  56.3132820  58.4160290
  78.0375008  54.8683659  59.0947388  78.8491630  55.5931077  59.0310632
  78.2288000  53.5508536  59.4929046  82.9888694  53.1753822  61.1125983
  83.8373713  52.4541671  60.5782620  83.2892075  54.3848777  61.6223126
  82.5122278  54.9502885  61.9332992  84.6348120  54.9321870  61.7445825
  85.3023100  54.3951226  61.0707075  84.6760946  56.4200802  61.3904745
  84.0962128  56.9790648  62.1248944  85.7077662  56.7717655  61.3989074
  84.1295397  56.7602673  60.0800885  84.8530642  56.4821289  58.9470521
  85.8298876  56.0038808  59.0191260  84.3406560  56.8091353  57.7222539
  84.9022181  56.5801419  56.8165438  83.0999573  57.4353873  57.6326763
  82.7058779  57.7254355  56.6586777  82.3626572  57.6911901  58.7866735
  81.3740132  58.1460951  58.7254814  82.8790349  57.3730048  59.9770126
  82.3225349  57.5913350  60.8884618  85.1367551  54.7603019  63.1721660
  84.8120641  55.5987937  64.0398481  85.9777021  53.7584030  63.4579629
  86.5873294  52.7798435  62.6083460  87.2944653  53.2853761  61.9507018
  85.8081935  52.3082989  62.0094371  87.2619544  51.8053908  63.5469711
  88.0925923  51.3023113  63.0519452  86.5517480  51.0622023  63.9094338
  87.7513997  52.6992522  64.6927848  88.6913800  53.2116844  64.4879696
  87.8342873  52.1503987  65.6308622  86.6200681  53.7109510  64.7820049
  85.8913387  53.3173596  65.4906216  87.1018862  55.0683925  65.2551960
  87.4609976  55.9311838  64.4286016  87.0836276  55.2965722  66.5726506
  86.7241153  54.5954742  67.2045619  87.5684019  56.5308699  67.1283878
  87.9602255  56.3061024  68.1203823  88.3796079  56.8765271  66.4876341
  86.5328586  57.6260777  67.2450281  86.8069843  58.6377022  67.9069955
  85.3491180  57.4659601  66.6347013  85.1132361  56.5763398  66.2187271
  84.3895212  58.5617844  66.5173806  84.7286037  59.3912771  67.1379160
  84.2342728  59.0602532  65.0747373  84.2085562  58.1836685  64.4274066
  83.2688858  59.5651694  65.0402763  85.3123630  60.0039147  64.6005426
  86.5489543  59.5195086  64.1766692  86.7387681  58.4465432  64.2052250
  87.5294817  60.3834788  63.7235649  88.4959187  60.0081041  63.3871199
  87.2654780  61.7551783  63.6979388  88.2174647  62.6549994  63.2596041
  89.0368498  62.2330655  62.9909417  86.0377039  62.2411473  64.1172498
  85.8295593  63.3109418  64.0994746  85.0814155  61.3646295  64.5567884
  84.1100437  61.7363304  64.8829409  83.0260964  58.1259674  67.0331930
  82.7475427  56.9298057  67.2419560  82.1818599  59.1299735  67.2513710
  82.4562836  60.0727679  67.0148764  80.8674025  58.9198805  67.8166192
  80.6323286  57.8567627  67.8678057  80.6895328  59.5252043  69.2035837
  80.9125620  60.5914997  69.1665411  79.6610042  59.3809435  69.5343676
  81.3676116  59.0368076  69.9034244  79.8879782  59.5742355  66.8723488
  80.2490214  60.4818691  66.1216190  78.6467371  59.1203908  66.8895409
  78.3514886  58.4170032  67.5514878  77.7034349  59.5463960  65.8710982
  78.1294716  60.3665843  65.2932720  77.3755072  58.3592514  64.8924700
  76.5679338  58.6330510  64.2135310  78.2523288  58.0675603  64.3143695
  76.9280620  57.1555517  65.6163387  77.6647842  56.0494818  65.9753925
  78.7103312  56.0216461  65.6685431  76.8704413  55.1756955  66.6823768
  77.1623036  54.2830167  67.0539147  75.6005978  55.6912981  66.7523872
  74.4575413  55.1665923  67.3050450  74.5190602  54.1879138  67.7809676
  73.3096644  55.9070572  67.2235624  72.3975134  55.5182562  67.6762371
  73.2714395  57.1278839  66.5874845  72.3520403  57.7108281  66.5328894
  74.4175162  57.6549142  65.9914853  74.3512069  58.6239468  65.4968342
  75.6045078  56.9232544  66.0755198  76.4971776  60.1144008  66.5843245
  76.3840931  60.0236469  67.8023638  75.5926125  60.7158339  65.8089013
  75.7521203  60.7950981  64.8147314  74.3915936  61.3179707  66.3644299
  73.8954679  60.5913685  67.0078643  74.6885641  62.5574572  67.1753471
  75.0748932  63.3199035  66.4989407  73.4497217  63.0917659  67.8894561
  73.0630679  62.3299890  68.5664307  73.7139518  63.9828427  68.4588975
  72.6862813  63.3445337  67.1536791  75.6814280  62.2371542  68.1572291
  75.8786561  63.0181691  68.6794523  73.4934430  61.6171885  65.1772024
  73.9141260  62.1534958  64.1512837  72.2387179  61.2678930  65.2539061
  71.8357815  60.8470279  66.0788996  71.4029315  61.4246570  64.0882101
  71.8705299  61.0021292  63.1988726  70.0303929  60.7560056  64.2872401
  69.4900229  61.3031017  65.0597589  69.2173163  60.7546043  63.0064788
  69.7568718  60.2072554  62.2335688  68.2554560  60.2745386  63.1866512
  69.0545957  61.7810128  62.6776791  70.2888325  59.3532466  64.7945076
  70.8329978  59.4019067  65.7377034  69.3389287  58.8416667  64.9496474
  70.8809169  58.8047389  64.0619257  71.2663856  62.9006067  63.7975322
  71.2526322  63.7471636  64.6898064  71.1953263  63.2147707  62.5327059
  71.2779374  62.4868557  61.8374257  71.0245971  64.5778860  62.0811993
  71.0494749  65.2917387  62.9045428  72.1101445  64.9625454  61.0651909
  72.0916409  64.2621049  60.2302413  71.9227625  65.9711665  60.6968547
  73.0875745  64.9277576  61.5463558  69.6439319  64.6613407  61.4591159
  69.0658321  63.6530216  61.0400021  69.1105919  65.8715367  61.3786485
  69.5681135  66.7003859  61.7304757  67.7815688  66.0080762  60.8081410
  67.6019714  65.2008529  60.0980463  66.7094830  65.9432760  61.9064774
  66.8325782  64.9955311  62.4306209  66.8954767  66.7663122  62.5964903
  65.2734585  66.0452892  61.3619630  65.1364323  67.0058342  60.8652961
  65.1284170  65.2403397  60.6414622  64.2198291  65.9101604  62.4655197
  63.5516402  66.8906883  62.8144533  64.0487992  64.7011754  63.0035048
  63.3640159  64.5691823  63.7340876  64.6049014  63.9235532  62.6776899
  67.6583207  67.2988100  60.0384891  67.8565221  68.3744595  60.5977953
  67.3508938  67.1618071  58.7536661  67.4828866  66.2598438  58.3187636
  66.8432480  68.2496656  57.9400934  67.6499796  68.9101602  57.6222399
  66.1394779  67.7121580  56.7035829  65.4873062  66.8858579  56.9864258
  66.8813707  67.3598931  55.9869208  65.1673371  68.9628491  55.8562465
  65.8682423  69.0681375  58.7588466  64.8249681  68.5720748  59.1750748
  66.0731483  70.3876871  58.8456533  66.9288018  70.7846311  58.4845552
  65.1187854  71.2881414  59.5467342  64.7859772  70.8179296  60.4720659
  65.7792891  72.6288001  59.8884726  66.6746360  72.4161664  60.4726302
  66.0629724  73.1055813  58.9502277  64.8603106  73.5703397  60.6840678
  64.0031648  73.8104346  60.0549761  64.5209223  73.0349391  61.5707830
  65.5558235  74.8544867  61.1034772  66.4162585  74.6049143  61.7243348
  65.8929876  75.3824377  60.2114639  64.5971102  75.7510938  61.8958777
  63.7470837  75.9806260  61.2533277  64.2541832  75.1879117  62.7638214
  65.2369548  77.0244085  62.3493120  65.5544041  77.5466179  61.5451833
  64.5642052  77.5745913  62.8639059  66.0243740  76.8119484  62.9450727
  63.8402317  71.4911029  58.7164481  62.7806048  71.6664794  59.3468701
  63.9097079  71.4665093  57.3774656  64.8080249  71.2949440  56.9488734
  62.7486391  71.7937923  56.4876021  62.2910465  72.7364098  56.7879027
  63.2125872  71.8917794  55.0052082  63.7387072  70.9748836  54.7395012
  62.0226559  72.0786355  54.0798449  61.4962683  72.9956364  54.3446580
  62.3703107  72.1446587  53.0488852  61.3462654  71.2298933  54.1809966
  64.1948849  73.0538564  54.8259838  65.0466243  72.8506636  55.4751013
  64.5192386  73.0358795  53.7855171  63.6176247  74.4368918  55.1577816
  63.2934592  74.4557851  56.1982909  64.3828360  75.1974017  55.0022962
  62.7660715  74.6409999  54.5087078  61.5662270  70.8201510  56.6269488
  60.4350562  71.3356086  56.7409007  61.7826027  69.4971296  56.6166580
  62.7354194  69.1810107  56.5057112  60.6955660  68.4662408  56.6923237
  59.7510238  68.9738116  56.8880583  60.5802102  67.7154597  55.3720450
  60.6967328  68.4150001  54.5442976  59.6021649  67.2384361  55.3089897
  61.8624848  66.4564455  55.1603778  60.9374390  67.4853430  57.8491007
  60.0679522  66.6060090  58.0286709  62.0540793  67.5940303  58.5755933
  62.7413456  68.2443960  58.2223386  62.4035097  66.7775513  59.7732103
  63.2275695  67.2943106  60.2651294  61.2327416  66.7168082  60.7278130
  60.4026275  66.1940456  60.2527026  61.5275417  66.1837010  61.6316879
  60.9227576  67.7288208  60.9882734  62.9019970  65.3637997  59.4189325
  63.1422734  64.6033590  60.3802994  63.0779646  65.0045923  58.1386878
  62.8802339  65.6622321  57.3980720  63.4884939  63.6589141  57.7738564
  62.9219255  62.9299849  58.3533058  63.2340507  63.4069102  56.2912014
  63.6205538  64.2490953  55.7172339  63.7525853  62.4958436  55.9925718
  61.8384468  63.2625381  56.0411245  61.6957536  63.1047761  55.1049890
  64.9628282  63.4796153  58.1338138  65.7525855  64.4264789  58.1156870
  65.3195842  62.2612821  58.5448835  64.6427245  61.5126562  58.5838658
  66.6777100  61.9927144  59.0139632  67.0109837  62.8079271  59.6561907
  66.7302534  60.6965449  59.8073066  66.8819991  59.8137663  59.1861991
  67.5420573  60.7753121  60.5304042  65.4850422  60.4586614  60.5889194
  64.2722353  60.2237947  59.9809794  63.3407071  60.0854787  60.9047164
  62.3054203  59.8905961  60.6248935  63.9054238  60.2242466  62.0879085
  63.4356244  60.1579613  62.9795332  65.2467502  60.4758030  61.9199836
  65.8834162  60.6402986  62.7892930  67.6007716  61.9561092  57.8035210
  67.3081972  61.2711142  56.8118587  68.6889819  62.7320952  57.8683444
  68.9285458  63.2355947  58.7104826  69.5189271  62.9273026  56.6873347
  69.0023968  62.5234481  55.8165895  69.8276282  64.4131130  56.4552308
  70.3035038  64.8284773  57.3435524  70.7559659  64.5568156  55.2737928
  70.2805599  64.1420620  54.3849344  70.9749122  65.6118555  55.1093117
  71.6837747  64.0204504  55.4727458  68.5282589  65.1921734  56.1926089
  67.7821531  64.7842791  56.8745541  68.7330366  66.2295459  56.4572295
  68.0054969  65.1279739  54.7791531  67.8000365  64.0908833  54.5139569
  67.0872384  65.7104308  54.7040227  68.7509215  65.5361483  54.0966317
  70.8025309  62.1174094  56.8234425  71.3399662  61.5978746  55.8265073
  71.2955218  61.9768429  58.0364450  70.9204980  62.4426034  58.8504006
  72.4352357  61.1082270  58.2094901  72.1586900  60.0715768  58.0171934
  73.2430131  61.3988181  57.5378117  72.9087988  61.2312354  59.6212181
  72.0678983  61.3007706  60.5210494  74.2324201  61.1677158  59.8172433
  74.8126172  61.0213591  59.0035785  74.8825811  61.3132343  61.1111093
  74.1464650  61.5518279  61.8787716  75.5747114  59.9996271  61.4880185
  76.2836036  59.7238984  60.7072849  76.1114919  60.1730130  62.4207050
  74.7008597  58.8075879  61.7126933  74.5919858  58.1264429  62.8495002
  75.2074001  58.4714196  63.6803769  73.7119604  57.1227572  62.7179843
  73.4655302  56.4604335  63.4395790  73.2089867  57.1375973  61.4542354
  72.2897276  56.3155822  60.8481802  71.8285481  55.5185878  61.4314570
  72.0183718  56.5528495  59.5620417  71.2915575  55.9271947  59.0439713
  72.6388666  57.5770793  58.8669550  72.4202283  57.7341958  57.8107300
  73.5090962  58.3926484  59.4516665  74.0029819  59.1475736  58.8398940
  73.8084973  58.1914401  60.7920841  75.9748643  62.3985397  61.1720646
  76.8238077  62.5245708  60.2857288  75.9980322  63.2054080  62.2509793
  75.2051526  63.2234633  62.8763714  77.1369241  64.1310324  62.5250698
  77.6343940  64.3532299  61.5810088  76.7030207  65.4507158  63.1724945
  76.0027172  65.9366590  62.4931320  76.1944454  65.2085984  64.1056774
  77.8780802  66.3987173  63.4608036  78.5417985  65.9018840  64.1684303
  78.4081406  66.5678176  62.5234973  77.4303031  67.7323875  64.0371095
  76.7660974  68.2212736  63.3244243  76.8940736  67.5535515  64.9690831
  78.6401380  68.6338049  64.3089387  79.2646038  68.1387276  65.0526063
  79.1967006  68.7350857  63.3772309  78.2519794  69.9892101  64.8071342
  77.7366161  69.8956082  65.6706960  79.0834758  70.5391657  64.9691916
  77.6736828  70.4482987  64.1179971  78.0496041  63.2887923  63.4105662
  77.4914780  62.4857691  64.1533576  79.3611002  63.4671758  63.3563158
  79.7045033  64.1546155  62.7008768  80.3437259  62.6414082  64.0823467
  79.8078554  61.9425524  64.7246415  81.2525408  61.8426887  63.1398089
  81.5926540  62.4897727  62.3312889  82.1147380  61.4655627  63.6898017
  80.5992831  60.6494984  62.4912896  79.7594233  60.8041423  61.4035737
  79.5744012  61.8041594  61.0113587  79.1551438  59.7044502  60.8122578
  78.4972835  59.8450386  59.9546125  79.3828697  58.4429026  61.3030629
  78.9074514  57.5784278  60.8396401  80.2135178  58.2727891  62.3823623
  80.3942663  57.2714367  62.7731609  80.8221221  59.3692714  62.9756763
  81.4828666  59.2291709  63.8311811  81.1333655  63.5115005  65.0672150
  81.0770327  64.7381848  64.8926344  81.8281957  62.9102861  66.0467171
  81.7763025  61.9021158  66.0783257  82.6072842  63.6085735  67.1007284
  83.1374156  64.4657408  66.6856091  81.6588701  64.1038885  68.1985935
  82.2780038  64.5577644  68.9723961  80.6253418  65.1037492  67.7292911
  80.0054863  64.6504069  66.9557540  79.9977610  65.4000084  68.5698099
  81.1269756  65.9823406  67.3236542  80.9855134  62.9554980  68.7200520
  80.3798034  63.2271728  69.4135277  83.6795406  62.6585039  67.6682906
  83.2850530  61.7730622  68.4314698  84.9810926  62.8436975  67.3777486
  85.2046328  63.6330678  66.7886614  86.0900259  61.9587099  67.8208353
  86.0258856  61.0031528  67.3003589  87.4173394  62.5936672  67.4994068
  87.5002148  63.5473386  68.0206963  88.2234950  61.9337445  67.8198992
  87.4903016  62.7601159  66.4246647  85.9927200  61.6737676  69.3263653
  85.6235167  62.6101170  70.0637341  86.3452856  60.4507530  69.7790226
  86.6491597  59.7373925  69.1318158  86.2399338  60.1049298  71.1841444
  85.2838277  60.5179746  71.5056319  86.1850046  58.5694640  71.3222047
  86.0176890  58.3172798  72.3693479  85.0557553  57.9837392  70.4697351
  85.2226402  58.2351334  69.4223336  85.0379902  56.8999272  70.5843436
  84.1016939  58.3986483  70.7948780  87.3666849  58.0014595  70.7462554
  87.3360137  57.0456425  70.8303594  87.3812063  60.6661571  72.0312926
  87.4590458  60.4133207  73.2388305  88.2928736  61.4211975  71.4056004
  88.1979073  61.6223302  70.4203967  89.4936766  61.8986384  72.1004005
  89.2553091  62.0873437  73.1471433  90.6239859  60.8645463  72.0339729
  90.8009046  60.6360613  70.9829765  91.5161007  61.3228711  72.4607861
  90.3016602  59.5664213  72.7932671  89.3076407  59.2391286  72.4884628
  91.0363563  58.8165794  72.4999058  90.3353018  59.7448956  74.3013987
  91.3303326  60.0773740  74.5971533  89.6013698  60.4989106  74.5858361
  90.0083227  58.4226710  75.0055244  90.6932995  57.6642492  74.6264419
  90.1767393  58.5624984  76.0733181  88.5984036  57.9792405  74.7774488
  88.4422621  57.8492004  73.7881009  88.4372750  57.1073848  75.2611897
  87.9635256  58.6816785  75.1290307  89.9260044  63.2375455  71.5253654
  89.8782049  63.4272568  70.3130511  90.3739466  64.1490891  72.4065533
  90.3716229  63.9221054  73.3907140  90.7680419  65.4958297  72.0084332
  90.0056289  65.9322211  71.3631518  90.9287274  66.3843884  73.2467391
  91.0775586  67.4075166  72.9015476  90.0020981  66.3252803  73.8176720
  92.1091214  65.9685597  74.1412063  91.9620329  64.9263111  74.4243733
  93.0219005  66.0592006  73.5523765  92.2276257  66.8208523  75.3925320
  92.3256693  67.8665484  75.1009742  91.3271846  66.6947043  75.9936909
  93.4530617  66.4025584  76.2140737  93.3064553  65.3696417  76.5298113
  94.3265603  66.4630034  75.5648851  93.6654538  67.2654874  77.4163999
  92.8563410  67.2092830  78.0182946  94.4817413  66.9475001  77.9190516
  93.8017488  68.2225865  77.1240232  92.0290760  65.5535154  71.1448178
  92.3705357  66.6402091  70.6665783  92.7192123  64.4311270  70.9148586
  92.4193795  63.5696712  71.3485560  93.9391961  64.4139154  70.1108609
  94.3127021  65.4285320  69.9724930  95.0212993  63.5845848  70.8260514
  95.7656195  63.3211789  70.0745834  95.4840642  64.2057217  71.5929527
  94.4720651  62.3123075  71.4653854  93.9730583  62.3848884  72.6125250
  94.5540078  61.2322895  70.8362141  93.7288643  63.8768661  68.6898930
  94.7039297  63.6384617  67.9730891  92.4627542  63.7372611  68.2802961
  91.7012397  63.8709858  68.9301520  92.1461618  63.2265494  66.9159322
  93.0725539  62.9324290  66.4225865  91.2041530  62.0098432  66.9592285
  90.3165818  62.3361692  67.5012875  90.9391953  61.7979733  65.9233672
  91.7576665  60.7556057  67.6054268  92.6313908  60.4377434  67.0365066
  92.0579295  61.0024414  68.6237668  90.5668502  59.4197157  67.6504646
  90.5582967  58.8948160  65.9228767  91.5591286  58.5724928  65.6355749
  89.8605431  58.0668355  65.7976216  90.2500467  59.7277994  65.2910367
  91.6292364  64.3696034  66.0349478  91.0541839  65.3264556  66.5901799
  91.8276022  64.2698351  64.7161198  92.3411663  63.4826059  64.3464964
  91.3745807  65.3238677  63.7690106  90.6317475  65.9581116  64.2527799
  92.5344114  66.1846859  63.3356383  92.2444286  66.7445988  62.4465338
  92.7764469  66.8800336  64.1393860  93.6698059  65.3880169  63.0425514
  94.3956738  65.9536862  62.7691765  90.6827270  64.6689656  62.5648500
  90.9969051  63.4949877  62.2850213  89.7599557  65.3462619  61.8416025
  89.3476570  65.1128082  60.5032061  89.1645276  64.0434858  60.3977859
  90.1696226  65.4062436  59.8502380  88.1039543  65.9404055  60.2716390
  87.2100649  65.3844342  60.5544050  88.0283575  66.2419104  59.2268992
  88.3161930  67.1583756  61.1788400  87.3862341  67.6118117  61.5218724
  88.9424170  67.9209086  60.7157130  89.0480965  66.5292291  62.3530299
  89.7903999  67.2507218  62.6943981  88.1045287  66.1816400  63.5101503
  87.5795449  65.0918325  63.5283092  87.8803114  67.1243783  64.4284259
  88.3109321  68.0359224  64.3671682  87.0593848  66.8115339  65.6286500
  87.4627282  65.9314373  66.1294924  87.0695282  67.9836540  66.6148526
  87.3506872  68.8772536  66.0576017  86.0550442  68.0983753  66.9966397
  88.0313503  67.7887207  67.7802471  89.0474040  67.8504068  67.3904644
  87.8736992  68.5832440  68.5096173  87.8600753  66.4584296  68.4717177
  86.7713728  66.1015525  68.9170947  88.9490917  65.7156155  68.5802360
  88.8988315  64.8143327  69.0332975  89.8258897  66.0531182  68.2095360
  85.6331731  66.4266678  65.2221290  85.0935461  65.4887944  65.8378685
  85.0451698  67.1067350  64.2301664  85.5096703  67.8563764  63.7378490
  83.6194542  66.8237195  63.9031137  83.3648065  65.8097436  64.2115070
  82.6945902  67.8044811  64.6328227  82.9971410  68.8135722  64.3530058
  81.6782023  67.6207398  64.2845485  82.7457290  67.6600910  66.1634573
  82.4022199  66.6568462  66.4156522  83.7836065  67.7772758  66.4751945
  81.8838011  68.6847188  66.8794623  82.2272588  69.6844986  66.6138006
  80.8483867  68.5605811  66.5622776  81.9783861  68.4990467  68.3983819
  81.6028916  67.5039606  68.6369358  83.0297297  68.5667791  68.6780031
  81.1942990  69.5223911  69.1565433  80.2200037  69.4595089  68.8979043
  81.2910563  69.3541966  70.1477288  81.5423632  70.4445053  68.9359628
  83.3485786  66.8383262  62.3958665  83.6355974  67.8741639  61.7605797
  82.8169799  65.7391188  61.8472036  82.7082990  64.9043843  62.4053309
  82.4111160  65.6928710  60.4507937  82.3138818  66.7120619  60.0767688
  83.4175949  64.9500773  59.5828954  83.0396265  65.0260819  58.5633551
  84.4258393  65.3618250  59.6276978  83.5364763  63.5032175  59.8844698
  84.3905581  63.0721732  60.8677225  84.9268627  63.8254478  61.4448313
  84.5796648  61.7440362  61.1339516  85.2655152  61.4285594  61.9201986
  83.8959668  60.8038018  60.4001578  84.0121810  59.7412652  60.6137236
  83.0359165  61.2259328  59.3604522  82.4990859  60.4985647  58.7514788
  82.8797308  62.5778164  59.1201713  82.2279350  62.9164861  58.3148360
  81.0645021  65.0143643  60.3401517  80.5614875  64.4218127  61.2867604
  80.4766362  65.1310962  59.1705961  80.9166617  65.6962490  58.4585012
  79.1734737  64.5484528  58.8821812  78.7214877  64.1645153  59.7967302
  78.2482408  65.6215650  58.2906483  78.5988426  65.9261054  57.3045282
  77.2526735  65.1864509  58.2033467  78.0910678  66.9417343  59.1416411
  79.0758847  67.8795326  59.3904199  80.0649794  67.6803906  58.9779470
  78.5555484  68.9266725  60.1544397  79.0790269  69.7311025  60.4690223
  77.2238900  68.6903221  60.4089458  76.2865990  69.4603035  61.1257221
  76.6183837  70.4012685  61.5645870  75.0051368  68.9744477  61.2275933
  74.2500828  69.5484899  61.7646865  74.6447346  67.7488794  60.6524042
  73.6316576  67.3604201  60.7566821  75.5726881  66.9843224  59.9260159
  75.2327398  66.0444579  59.4910556  76.8855334  67.4533712  59.7972815
  79.3710174  63.3507209  57.9543230  80.3102152  63.3309934  57.1534657
  78.5569086  62.3089368  58.1379222  77.9940306  62.2922289  58.9763663
  78.4342170  61.1956280  57.1985291  79.0483534  61.3534726  56.3119509
  78.7072583  60.2491907  57.6652242  76.9802649  61.1397015  56.7864217
  76.1275111  60.5799959  57.4797863  76.6631392  61.7467412  55.6673832
  77.3783566  62.2333427  55.1460555  75.2947194  61.8012369  55.1769677
  74.5909791  61.8539437  56.0076727  75.1268449  63.0676317  54.3061569
  75.6698296  62.8238046  53.3930221  74.0753818  63.2315432  54.0702369
  75.7245052  64.3596066  54.9354271  75.4824920  64.2984246  55.9964584
  77.2478244  64.6111127  54.7658767  77.4905443  64.6728800  53.7050418
  77.5188090  65.5466801  55.2551434  77.8046551  63.7905266  55.2182906
  75.0011331  65.6644283  54.4383606  73.9454314  65.6195919  54.7059107
  75.4579121  66.5352791  54.9085448  75.0979416  65.7441285  53.3555980
  74.9605989  60.5170026  54.3950938  75.8399054  59.7220711  54.0304953
  73.6725563  60.2884829  54.1829079  72.9613661  60.8624631  54.6128551
  73.2509590  59.1866395  53.3448703  74.0152825  58.4190730  53.2234197
  71.9632612  58.5209734  53.8590307  71.6295305  57.7975145  53.1151682
  72.1842750  57.8258933  55.1667816  72.5175986  58.5488459  55.9113181
  71.2520639  57.3680088  55.4975738  72.9442764  57.0541362  55.0447587
  70.9049110  59.5130875  53.9144700  70.0982758  59.1029072  54.2349260
  73.0268373  59.7374158  51.9286355  72.3186706  60.7445846  51.7552780
  73.5694308  59.0390914  50.9130797  74.2892676  58.3469995  51.0645491
  73.1602230  59.3214377  49.5443053  73.4884155  60.3189863  49.2522682
  73.7923630  58.3001728  48.5933700  74.8486898  58.2677410  48.8602428
  73.3266891  57.3456857  48.8387317  73.6520553  58.5671974  47.0748893
  72.8234517  57.9750740  46.6864220  73.4455936  59.6260917  46.9192667
  74.9730637  58.1756378  46.3216722  75.0620924  58.7787661  45.4181185
  75.8263741  58.3681976  46.9719655  74.9808132  56.7635712  45.9447547
  75.6612152  56.1639064  46.3892260  74.1637271  56.2351005  45.0471067
  73.3235841  56.9983875  44.3567251  73.3049787  57.9955862  44.5159374
  72.7073589  56.5779445  43.6758479  74.1749743  54.9193508  44.8508819
  74.8037437  54.3374382  45.3857901  73.5546941  54.5083911  44.1679006
  71.6478675  59.3044667  49.4478124  71.0471417  60.2150272  48.8661826
  71.0008316  58.3248731  50.1068965  71.4982667  57.7366809  50.7601098
  69.5876726  58.0346856  49.8472447  69.4484683  57.7365191  48.8081018
  69.1213107  56.8812528  50.7573724  68.0341189  56.8518787  50.6849141
  69.5379552  55.9671854  50.3343023  69.5024382  56.9876116  52.1237192
  69.1693196  56.2291142  52.6088105  68.7119800  59.2738855  50.0428977
  67.7216184  59.4911473  49.3209758  69.0747860  60.1027172  51.0065148
  69.9249454  59.9077209  51.5157347  68.2719811  61.2396226  51.4175818
  67.2228225  60.9650704  51.3080992  68.5549455  61.5244156  52.9106971
  69.5996060  61.8095587  53.0351069  67.9138728  62.3363278  53.2540989
  68.3511263  60.6284192  53.4969968  68.5059090  62.5044050  50.5733460
  67.7937645  63.5021428  50.7768124  69.4457737  62.4880763  49.6243603
  69.8682508  61.6113141  49.3543594  69.9251641  63.7128335  48.9882931
  69.3968051  64.5684389  49.4088587  71.4223890  63.9072577  49.2099277
  71.8787850  62.9779943  48.8689416  71.8238343  64.7412384  48.6342386
  71.7338107  64.1134968  50.6864154  71.2306102  63.3311645  51.2546110
  73.1927511  64.0603961  50.9566172  73.6966104  64.8427864  50.3890874
  73.3713944  64.2120605  52.0211290  73.5828608  63.0873013  50.6582864
  71.1366379  65.4034566  51.1970606  70.0542351  65.3782724  51.0710869
  71.3762588  65.5221159  52.2537550  71.5478546  66.2422093  50.6353724
  69.6206819  63.6755364  47.5059377  70.0674898  62.7608674  46.8130940
  68.8554437  64.6516788  47.0514286  68.4225305  65.2419429  47.7473265
  68.5275824  64.8824262  45.6464010  68.8915888  64.0474621  45.0477078
  66.9993023  65.0588755  45.4146455  66.6588950  65.9355814  45.9656537
  66.6947360  65.2399989  43.9370313  67.0344619  64.3634262  43.3853909
  65.6203303  65.3614861  43.7992127  67.2106291  66.1251947  43.5650340
  66.2309663  63.8472756  45.9555588  66.4185858  63.8077426  47.0285625
  65.1727441  64.0399908  45.7791328  66.6193871  62.5060646  45.3189457
  67.6774417  62.3124280  45.4953686  66.0254003  61.7070947  45.7627093
  66.4316020  62.5446772  44.2459379  69.3429171  66.1046667  45.1995244
  69.2620093  67.1552142  45.8396695  70.1678615  65.9912729  44.1571701
  70.6768578  64.8261236  43.4498265  70.0232595  64.6252486  42.6009691
  70.6598347  63.9747762  44.1302799  72.0798775  65.1981020  43.0270243
  72.3857624  64.6246695  42.1519764  72.7870117  65.0265361  43.8385831
  71.9678533  66.6937776  42.7054502  71.5506734  66.8627217  41.7127177
  72.9020238  67.2464574  42.8053009  70.9788657  67.1506440  43.7663087
  71.5596969  67.4897272  44.6240709  70.0794618  68.2719121  43.2918222
  68.9620556  68.0552632  42.8249595  70.5752538  69.4870571  43.4120806
  71.4629694  69.6561673  43.8631483  69.8328933  70.6244019  42.9092767
  68.8435155  70.5653778  43.3628700  70.4968863  71.8797250  43.3736269
  69.9369952  72.7367702  42.9993333  70.5392776  71.9262444  44.8565328
  71.0994421  71.0697022  45.2315671  71.0260819  72.8470254  45.1779095
  69.5234832  71.8962151  45.2506908  71.8557318  71.8279074  42.9556795
  72.3089347  72.6245722  43.2412185  69.7350875  70.6658258  41.4033228
  70.4421948  70.2362398  40.8422656  68.9596657  71.1249843  40.9701202
  63.8654581  68.2446488  53.9194240  60.4974152  42.4803249  68.3962708
  61.2375907  43.1180795  68.1403209  60.5471705  41.6682960  67.7977443
  60.4978543  42.3685947  69.4000714  59.2069200  43.1228335  68.0757451
  58.6836021  42.5034879  67.3472888  58.2973135  43.3060167  69.3128680
  58.3578665  42.4401840  69.9722361  58.6199393  44.1963558  69.8525983
  56.8315456  43.5027512  68.9899053  56.1004776  42.5084046  68.3592957
  56.5894287  41.5701660  68.0971221  54.7439187  42.7004405  68.0581577
  54.1839360  41.9096376  67.5590076  54.1172215  43.8861357  68.3916386
  53.0642764  44.0385880  68.1546472  54.8253619  44.8707190  69.0221572
  54.3399770  45.8132311  69.2754804  56.1754245  44.6688651  69.3431043
  56.7287134  45.4386475  69.8810693  59.3722884  44.4291162  67.2613977
  59.6694102  45.5056739  67.8002355  59.1451804  44.2992843  65.9378647
  58.9785993  43.3638034  65.5954824  59.2701053  45.3783420  64.9666380
  59.6872173  46.2878290  65.3990152  60.1649213  44.9089881  63.7852607
  59.7000340  44.0351362  63.3287928  60.3367116  46.0248888  62.7127265
  60.8019949  46.8989595  63.1683716  60.9683844  45.6578919  61.9037743
  59.3601708  46.2999970  62.3142509  61.5214923  44.4371621  64.3215465
  62.2057039  45.2813298  64.2358953  61.3771229  44.1924768  65.3738706
  62.0875720  43.2752409  63.6219532  62.2326674  43.5193360  62.5695917
  63.0463981  43.0129244  64.0691016  61.4040847  42.4304832  63.7075652
  57.8899494  45.9047773  64.5466087  57.0364575  45.1165302  64.1432266
  57.6863048  47.2278084  64.6669900  58.4405038  47.7423713  65.0988559
  56.4548356  47.9538866  64.3219275  55.6999814  47.2913044  63.8985138
  55.8214367  48.7273129  65.5320625  54.9091484  49.2154524  65.1892081
  55.4900701  47.7839505  66.6941677  56.4020041  47.2957571  67.0378891
  55.0534485  48.3552095  67.5133900  54.7788191  47.0291934  66.3586599
  56.7157032  49.8742000  66.0084430  56.8655681  50.5816249  65.1928496
  56.2396520  50.3826456  66.8468689  57.6797412  49.4763632  66.3253934
  56.7596358  48.8983701  63.1395500  57.8823061  49.3886421  63.0111146
  55.7690734  49.1263832  62.2926986  54.8834239  48.6790316  62.4813807
  55.8768441  49.9796545  61.1094879  54.9019167  49.9624699  60.6223324
  56.0849948  50.9873274  61.4691654  56.9414036  49.5854426  60.0993176
  57.3907149  50.4275538  59.3150235  57.3624595  48.3244312  60.1525074
  56.9282347  47.7184860  60.8339607  58.3990515  47.7696175  59.2987048
  58.2994844  46.6857404  59.3569789  58.1737810  48.1006692  58.2849211
  59.8304328  48.1539285  59.6380919  60.7540423  47.5082220  59.1340585
  60.0549138  49.1812904  60.4933536  59.2919207  49.7427480  60.8436482
  61.4298109  49.6018291  60.8034989  62.1051495  48.7590060  60.6563042
  61.8878591  50.7667825  59.8948403  62.8783835  51.0400610  60.2585427
  61.9739253  50.3344373  58.8979601  61.0069715  52.0117561  59.8347499
  60.0060646  51.7488202  59.4924768  60.9435627  52.4761706  60.8188234
  61.6388516  52.9893963  58.8519955  62.6188583  53.2405983  59.2576842
  61.7624103  52.4451532  57.9157091  60.8610225  54.2553427  58.5980259
  60.0116124  54.0142510  57.9589032  60.4997119  54.6341703  59.5540821
  61.7024269  55.2975101  57.9355617  62.0369729  54.9468385  57.0494420
  61.1496485  56.1286899  57.7816909  62.4893340  55.5213640  58.5278164
  61.7354123  49.9423361  62.2750616  62.9015056  50.1547741  62.5862360
  60.7405250  49.9910174  63.1653972  59.7802211  49.9002130  62.8659472
  61.0024390  50.3383839  64.5673727  62.0320340  50.6835760  64.6615841
  60.0579509  51.4547649  65.0754688  59.0695749  51.0246699  65.2374265
  60.4699638  51.7863348  66.0285726  59.9459430  52.6357681  64.1367374
  60.9688975  53.5781545  64.0425841  61.8452402  53.4645775  64.6807245
  60.8875030  54.6468223  63.1574117  61.6987304  55.3722060  63.0955218
  59.7707168  54.7857760  62.3491088  59.6841789  55.8361412  61.4817005
  60.4500156  56.4140644  61.5148476  58.7402639  53.8638657  62.4213190
  57.8622493  53.9693942  61.7840949  58.8293080  52.7973430  63.3138997
  58.0187183  52.0714707  63.3783517  60.9899486  49.1084190  65.4782132
  59.9320243  48.5306911  65.7208869  62.1875422  48.6844446  65.9239869
  63.0040390  49.1915311  65.6136717  62.3794078  47.5360235  66.8072732
  61.5926113  46.8041920  66.6243167  63.7465953  46.8614395  66.5649432
  63.8592308  46.7334492  65.4883602  64.5143624  47.5427556  66.9316067
  63.8947135  45.5126432  67.2540518  63.4316620  45.5989601  68.2370237
  63.3470102  44.7828341  66.6578121  65.3410250  45.0565773  67.4122156
  65.3252991  43.9834874  67.6028191  65.8487941  45.2498249  66.4672683
  66.0815132  45.7600344  68.5380621  66.1508834  46.8183065  68.2863708
  65.4978853  45.6417282  69.4510140  67.4502001  45.2091180  68.7489021
  67.9913036  45.3190351  67.9031924  67.9006480  45.7063897  69.5038309
  67.3861201  44.2286084  68.9825550  62.2899033  48.0353168  68.2515364
  62.9639208  48.9953088  68.6231286  61.4570992  47.3688697  69.0630587
  60.9351328  46.6054925  68.6569729  61.2114783  47.7095580  70.4728235
  61.1095555  48.7889711  70.5849768  59.9102241  47.0391460  70.9556518
  59.8740483  46.2067975  70.2528100  60.0005933  46.6530132  71.9709522
  58.6082873  47.8750522  70.8344512  58.5914245  48.5634612  71.6793829
  58.4825407  48.6865434  69.4959984  58.4988639  47.9987251  68.6505764
  57.5445832  49.2418199  69.4939055  59.3167660  49.3831772  69.4131140
  57.4123498  47.0231594  71.1105765  57.4798096  46.6175253  72.1200365
  56.5082070  47.6253570  71.0212167  57.3752925  46.2042107  70.3922111
  62.3831186  47.2908750  71.2965714  62.8792440  46.1838621  71.1223737
  62.8573187  48.1815246  72.1444132  62.4298221  49.0965814  72.1402970
  64.0199280  47.9633678  73.0040592  64.5748618  47.0619729  72.7439920
  64.9930669  49.1707685  72.9730234  64.4377647  50.0710169  73.2362562
  66.1417946  48.9801141  73.9509399  66.6978807  48.0802476  73.6880534
  66.8057768  49.8433182  73.9050398  65.7463275  48.8799156  74.9617157
  65.5166846  49.4395718  71.5588161  64.6791741  49.6570291  70.8959507
  66.1951339  50.2924712  71.5780235  66.0488707  48.5607598  71.1947170
  63.5325511  47.6307470  74.4199763  63.7618094  46.5264493  74.8843211
  62.8263222  48.5598215  75.0823864  62.6801631  49.4631583  74.6549294
  62.3176880  48.3428950  76.4414005  61.9163932  47.3331041  76.5273304
  63.4531156  48.5154433  77.4840620  63.0484758  48.2443813  78.4591985
  64.2523233  47.8237028  77.2178623  64.0041086  49.9254181  77.5405852
  64.4518472  50.1412097  76.5705002  63.1639541  50.5988047  77.7102698
  65.0293372  50.1229857  78.6197323  64.6639644  49.7389325  79.5721528
  65.9620310  49.6220923  78.3603340  65.2899818  51.5542915  78.7609243
  64.6753761  52.0755598  79.3697252  66.2567037  52.2070590  78.1270305
  67.0993728  51.5529839  77.3313147  67.0024508  50.5550550  77.2094784
  67.8319554  52.0575165  76.8529119  66.4072855  53.5156967  78.3023799
  65.7832928  54.0143908  78.9204717  67.1450307  54.0055909  77.8167520
  61.1527355  49.2760413  76.7589671  61.0314992  50.3258710  76.1309595
  60.3277970  48.8989811  77.7716245  60.5199881  48.0093102  78.2094001
  59.1971092  49.6935018  78.2742853  58.5665478  50.0165695  77.4459625
  58.3476358  48.8384438  79.2357846  58.3942670  47.8153017  78.8628169
  58.8345561  48.8922093  80.2094981  56.8797520  49.2660003  79.3737946
  56.8686557  50.2832446  79.7651917  56.4389162  49.2559702  78.3769670
  56.0589970  48.3433219  80.3106418  56.6314317  48.2417677  81.2326528
  55.1225814  48.8604017  80.5200545  55.7603797  46.9638631  79.7453708
  55.2790435  47.0969454  78.7765028  56.7096800  46.4454073  79.6107174
  54.8722945  46.1540490  80.6359115  53.9924342  46.6340823  80.7604652
  54.7065305  45.2510539  80.2149337  55.3183145  46.0302535  81.5335973
  59.7878024  50.8827149  79.0137984  60.7584800  50.7083220  79.7551060
  59.2627522  52.0862871  78.7531023  58.5742981  52.1260745  78.0151679
  59.7068495  53.3499635  79.3615014  60.3074681  53.2142862  80.2609169
  60.4843020  54.2611695  78.3458046  60.6212876  55.2421373  78.8008184
  61.8593971  53.6677909  77.9810893  61.7231915  52.6869498  77.5255684
  62.3652603  54.3279464  77.2765342  62.4635029  53.5682781  78.8828945
  59.6252793  54.5925803  77.0880673  59.6824489  53.7181642  76.4398167
  58.6014669  54.7161900  77.4410946  60.0402178  55.8144592  76.3181245
  61.0638385  55.6913860  75.9643540  59.3753756  55.9501711  75.4650909
  59.9828585  56.6894119  76.9656332  58.5203385  54.1048309  80.0293906
  58.7048969  55.2075157  80.5540564  57.3215866  53.5127821  79.9713210
  57.2631134  52.6128658  79.5165343  56.0975257  54.0904828  80.5254561
  56.2863854  54.2771567  81.5826146  55.9351922  55.0386776  80.0129388
  54.8488293  53.2348099  80.3897085  54.9242870  52.0747991  79.9658713
  53.6827367  53.8174912  80.7713215  53.7690164  54.7456612  81.1601090
  52.3454642  53.1867606  80.7527457  52.2776869  52.4910119  79.9164209
  52.0960156  52.4155019  82.0525597  52.3082864  53.0901662  82.8819381
  51.0426941  52.1358524  82.0728053  52.8985171  51.2479182  82.1744193
  52.6996168  50.8081109  83.0042434  51.2041729  54.2081184  80.4906703
  51.4736278  55.3737045  80.1734068  49.9554072  53.7430243  80.6106770
  49.8672050  52.7683562  80.8603604  48.7314689  54.5223658  80.4119542
  48.6953068  55.2929284  81.1820352  48.7886109  54.9928059  79.4303635
  47.4647074  53.6887127  80.4873127  47.5262565  52.4821024  80.7654299
  46.2984482  54.3349634  80.2442170  46.3480226  55.3308431  80.0833900
  44.9667846  53.6933842  80.2621357  44.8355727  53.1427594  81.1936372
  43.8568197  54.7499335  80.1559488  42.9133037  54.2393178  80.3486879
  44.0400067  55.4826047  80.9419103  43.7895643  55.4106070  78.8990362
  43.0751274  56.0517018  78.9123472  44.8380293  52.6555745  79.1238378
  44.2971596  51.5581235  79.3162471  45.3576574  53.0420620  77.9458603
  45.7134079  53.9863020  77.9900381  45.4160674  52.3375285  76.6635897
  44.4353983  51.9491604  76.3887126  45.8763229  53.3496978  75.5687696
  45.8480069  52.8897623  74.5809656  45.2011235  54.2051203  75.5901781
  47.2836221  53.9008903  75.7524210  47.5332634  54.9423056  76.6398612
  46.7000602  55.3875151  77.1836082  48.8376173  55.4209613  76.8397202
  49.0149419  56.2412612  77.5352523  49.8950956  54.8542242  76.1567790
  50.9102941  55.2175142  76.3164422  49.6631292  53.8255753  75.2706091
  50.4974730  53.3778993  74.7306492  48.3596666  53.3542282  75.0620444
  48.1788174  52.5484357  74.3506430  46.3563367  51.0921026  76.7120353
  45.9649438  50.0069433  76.2653330  47.5705930  51.2879166  77.2546011
  47.7259977  52.2149563  77.6241225  48.6546963  50.3100723  77.3555241
  48.3771987  49.5723891  78.1084635  48.7599008  49.8191149  76.3880571
  49.9872478  50.9341274  77.7414446  50.0207240  51.8485994  78.5685276
  51.1019502  50.4694496  77.1306303  51.0075820  49.7161902  76.4644514
  52.4676732  50.9381609  77.4739604  52.4187396  51.6179820  78.3245766
  53.3821026  49.7440465  77.8464436  53.6283183  49.2452481  76.9090658
  54.2903353  50.1526175  78.2894819  52.7607025  48.7469855  78.7998383
  52.4376293  49.1424588  79.9447621  52.6111757  47.5681638  78.4088510
  53.1820700  51.8000004  76.4218502  52.7671873  51.8732393  75.2694456
  54.2764863  52.4453973  76.8570166  54.4425515  52.3960718  77.8520486
  55.1587417  53.2861749  76.0473541  54.8524568  53.2236737  75.0031403
  55.1702286  54.7662227  76.4928464  55.5517819  54.8346568  77.5115879
  56.0706156  55.5821206  75.5534216  55.6894032  55.5145417  74.5344953
  56.0766159  56.6250788  75.8701278  57.0857364  55.1866029  75.5879869
  53.7231425  55.3205578  76.4922250  53.4971781  55.5759057  75.4569287
  53.0834882  54.4974900  76.8108177  53.4859973  56.4603552  77.3276476
  54.1250065  57.2840364  77.0093453  52.4410219  56.7596575  77.2467542
  53.7113190  56.2056210  78.3632347  56.5397456  52.6399844  76.0689690
  57.0507043  52.3200804  77.1386529  57.1134678  52.4172188  74.8696745
  56.5922352  52.7266170  74.0617831  58.3985767  51.7614226  74.6540114
  58.8269638  51.4360757  75.6020267  58.1849093  50.5331014  73.7668057
  57.6372085  50.8298126  72.8723307  59.1901616  50.2167349  73.4884533
  57.4649623  49.3872996  74.4413120  56.0730639  49.3117170  74.4378609
  55.5049666  50.1085238  73.9577944  55.4061565  48.2414063  75.0342590
  54.3169132  48.2011137  75.0290383  56.1348755  47.2274342  75.6386655
  55.4919318  46.1566523  76.2259794  54.5357396  46.2112971  76.1603283
  57.5187895  47.2849064  75.6518252  58.0956554  46.5027547  76.1453483
  58.1735330  48.3474417  75.0312283  59.2628134  48.3739991  75.0018513
  59.4597884  52.6304390  73.9903326  59.1405984  53.5284909  73.2131445
  60.7291824  52.3158240  74.2611944  60.9115368  51.6019207  74.9519826
  61.8560114  52.9125313  73.5775616  61.6241078  53.9516109  73.3438235
  63.1246906  52.8751691  74.4365070  62.9361398  53.5901268  75.2373712
  63.2188289  51.8744728  74.8582235  64.4324028  53.2514381  73.7088948
  64.5688097  52.5579739  72.8790747  64.4095844  54.6616035  73.1849886
  64.2736647  55.3557199  74.0143420  65.3517908  54.8779769  72.6814706
  63.5867411  54.7742125  72.4790505  65.6155786  53.0877349  74.6105030
  65.6839728  52.0497922  74.9362277  66.5235696  53.3596697  74.0722604
  65.5021872  53.7343393  75.4806433  62.0363653  52.0053256  72.3488695
  62.0506689  50.7896646  72.4904951  62.0882196  52.5798597  71.1481965
  61.9704126  53.5791928  71.0612820  62.2620842  51.7942269  69.9286645
  62.5408748  50.7679106  70.1675155  60.9751508  51.7718530  69.1108577
  60.6880891  52.7920728  68.8562067  61.1351547  51.2009445  68.1962198
  60.1810357  51.3065277  69.6947693  63.4174298  52.3964379  69.1290898
  63.7863793  53.5517077  69.3346182  64.0146173  51.5962617  68.2641551
  63.6973135  50.6407279  68.1843253  65.1182417  52.0323863  67.4138137
  65.2785531  53.1012742  67.5548035  66.0216472  51.4901023  67.6928944
  64.8167794  51.7685625  65.9578887  64.3732337  50.6704691  65.5992875
  64.9839745  52.7894105  65.0874284  65.2191472  53.6911505  65.4768614
  64.8137676  52.6823410  63.6337603  63.8773983  52.1672413  63.4193218
  64.7785424  54.0720381  62.9591885  63.9312537  54.6134486  63.3799922
  65.7015974  54.5999217  63.1987889  64.6214986  54.0256271  61.4283370
  65.0906802  53.1323172  60.7408976  63.9748039  54.9932151  60.8486391
  63.8569149  54.9879437  59.8455568  63.5933721  55.7455707  61.4041314
  65.9806806  51.8482593  63.1167586  67.1223162  52.3181896  63.1067781
  65.6936806  50.6000049  62.7346172  64.7425800  50.2986327  62.8917212
  66.6686247  49.6093451  62.2624738  67.5539305  49.5390241  62.8944451
  66.0458657  48.1898298  62.0802064  66.7994620  47.5297576  61.6506743
  65.5689556  47.6147247  63.4352561  64.8149560  48.2740614  63.8652101
  65.1393192  46.6251456  63.2795432  66.4161667  47.5392752  64.1169012
  64.9337633  48.1857005  60.9923676  64.0183745  48.5445648  61.4628786
  65.2392887  48.8842921  60.2134430  64.6826979  46.8097939  60.3729192
  64.3766628  46.1107277  61.1512178  63.8946976  46.8863673  59.6237254
  65.5975783  46.4504538  59.9017840  67.4385923  50.0424902  60.9944564
  68.4606493  49.4144437  60.6490333  66.9602108  51.0947486  60.2975766
  66.0650255  51.5136542  60.5055685  67.6701024  51.5386944  59.1058757
  68.3228662  50.7613283  58.7087605  66.7481820  52.0121335  57.9957387
  67.3510054  52.1254421  57.0947030  65.6077078  51.0656481  57.7210881
  65.0041254  50.9521912  58.6215965  64.9889401  51.4649821  56.9174975
  66.0041539  50.0943466  57.4252765  66.2947002  53.2983297  58.3334598
  65.7081434  53.6216488  57.6456980  68.7561138  52.5825586  59.3800851
  69.6385920  52.7282997  58.5344056  68.7378341  53.2675833  60.5346452
  68.0298953  53.0842925  61.2312990  69.6731375  54.3674710  60.7691249
  70.6426624  54.1552391  60.3184827  69.0973147  55.6397015  60.1210450
  69.8158882  56.4590518  60.1414482  68.9074083  55.3493211  59.0877421
  67.8148028  56.1134763  60.7278289  67.5464128  55.9283212  61.9066560
  67.0294734  56.8216770  59.9614344  66.1515500  57.1655833  60.3234823
  67.3037378  57.0221451  59.0102812  70.0790670  54.6719823  62.2534776
  70.8869871  55.5837609  62.4784972  69.5060659  53.9557335  63.2254217
  68.8169371  53.2610217  62.9752692  69.8306334  54.1309924  64.6366989
  69.7436881  53.1466667  65.0967451  70.8694563  54.4588460  64.6748874
  68.9782821  55.1096884  65.4063282  69.1392132  55.2266450  66.6196940
  68.0540909  55.8046863  64.7241007  68.0198755  55.6654428  63.7243308
  67.1470826  56.7780769  65.3172379  67.7145284  57.5940127  65.7648463
  66.2165564  57.3617423  64.2306406  66.8646619  57.7434791  63.4417582
  65.6297315  56.5275277  63.8461635  65.2746796  58.4745007  64.7002392
  65.0021990  58.2444145  65.7302467  65.8482723  59.4010284  64.6750029
  64.0128981  58.6368779  63.8665455  63.6175405  57.6845501  63.1453436
  63.4132296  59.7318183  63.9401745  66.3409100  56.1408458  66.4383571
  65.8308593  55.0450608  66.2584420  66.2763889  56.8108722  67.6108556
  66.8451297  57.6421465  67.6857975  65.5004705  56.3884617  68.7868819
  65.2884404  55.3225819  68.7029615  66.2379002  56.6348079  70.0888685
  66.7691650  57.5828052  70.0042631  65.5009776  56.7020500  70.8891957
  67.2157161  55.5398663  70.4003934  66.6350979  54.6173807  70.3984495
  67.9299921  55.5207289  69.5772636  67.9614010  55.6637946  71.7125633
  67.6739559  56.5884567  72.5114383  68.8567610  54.8180476  71.9312496
  64.1660597  57.0970533  68.8037010  64.0958109  58.2992298  68.5778299
  63.1053312  56.3383332  69.0394481  63.2465327  55.3453103  69.1580523
  61.7384674  56.8487987  69.0499548  61.6735594  57.9159543  69.2622404
  60.9901258  56.5593748  67.7013824  59.9398932  56.8200064  67.8324625
  61.5715084  57.3602382  66.5394353  62.6216715  57.0997868  66.4074370
  61.0226225  57.1280133  65.6268038  61.4860227  58.4256741  66.7530711
  60.9499748  55.0733771  67.3799424  60.4307399  54.5424229  68.1778050
  60.4228895  54.9188798  66.4384482  61.9674806  54.6923223  67.2928785
  60.9561154  56.2734686  70.2424802  61.4106447  55.3409391  70.9055651
  59.7606140  56.8373023  70.4843044  59.4948019  57.6521720  69.9500474
  58.8316386  56.3351324  71.4836247  59.2661698  55.5785942  72.1370250
  58.2845809  57.4566640  72.3394097  57.8379367  58.2178250  71.6996888
  57.5271115  57.0615459  73.0163306  59.0940468  57.8996944  72.9195719
  57.7113811  55.6560606  70.6884483  57.3261443  56.1323026  69.6093078
  57.2492703  54.5066615  71.1934714  57.7268088  54.1398463  72.0043369
  56.1817552  53.7119665  70.6028688  55.6470995  54.2749837  69.8378498
  56.7246078  52.3958871  69.9651446  57.3597309  51.8952631  70.6959616
  55.5984126  51.4688455  69.5561957  54.9630804  51.9686407  68.8249920
  56.0146961  50.5627373  69.1159953  55.0059929  51.2071910  70.4329382
  57.6015539  52.6907902  68.7624860  58.4490217  53.3027186  69.0714260
  57.9652773  51.7545617  68.3390702  57.0212146  53.2272400  68.0118004
  55.1248698  53.4589275  71.6937141  55.3996361  52.7702899  72.6792630
  53.9377097  54.0603523  71.5259430  53.8354767  54.7061621  70.7561525
  52.7809840  53.8282159  72.3970225  53.1415634  53.6152719  73.4033706
  51.8196735  55.0426189  72.4618944  51.4441887  55.2005844  71.4508764
  50.9950171  54.7561527  73.1145651  52.4451034  56.3206781  72.9721680
  52.5450197  56.2568218  74.0556992  53.4316404  56.4349076  72.5229482
  51.5929169  57.5066343  72.6170128  52.1827547  58.1621211  71.9762887
  50.7269079  57.1423714  72.0643461  51.1290725  58.2734468  73.8283872
  51.9865681  58.4177826  74.4856308  50.7610854  59.2433576  73.4937866
  50.0539448  57.5645478  74.5667102  50.3948626  56.6659603  74.8772182
  49.7763918  58.1142986  75.3672341  49.2591138  57.4310822  73.9579988
  52.0799449  52.6226106  71.7674188  51.7954250  52.6113334  70.5629221
  51.8665909  51.5888237  72.5788711  52.1707953  51.7061050  73.5348021
  51.2517818  50.3245414  72.2003677  51.0578108  50.2869709  71.1284242
  52.2434447  49.1883948  72.5648683  53.1704915  49.7128883  72.7963631
  51.8508486  48.7281211  73.4715747  52.5158827  48.1137363  71.5299830
  51.5744914  47.6164343  71.2963719  53.1152473  48.6972021  70.2496257
  54.0569575  49.1943009  70.4823779  53.2955867  47.8951181  69.5339165
  52.4209782  49.4186222  69.8187615  53.4549339  47.0960219  72.0920179
  53.0102064  46.6397813  72.9764168  53.6472542  46.3263714  71.3445205
  54.3932169  47.5785819  72.3656231  49.9301821  50.1795122  72.9691784
  49.8961430  50.3752006  74.1880161  48.8472502  49.8733727  72.2529025
  48.9510356  49.7574734  71.2549570  47.5205519  49.7044738  72.8342506
  47.6004520  49.5832968  73.9145428  46.6547208  50.9346873  72.5421915
  47.1054817  51.7616637  73.0908479  46.7402758  51.1201900  71.4715052
  45.1861266  50.8165720  72.9201886  44.8823900  49.8405104  72.5418389
  45.0780405  50.8350013  74.0046594  44.3099347  51.8906642  72.3071611
  43.8112241  51.6981561  71.1715316  44.1790954  52.9575915  72.9460665
  46.8850447  48.4923025  72.2444393  46.8121764  48.3767479  71.0228881
  46.3747717  47.6026209  73.0962739  46.4480044  47.7250738  74.0961447
  45.7062041  46.4211494  72.5973115  46.3750183  45.8623306  71.9427061
  45.2988305  45.5247021  73.7550675  46.1777456  45.3340700  74.3709140
  44.5465681  46.0453043  74.3476674  44.7684048  44.2931661  73.2950711
  44.5210312  43.7504183  74.0472885  44.4667033  46.8467616  71.8089606
  43.8374980  47.8715931  72.0991450  44.1825717  46.1054512  70.7430871
  44.8284782  45.3697903  70.4946779  42.9600165  46.2432163  69.9636202
  42.7540121  47.2991314  69.7883929  43.0968257  45.5361890  68.6027408
  43.3615126  44.4967014  68.7964046  42.1251386  45.5775193  68.1105864
  44.1506415  46.1690434  67.7002988  43.7879573  47.1688828  67.4617991
  45.0930060  46.2447583  68.2428102  44.3946000  45.4259227  66.4133607
  45.5103915  44.9771956  66.1356086  43.3742117  45.3107888  65.5782817
  43.4942410  44.8200363  64.7037211  42.4802392  45.7142128  65.8194533
  42.0673438  45.4633832  70.9252671  42.5449591  44.4744710  71.4913467
  40.8677348  45.9535289  71.2397770  40.5557108  46.8158564  70.8165374
  40.0106688  45.3265366  72.2607861  39.0043276  45.7401132  72.1949750
  39.9308770  43.8090997  72.0582207  40.9505972  43.4243623  72.0424974
  39.3980773  43.3899578  72.9117689  39.2122761  43.4088150  70.7589572
  38.2398259  43.9011150  70.7498914  39.8097023  43.7702051  69.9219499
  39.0204511  41.9072236  70.6326577  38.6957740  41.5093143  71.5940899
  38.2558987  41.7095679  69.8813314  40.3317020  41.2312328  70.2168627
  41.0963083  41.5130001  70.9407998  40.1771777  40.1528644  70.2535105
  40.7765506  41.6246118  68.8434637  40.9202078  42.6237628  68.8094100
  41.6413251  41.1523694  68.6215354  40.0683773  41.3632222  68.1724458
  40.5115330  45.6829244  73.6890566  40.4165470  44.8813243  74.6238148
  41.0454785  46.9112763  73.8345319  41.1500843  47.4767613  73.0042406
  41.4680658  47.4754981  75.1149927  41.8374267  46.7323010  75.8216253
  42.5458673  48.5418899  74.9196639  42.1871488  49.2981570  74.2214654
  42.7719093  49.0104695  75.8774940  43.4481224  48.0784760  74.5205616
  40.2097173  48.1015900  75.7204859  39.3272001  48.5623873  74.9842093
  40.1260295  48.0761151  77.0558388  40.8786401  47.6029284  77.5351831
  39.0265900  48.6142359  77.8536990  38.0806290  48.1675254  77.5475836
  39.2699438  48.2833483  79.3493324  39.4304984  47.2063489  79.3982596
  40.1884562  48.8001086  79.6275299  38.1484454  48.6772717  80.3186263
  38.5432258  48.5662505  81.3285390  37.9171301  49.7261045  80.1327633
  36.8818396  47.8455997  80.1751194  36.8583665  47.3798444  79.1899190
  36.8619162  47.0719865  80.9427294  35.6936590  48.6851110  80.3249752
  35.3349932  48.8152256  81.2601374  35.0724659  49.2915808  79.3166465
  35.4979860  49.1291637  78.0701381  36.2984174  48.5415103  77.8855491
  35.0194387  49.5939588  77.3118125  34.0145746  50.0520868  79.5450380
  33.6774028  50.1724789  80.4894537  33.5488682  50.5088722  78.7739587
  38.8815791  50.1305933  77.6352470  37.7610545  50.6189594  77.4569187
  40.0267005  50.8594888  77.6113427  40.8941458  50.3771448  77.7983780
  40.0628050  52.3153769  77.4462448  39.0596630  52.6916512  77.2456884
  40.5907407  52.9823977  78.7263859  41.6326504  52.6907791  78.8586056
  40.5187921  54.0697124  78.7005013  39.8657981  52.5367575  79.9469415
  38.5984634  53.0045334  80.2414809  38.2459786  52.3940851  81.3580204
  37.2647041  52.6277925  81.7710338  39.2041154  51.5680483  81.7882925
  39.1980805  50.9909727  82.6171756  40.2349447  51.6366651  80.8839802
  41.1240260  51.0216706  81.0233261  40.8603285  52.7689703  76.2064859
  41.9993173  53.2547357  76.3623011  40.2763386  52.6413140  74.9727559
  39.0955911  51.9940930  74.5833891  38.2876385  52.3819404  75.2037819
  39.2238241  50.9294018  74.7785505  38.8934441  52.2907527  73.1142405
  38.3310449  53.2146238  72.9790805  38.3690676  51.4715186  72.6223196
  40.3244850  52.4233272  72.5805075  40.4388614  53.0583376  71.7019980
  40.7512050  51.4413144  72.3763987  41.0266163  53.0566810  73.7708463
  42.0145024  52.6015270  73.8416560  41.1743342  54.5724189  73.6019468
  40.2276377  55.3040056  73.8845269  42.3679803  55.0428902  73.1659608
  43.1228348  54.3779914  73.0753870  42.6614843  56.4587549  72.9484736
  41.7687886  56.9617415  72.5767236  43.1050405  57.1453048  74.2609522
  42.9889036  58.2178966  74.1055226  42.4126531  56.8137654  75.0347618
  44.5476736  56.8446853  74.7013231  44.6452520  55.7965592  74.9841851
  45.1897896  57.0506625  73.8449572  44.9978511  57.6987492  75.8566863
  44.3449063  57.7776268  76.9042145  46.1539598  58.3254157  75.7028262
  46.5087391  58.9132548  76.4435544  46.6757735  58.2127304  74.8454384
  43.6793308  56.7368749  71.8157606  43.7347787  57.8663243  71.3386186
  44.4717866  55.7365664  71.4008008  44.3653308  54.8619566  71.8945862
  45.5386427  55.8458709  70.4057989  46.2489415  56.6200033  70.6961328
  46.2787455  54.5184721  70.3073846  45.8489896  53.9282580  71.1167401
  46.0731531  54.0312211  69.3542748  47.7582214  54.6285391  70.5019849
  48.1664866  55.2632997  69.7155376  48.0888808  55.2219127  71.8490822
  47.6813118  54.5874149  72.6361013  49.1709960  55.2892742  71.9612867
  47.6535709  56.2183649  71.9245060  48.4138888  53.3138778  70.3105093
  48.2187399  52.9536328  69.3004400  49.4889101  53.4186675  70.4569657
  48.0170972  52.6007192  71.0330466  45.1095010  56.3438192  69.0046302
  45.7858567  57.2175031  68.4312460  43.9961608  55.8196314  68.4648203
  43.5019816  55.0597019  68.9102341  43.5035287  56.3067169  67.1816218
  44.3056742  56.2528145  66.4455808  42.3196271  55.4750053  66.6773671
  42.7555552  54.4849058  66.5440670  41.5580745  55.4342778  67.4561347
  41.6777180  55.9347454  65.3560429  41.3509778  56.9668035  65.4833130
  42.6383827  55.8484587  64.1775812  42.9652201  54.8165464  64.0493892
  42.1339864  56.1844873  63.2716177  43.5045262  56.4824938  64.3670419
  40.4367753  55.1552004  65.0660636  39.7187420  55.3007391  65.8731237
  40.0021762  55.4989271  64.1274067  40.6826820  54.0963408  64.9857805
  43.1052664  57.7805510  67.3324075  43.4708637  58.5962535  66.4952026
  42.3951144  58.1206742  68.4239703  42.0917051  57.3704903  69.0283429
  41.9629725  59.4769359  68.7359730  41.3914351  59.8810300  67.9004180
  41.0669050  59.4916174  70.0029100  40.2469047  58.8069218  69.7863675
  41.6359094  59.1184506  70.8544267  40.5073880  60.8619052  70.3308767
  39.5652444  61.4653080  69.5043264  39.2220414  60.9283889  68.6200024
  39.0617417  62.7301678  69.7889187  38.3253589  63.1862993  69.1272645
  39.5210130  63.4243043  70.8993986  39.0073328  64.6667861  71.1820814
  38.3435489  64.9510532  70.5494814  40.4685279  62.8493136  71.7309388
  40.8293409  63.3862695  72.6082031  40.9604636  61.5776623  71.4409538
  41.7129661  61.1242161  72.0861102  43.1797723  60.3911349  68.8816352
  43.2175294  61.4495406  68.2420714  44.1933019  59.9581820  69.6658434
  44.0691082  59.1114708  70.2022717  45.4489569  60.7003561  69.8188994
  45.2332651  61.6938715  70.2119686  46.4065421  59.9946450  70.7754827
  46.1642003  58.9320888  70.7569342  47.4174160  60.1429059  70.3956766
  46.3223083  60.5051506  72.1943195  46.0105843  61.5495993  72.2017988
  45.5636536  59.8965625  72.6864198  47.6358723  60.3660800  72.9313520
  47.9879238  59.2257498  73.3017474  48.3390921  61.3898335  73.0934312
  46.1418323  60.9177487  68.4737414  46.5721500  62.0241635  68.2062063
  46.2041678  59.8867209  67.6053682  45.8486328  58.9920280  67.9106858
  46.8309146  59.9720713  66.2747996  47.8690009  60.2878654  66.3784819
  46.8010207  58.6132461  65.5709215  47.6490425  58.5794407  64.8869511
  46.9204656  57.8452860  66.3351663  45.6017678  58.3792614  64.8489793
  45.6427485  57.5156230  64.4317874  46.1764215  61.0385565  65.4009104
  46.8744448  61.7027378  64.6367484  44.8357077  61.1817113  65.5169542
  44.3743147  60.5690311  66.1740986  44.0219430  62.1530236  64.7848631
  44.2659163  62.1128038  63.7232800  42.5362399  61.8451232  64.9560635
  42.3679111  61.6587233  66.0167330  41.9873462  62.7366594  64.6527833
  42.0554341  60.6651193  64.1576527  42.0015821  60.9307115  63.1018774
  42.7412012  59.8277431  64.2865971  40.6829556  60.2711858  64.6477395
  40.7625231  60.0256544  65.7067401  40.0229410  61.1296153  64.5229234
  40.1207589  59.0959150  63.9029769  39.7418501  59.4307163  62.9373492
  40.9087338  58.3589507  63.7478046  39.0171436  58.4827355  64.6810649
  38.2866919  59.1653336  64.8245911  38.6450444  57.6932506  64.1727776
  39.3681324  58.1720477  65.5757040  44.2717734  63.5432368  65.3123561
  44.4163013  64.4900032  64.5406081  44.2711087  63.6628102  66.6294570
  44.0074727  62.8444815  67.1594886  44.4743396  64.9007996  67.3395791
  43.8565318  65.7025427  66.9350786  44.0606239  64.6492214  68.7873103
  43.1136532  64.1292186  68.6425939  44.8011299  63.9520824  69.1794177
  43.8684746  65.7783170  69.7638919  44.7789436  65.8526502  70.3585529
  43.5851817  67.1205589  69.0990904  42.6745403  67.0471354  68.5045822
  43.4580145  67.8860737  69.8645421  44.4201396  67.3895761  68.4521163
  42.7771332  65.4425093  70.6907491  43.0281349  64.5311378  71.2334272
  42.6367363  66.2593252  71.3987050  41.8565181  65.2878225  70.1280423
  45.9126213  65.4448981  67.1374809  46.0547522  66.6564496  67.0230099
  46.9458827  64.5730158  66.9651491  46.7572831  63.5958269  67.1372870
  48.3289468  64.9715310  66.6351778  48.6081765  65.8233713  67.2552568
  49.3347756  63.8389088  66.8765852  48.7636951  62.9356702  66.6618147
  50.1713450  63.9130238  66.1817769  49.8598695  63.7776777  68.2916899
  50.7200217  64.7612262  68.7776978  50.9936199  65.5885499  68.1228857
  51.2291723  64.7009320  70.0761708  51.8946181  65.4830574  70.4416342
  50.9003307  63.6302788  70.8961946  51.3794680  63.5937693  72.1827308
  51.9245626  64.3530657  72.4016843  50.0774299  62.6162045  70.4206512
  49.8252649  61.7673330  71.0562065  49.5728481  62.6892426  69.1202499
  48.9425347  61.8880253  68.7344313  48.4403608  65.4764605  65.2037801
  49.3276012  66.2668367  64.9414675  47.5272147  65.0673822  64.2924596
  46.8373440  64.3867247  64.5768593  47.4915755  65.5576613  62.9115867
  48.4882733  65.4770358  62.4777754  46.5069025  64.7471096  62.0401287
  45.6570500  64.4970944  62.6752211  46.1785046  65.4084681  61.2383433
  47.0815325  63.4796381  61.4447421  47.8332580  63.7428251  60.7006036
  47.5451248  62.8908322  62.2362545  45.9762453  62.6613300  60.7833533
  45.1790123  62.5310378  61.5151610  45.6012132  63.2364702  59.9367932
  46.4447672  61.3093785  60.3044408  47.1375590  61.4560466  59.4758103
  46.9607922  60.8106351  61.1248507  45.3046619  60.4699842  59.8537012
  44.8266264  60.9317529  59.0932069  45.6495914  59.5740353  59.5400147
  44.6628015  60.3336020  60.6214994  47.0575337  67.0174688  62.8895659
  47.5858371  67.8057944  62.0946248  46.0400488  67.3522660  63.7104035
  45.5820575  66.6036107  64.2102619  45.4988949  68.6989331  63.8360588
  45.3776716  69.2004548  62.8759130  44.1190405  68.6462249  64.5749828
  44.2560769  68.0784155  65.4952620  43.5673076  70.0408670  64.9112123
  43.4295602  70.6091453  63.9913286  42.6097740  69.9398843  65.4221258
  44.2707671  70.5639990  65.5589598  43.0796710  67.8418128  63.7597085
  42.4749774  68.5702158  63.2194535  43.6414059  67.2371413  63.0477213
  42.1686321  66.9380768  64.5870841  41.6061901  67.5421356  65.2990335
  41.4757850  66.4169503  63.9264108  42.7726194  66.2090621  65.1273033
  46.5498748  69.6184506  64.5413607  46.7535555  70.7519947  64.1017859
  47.2272294  69.1121069  65.5914825  47.0003763  68.1766456  65.8973406
  48.1770424  69.8913287  66.3874672  47.8534863  70.9315552  66.4240660
  48.2670327  69.3530632  67.8273508  48.5603300  68.3188334  67.6472263
  49.0573273  69.8637323  68.3775795  46.9711676  69.3812457  68.6495603
  46.1523281  69.0171276  68.0290600  47.0952719  68.5253591  69.8571874
  47.9136691  68.8891633  70.4784534  46.1654993  68.5602482  70.4249958
  47.2978490  67.4976990  69.5555625  46.5448723  70.8045398  68.9890306
  46.3770263  71.3634533  68.0684096  45.6237490  70.7793893  69.5712683
  47.3285221  71.2901632  69.5705473  49.5770186  70.0252384  65.7899909
  50.3719227  70.8325786  66.2797901  49.8821916  69.2734529  64.7349961
  49.2434328  68.5555930  64.4239274  51.1971509  69.3497088  64.1057996
  51.9663505  69.2163517  64.8664881  51.3771373  68.2676068  63.0308480
  50.5642162  67.5505745  63.1454047  51.2984700  68.7529040  62.0580180
  52.7346691  67.5287276  63.1305325  52.6888212  66.6094693  62.5466121
  53.4715366  68.2011853  62.6912956  53.1741844  67.1837704  64.5478285
  53.9899546  67.9050922  65.1740806  52.6111484  66.1058410  65.0988428
  52.8655501  65.8306882  66.0367512  51.9333946  65.5704917  64.5752474
  51.5107681  70.7493890  63.5790495  50.6371527  71.4227802  62.9998765
  52.7291870  71.2033476  63.9042170  53.3399869  70.6057500  64.4426406
  53.2174861  72.5227560  63.5170329  54.1301115  72.3803083  62.9383078
  52.4569722  72.9845815  62.8874020  53.5124527  73.4377222  64.6832818
  54.3537176  74.3329277  64.5707759  52.8145672  73.2085829  65.7926965
  52.1219066  72.4736776  65.7773749  52.9956422  73.9577744  67.0222257
  52.9365310  75.0282514  66.8255435  52.2336999  73.6800838  67.7505328
  54.3483874  73.6390989  67.5856094  54.8807974  72.5560996  67.3304131
  54.9431849  74.5735507  68.3163588  54.5939084  75.5170132  68.4057103
  56.2392067  74.2509264  68.9246074  56.8220615  73.5535546  68.3228997
  57.1022086  75.5161770  69.1943660  58.1415057  75.2072597  69.3063070
  56.9907312  76.5314491  68.0457967  55.9517165  76.8412046  67.9335427
  57.6069008  77.4024366  68.2689922  57.3344070  76.0717267  67.1191663
  56.7560244  76.1542940  70.5138633  56.9308494  75.4414794  71.3197378
  57.3797227  77.0350288  70.6668542  55.7065873  76.4488722  70.5113575
  55.8811460  73.4187917  70.1865465  54.7597007  73.5529918  70.7219686
  56.7436866  72.5210252  70.6179153  57.6418298  72.3329125  70.1959537
  56.3568351  71.7493074  71.7944970  57.2514753  71.2388933  72.1511420
  56.0205460  72.4613053  72.5481998  55.2620711  70.7227497  71.5610292
  54.7222582  70.1834365  72.5176657  54.9233178  70.4343384  70.2924591
  55.3202512  71.0166431  69.5689507  53.9671395  69.3924164  69.9005017
  53.5341632  68.9510334  70.7981719  52.8281800  69.9217510  68.9820851
  53.2660110  70.2859519  68.0526971  51.8284703  68.8194533  68.6729395
  51.3898462  68.4550420  69.6018711  51.0411567  69.2122466  68.0295489
  52.3364357  67.9994220  68.1653777  52.1076720  71.1011982  69.6437084
  52.8484611  71.8895361  69.7773332  51.3425498  71.4371544  68.9438363
  51.4571550  70.7765927  70.9952046  52.2217792  70.4409860  71.6957885
  50.9711172  71.6693015  71.3888258  50.7158690  69.9886022  70.8622918
  54.8436171  68.3141874  69.2365564  55.4698643  68.6402550  68.2277144
  54.9922421  67.0717155  69.8081029  54.4329251  66.5172647  70.9623082
  53.3735486  66.7737413  70.9687481  54.9233691  66.9796115  71.8189289
  54.6687498  65.0249242  70.8991611  53.8566549  64.5261819  70.3701460
  54.7613190  64.6048182  71.9006816  55.9915580  64.9082705  70.1322501
  56.1381389  63.9792655  69.5812849  56.8348913  65.0686698  70.8039349
  55.8733975  66.0719658  69.1610136  56.8602969  66.5282295  69.0838688
  55.4169940  65.6071886  67.7751810  54.2252699  65.6186962  67.4333240
  56.3934463  65.2171418  66.9784229  57.3434348  65.3260260  67.3036390
  56.1810374  64.7257090  65.6372349  55.3367656  65.2392902  65.1773016
  57.4424670  64.9851872  64.7821400  57.6331997  66.0565856  64.7202869
  58.3002285  64.4896241  65.2368514  57.3553869  64.4867717  63.3826772
  56.6119747  65.1553152  62.4198056  56.7536819  64.4483008  61.3070915
  56.2417552  64.8074256  60.4143096  57.5329173  63.3809807  61.5007486
  57.8031246  62.6809537  60.8246939  57.9197735  63.3940252  62.8198976
  58.5650008  62.6051305  63.2064568  55.7939932  63.2313593  65.6998825
  56.3734066  62.4517119  66.4738909  54.7953290  62.8574989  64.8861035
  54.3027168  63.5853493  64.3884426  54.3159879  61.4866181  64.7583155
  54.7064914  60.8119999  65.5202187  52.7593837  61.4296271  64.7633728
  52.3970766  62.1116376  63.9941553  52.2181993  60.0192056  64.4922183
  52.5797292  59.3366765  65.2613417  51.1284747  60.0384803  64.5073708
  52.5615105  59.6793833  63.5151015  52.1830802  62.0276579  66.0656302
  52.4849177  63.0748779  66.0475994  51.1016279  61.9596937  65.9475575
  52.5986739  61.3897990  67.4295099  53.6800215  61.4578110  67.5485120
  52.1096971  61.9232033  68.2446668  52.2967334  60.3426254  67.4484690
  54.9277328  60.8731666  63.5107217  54.7906470  61.4395668  62.4236686
  55.6099543  59.7237318  63.6713413  55.6788279  59.3391754  64.6027231
  56.2565415  59.0048206  62.5752904  56.6642438  59.7248454  61.8657537
  57.4060224  58.1051485  63.0811885  56.9236262  57.3077388  63.6464590
  57.8646717  57.6880805  62.1846423  58.4631844  58.7508063  63.9297265
  57.9547447  59.2877479  64.7305283  59.0703389  57.9525407  64.3566193
  59.3516146  59.7064083  63.1680452  59.6751533  59.2447088  62.2351705
  58.8041572  60.6230154  62.9484517  60.5355099  60.0453638  63.9587354
  61.4033219  59.5837572  63.7265262  60.5336586  60.9306528  64.9495295
  59.4192687  61.5676209  65.2824212  58.5639854  61.3791462  64.7793628
  59.4309020  62.2383142  66.0374939  61.6515822  61.1747582  65.6260392
  62.5014594  60.6854143  65.3844789  61.6459701  61.8484505  66.3785057
  55.2933116  58.1167480  61.8381742  55.4044799  58.0062111  60.6222181
  54.4428281  57.3747160  62.5760463  54.4200767  57.5241949  63.5746643
  53.5476305  56.3677400  62.0046395  53.0483528  56.7590020  61.1182225
  54.3798738  55.1253147  61.5965630  55.2283665  55.3670711  60.9564746
  54.7421075  54.7228703  62.5425680  53.6312331  54.0160881  60.9165289
  53.2646217  53.9628282  59.6025633  53.5013224  54.8317434  58.9885122
  52.6469453  52.7636715  59.3328875  52.2890092  52.4810718  58.4317112
  52.6178775  52.0034102  60.4771496  52.1027954  50.7201307  60.7030812
  51.6172059  50.2022942  59.8759495  52.2445171  50.1892076  61.9697195
  51.8638099  49.1895331  62.1790346  52.8666724  50.9048815  62.9944618
  52.9647058  50.4806848  63.9937346  53.3788012  52.1766192  62.7728967
  53.8309903  52.7002515  63.6151763  53.2589155  52.7463414  61.4902954
  52.4882263  55.9324635  63.0073648  52.7666353  55.7565588  64.1966431
  51.2726959  55.7409937  62.5065662  51.0837628  56.0897435  61.5777082
  50.1805727  55.1554886  63.2551915  50.5993237  54.7352543  64.1696038
  49.0441705  56.1365307  63.6364517  49.5336019  56.8162204  64.3340031
  48.6463298  56.7043490  62.7953779  47.9113051  55.4187997  64.3419212
  48.0026634  55.0929415  65.6921653  48.8544266  55.4628527  66.2629232
  47.0342799  54.3117438  66.3150172  47.1255142  54.0563682  67.3707452
  45.9452289  53.8665460  65.5872803  44.9747143  53.1174940  66.1883122
  45.1467463  52.9577785  67.1191696  45.8356563  54.1682239  64.2446220
  44.9858130  53.8039967  63.6673825  46.8143785  54.9396180  63.6291864
  46.7321574  55.1802662  62.5692674  49.6661115  53.9825465  62.4423780
  49.4412614  54.1056276  61.2284804  49.4982718  52.8542912  63.1086541
  49.7199436  52.7936260  64.0921583  48.9904561  51.6708090  62.4446954
  48.0268853  51.9088887  61.9941972  49.6934389  51.3787227  61.6645671
  48.8149306  50.5288777  63.3939112  48.7968913  50.7231389  64.6028509
  48.6885082  49.3379894  62.8389404  48.7036090  49.2908286  61.8301554
  48.4991237  48.0990692  63.5867707  48.4620309  48.3231523  64.6528430
  47.1827952  47.3907774  63.1840575  47.2099776  47.2791727  62.1001272
  47.2053616  46.4060508  63.6508598  45.8963542  48.1192132  63.5903661
  45.0665660  47.4236399  63.4649462  45.9776999  48.4014500  64.6400457
  45.6123332  49.3628529  62.7757444  45.6347690  49.3511752  61.5403107
  45.3461266  50.4683871  63.4553708  45.1494544  51.3266597  62.9606086
  45.3410665  50.4478835  64.4651507  49.6705296  47.1791365  63.3355197
  50.2406941  47.1862120  62.2414030  50.0346634  46.3993252  64.3560229
  49.5554199  46.5721021  65.2281313  51.0750996  45.3843686  64.3306887
  51.1090021  44.9364596  63.3375486  52.4680948  45.9692613  64.6564939
  52.6912972  46.7016853  63.8807136  52.3802137  46.4747323  65.6181986
  53.5951379  44.9395450  64.7237793  54.4621526  45.4323157  65.1637377
  53.1761496  44.2338044  65.4410507  54.0203312  44.1920387  63.4649247
  53.7611927  44.6911928  62.3438407  54.6968175  43.1463373  63.6114197
  50.6325522  44.3342814  65.3397787  50.5489111  44.6284279  66.5363760
  50.3063375  43.1202235  64.8392067  50.3364647  43.0400617  63.8328441
  49.7967633  41.9812450  65.6133462  49.6033260  41.1548072  64.9294735
  50.7948999  41.4977501  66.7095201  50.8375708  42.2899899  67.4569386
  50.3551844  40.6042158  67.1526303  52.2124886  41.1804113  66.2203286
  52.5477126  42.0506525  65.6560538  52.8295848  41.0661307  67.1115268
  52.3384494  39.9276894  65.3485593  52.1403831  39.0657574  65.9856951
  51.5731822  39.9904855  64.5749171  53.7077293  39.7734489  64.6969419
  53.6978546  38.8341047  64.1440988  53.8287533  40.6031052  64.0004343
  54.8469531  39.7681221  65.6693466  54.7352270  38.9991594  66.3145702
  55.7172482  39.6629865  65.1677164  54.8565397  40.6386280  66.1814272
  48.4052036  42.3609785  66.1689560  47.5814268  42.8755652  65.4004572
  48.1533515  42.1674990  67.4807876  48.8223710  41.6588796  68.0409827
  46.8705759  42.5307425  68.0897464  46.1301599  42.7058602  67.3092227
  46.3600018  41.3958213  69.0101991  46.4090766  40.4845986  68.4140748
  47.0440014  41.3140360  69.8549214  44.9356159  41.5902946  69.5259207
  43.9850206  41.5377422  68.6998694  44.7728682  41.8214624  70.7510283
  46.9451376  43.9117578  68.7961508  46.2189677  44.1716093  69.7553925
  47.8019771  44.8114527  68.2777850  48.3307457  44.5447278  67.4596402
  48.0002312  46.1511536  68.8237547  47.2989256  46.3232546  69.6402417
  49.4260246  46.3096262  69.3614542  50.0525877  46.0451021  68.5096650
  49.6019502  47.3508097  69.6318005  49.7673615  45.4243517  70.5286299
  49.5431087  45.8451016  71.8330831  49.0878699  46.8217218  71.9976134
  49.8876450  45.0462772  72.9190114  49.6978569  45.3912668  73.9354092
  50.4765543  43.8115670  72.7056913  50.8099665  43.0018574  73.7731868
  50.5899616  43.3914315  74.6225569  50.7296914  43.3839341  71.4117416
  51.1941918  42.4137291  71.2355539  50.3887422  44.1978001  70.3357069
  50.6090219  43.8761489  69.3178084  47.8064068  47.2479970  67.8138039
  48.0251339  47.0503734  66.6220144  47.4474509  48.4283726  68.3264502
  47.2063977  48.3876561  69.3064170  47.3943846  49.7144649  67.6581835
  47.3334215  49.5572818  66.5813009  46.1765955  50.5332824  68.1036337
  46.1468746  50.5313188  69.1932263  46.2858456  51.5569575  67.7455084
  44.8765256  49.9788002  67.5860107  44.7530999  49.6087686  66.4048999
  43.8720164  49.9202701  68.4580661  42.9754836  49.5571713  68.1673981
  44.0112082  50.2392398  69.4062142  48.6979939  50.3621903  68.1262568
  49.0737349  50.2228276  69.3006974  49.4247420  50.9979905  67.1917675
  49.0249827  51.0739235  66.2673617  50.7633063  51.5437830  67.4154234
  51.0725646  51.5555004  68.4605651  51.8123963  50.7227327  66.5923270
  51.6152234  50.8732509  65.5309287  53.2293809  51.1615366  66.9102840
  53.4274618  51.0108753  67.9714938  53.9332840  50.5722799  66.3225787
  53.3469382  52.2171833  66.6655554  51.6619356  49.2160154  66.7811540
  50.6682765  48.9061882  66.4575022  52.4149139  48.6979042  66.1872819
  51.7949844  48.9661525  67.8337543  50.8554807  53.0067089  67.0386734
  50.5131152  53.3749843  65.9175061  51.3984499  53.8216515  67.9463589
  51.5677158  53.4758736  68.8801073  51.6739550  55.2238009  67.6692233
  51.4552728  55.4121283  66.6181238  50.8317931  56.2149013  68.5408247
  49.7997577  55.8864338  68.4178960  51.1461144  56.0458464  69.5707386
  50.9358092  57.7294829  68.2099165  51.9906538  57.9970616  68.1482284
  50.2559325  58.0605899  66.9037580  49.2008794  57.7936997  66.9648436
  50.3491848  59.1283358  66.7054566  50.7260274  57.4991989  66.0963230
  50.3030394  58.5812151  69.2887434  50.8086969  58.4015720  70.2374996
  50.3953854  59.6340422  69.0220441  49.2485798  58.3224380  69.3849119
  53.1766515  55.4177611  67.8587511  53.6918454  55.2620388  68.9718220
  53.8840868  55.6908924  66.7442859  53.3996606  55.6319984  65.8599998
  55.3235982  55.9504221  66.7304881  55.7762547  55.6694668  67.6814169
  56.0851389  55.2263833  65.5845835  55.7732288  55.6519119  64.6307823
  57.5962909  55.3937733  65.7471572  57.9090396  54.9680373  66.7005921
  58.1088926  54.8791603  64.9344374  57.8497075  56.4536194  65.7225002
  55.7063956  53.7413512  65.5231171  54.6353562  53.6461028  65.3444994
  56.2536103  53.2595260  64.7128700  55.9606798  53.2615799  66.4682414
  55.5109305  57.4667984  66.6990815  54.9394513  58.1561186  65.8478717
  56.2838607  57.9841147  67.6548659  56.6960568  57.3593771  68.3330227
  56.5175700  59.4106170  67.8010989  56.4455773  59.9061359  66.8329164
  55.4567567  60.0136013  68.7431733  55.7462368  61.0480420  68.9281948
  54.5071631  59.9926788  68.2084452  55.3046106  59.2701352  70.0952350
  54.9611592  58.2564760  69.8887477  56.2832965  59.2312410  70.5735269
  54.1246346  60.0849404  71.2136191  55.1404064  61.4333673  71.8603791
  55.4696564  62.0678488  71.0375020  54.5543269  62.0256155  72.5631263
  56.0105423  61.0207915  72.3710119  57.9105194  59.7315820  68.3230983
  58.6773883  58.8239340  68.6553950  58.1920040  61.0432941  68.4622815
  57.4526015  61.6786802  68.1983348  59.4312481  61.6067014  69.0067850
  60.2583524  61.3946180  68.3292761  59.3106892  63.1518374  69.1775166
  58.3075105  63.2096950  69.5998720  60.0350755  63.4993341  69.9141377
  59.3893869  64.0278197  67.9375700  60.0047641  63.5844025  66.9277452
  58.9463577  65.2258086  68.0173740  59.6962404  61.0521293  70.3900171
  58.7851223  61.0258841  71.2133919  60.9407398  60.6436131  70.6559996
  61.6269555  60.6258766  69.9151267  61.3606694  60.2527693  71.9969292
  60.5695912  59.6679326  72.4662485  62.6284648  59.4145141  71.9610380
  62.4260844  58.5755759  71.2952121  63.4021424  60.0459504  71.5242188
  63.0963706  58.8972038  73.2882374  63.1042128  59.7179250  74.0054934
  62.1816829  57.8070464  73.7829891  62.1736781  56.9857190  73.0664307
  62.5369394  57.4437699  74.7473146  61.1717320  58.2018235  73.8936725
  64.4536137  58.3493463  73.1639138  65.1322974  59.1320481  72.8249952
  64.7853951  57.9758909  74.1327034  64.4517152  57.5329879  72.4416574
  61.6481056  61.5766821  72.7343939  62.4434548  62.4023087  72.2596608
  60.9498695  61.8048432  73.8470155  60.2529287  61.1357802  74.1415110
  61.1257449  63.0170652  74.6425175  61.7610089  63.7230098  74.1075585
  59.7549404  63.6883408  74.9093826  59.2358347  62.9319617  75.4980413
  59.9220103  64.5738177  75.5226674  58.9020584  64.0630082  73.6943321
  58.8252005  63.1963296  73.0377790  57.5434015  64.4868809  74.1145049
  57.6194229  65.3538601  74.7707570  56.9554471  64.7482631  73.2346812
  57.0559581  63.6703039  74.6471410  59.5606352  65.1480102  72.8402816
  60.5256356  64.7916290  72.4799122  58.9194407  65.3810830  71.9901946
  59.7067342  66.0454833  73.4413606  61.8168617  62.6437110  75.9460627
  61.8781290  61.4605210  76.2989489  62.3181302  63.6487362  76.6478001
  62.2166189  64.5743748  76.2566633  62.9960940  63.5113462  77.9269760
  63.7070160  62.6894555  77.8422132  63.5350366  64.4386559  78.1212359
  62.0633254  63.2360663  79.0777908  60.9590545  62.7141468  78.8778333
  62.5179649  63.5254347  80.3207787  63.8881699  63.5390784  80.7321194
  64.2011320  64.5754580  80.8588963  64.4885746  63.0716572  79.9516512
  63.9196723  62.7603291  82.0278756  64.7663483  63.0654746  82.6427943
  63.9791470  61.6892967  81.8343461  62.5857257  63.1233910  82.6917479
  62.5925866  64.0752201  83.2228536  62.2411258  62.3362097  83.3623419
  61.6688728  63.2129211  81.4829030  61.2465341  62.2205550  81.3249863
  60.5432175  64.2150971  81.6911780  60.6166177  65.3536079  81.2132581
  59.5021161  63.7841736  82.4175484  59.4650371  62.8262509  82.7355240
  58.3971677  64.6592750  82.7457121  58.1351749  65.2672354  81.8797773
  57.1818570  63.8428623  83.1512972  56.2967894  64.4748470  83.0781539
  57.0834900  63.0001508  82.4670011  57.3091920  63.3631378  84.4727692
  56.5303057  62.8517981  84.7040001  58.8080833  65.6007468  83.8987591
  59.8338145  65.3704787  84.5552605  57.9631691  66.6155133  84.1662195
  57.1858716  66.7567088  83.5369566  58.1617897  67.5740160  85.2435976
  59.1770323  67.9667955  85.1878665  57.1775240  68.7463271  85.1574087
  56.2192726  68.2350060  85.0657345  57.1999922  69.3104784  86.0897866
  57.3585296  69.7001968  83.9822974  57.2289280  69.1460069  83.0526858
  56.3352747  70.8286836  84.0477274  56.4645656  71.3836519  84.9769168
  56.4793085  71.4999819  83.2011380  55.3294054  70.4102955  84.0119694
  58.7893286  70.2414399  83.9059166  59.4860556  69.4120793  83.7841300
  58.8777143  70.9174184  83.0554213  59.0238911  70.7805443  84.8237651
  58.0863243  66.9042991  86.5942064  58.7978751  67.3240697  87.4911062
  57.2984072  65.8089478  86.7171379  56.7109857  65.5651143  85.9325485
  57.1959241  65.0133766  87.9270460  57.0816755  65.6687984  88.7904513
  55.9909755  64.0864125  87.8573417  55.1234454  64.7093039  87.6394033
  56.1643438  63.4023308  87.0266338  55.7330710  63.2805980  89.1379623
  54.9394711  62.5703494  88.9059127  56.6750285  62.7455313  89.2584563
  55.3964255  64.0133240  90.4311508  54.9976121  65.1990010  90.3839612
  55.4755190  63.3652311  91.4984754  58.5033792  64.2277363  88.1440792
  58.9531852  64.1029271  89.2831847  59.1288339  63.7325567  87.0608167
  58.6905749  63.8498743  86.1584504  60.4069699  63.0109360  87.1258536
  60.3286775  62.2098460  87.8608532  60.7856382  62.3947476  85.7637662
  60.7856117  63.2480653  85.0855714  61.7950142  61.9900154  85.8376031
  59.8505597  61.3260958  85.2311485  59.1448450  60.6824010  86.0538780
  59.8628872  61.0870114  83.9955957  61.5004490  63.9708055  87.5632627
  62.3116695  63.6275333  88.4229519  61.4923421  65.1867396  86.9957703
  60.8392286  65.3584655  86.2447361  62.4726764  66.2185621  87.3082073
  63.4626070  65.7669459  87.3728555  62.5017294  67.3090324  86.2345144
  61.4695962  67.6547715  86.1773753  63.1408076  68.1277107  86.5653390
  62.9550491  66.8351748  84.8594216  62.5415647  65.8426103  84.6806835
  62.4969909  67.7641264  83.7878360  62.9104764  68.7568552  83.9656503
  62.8366567  67.3978088  82.8190536  61.4083452  67.8181033  83.7939484
  64.4380160  66.6721847  84.7999872  64.7531381  65.9364418  85.5399061
  64.7272189  66.3331662  83.8052363  64.9178477  67.6277883  85.0113691
  62.2686438  66.7799254  88.7067033  63.2567304  67.0860300  89.3779751
  60.9898343  66.8581487  89.1594929  60.2503853  66.6666025  88.4987173
  60.6182968  67.3135727  90.5116319  61.1039330  68.2677196  90.7162304
  59.0907564  67.4979668  90.6478782  58.6550845  68.0139878  89.7923015
  58.7183798  66.4741227  90.6822136  58.5625250  68.1946541  91.8909665
  58.8509539  69.5339436  92.1349936  59.5094176  70.0713324  91.4525430
  58.3062851  70.1895966  93.2406373  58.5773730  71.2244222  93.4497976
  57.4227509  69.5255533  94.0702341  56.9851339  70.0429730  94.9239718
  57.0956785  68.2143868  93.8199004  56.3818657  67.6996270  94.4630131
  57.6735774  67.5453128  92.7488925  57.4349464  66.4972182  92.5681912
  61.2047011  66.3318732  91.5319736  61.8973430  66.7733448  92.4471085
  61.0358960  65.0065352  91.2891630  60.4156730  64.7750528  90.5263795
  61.6040898  63.9038386  92.0879778  61.2909170  64.0059431  93.1270143
  61.1265160  62.5485742  91.5645549  61.2535818  62.5922912  90.4828699
  61.7371643  61.7414725  91.9692717  59.6698857  62.2544206  91.8700788
  59.1045535  62.6768948  92.9025947  59.0452679  61.4608849  91.0063504
  58.0738752  61.2259967  91.1523764  59.5447928  61.0962974  90.2078195
  63.1426207  63.9634897  92.1313176  63.7187040  63.9306678  93.2119391
  63.7846649  64.1218602  90.9695242  63.1965800  64.0938370  90.1488719
  65.2277711  64.2862568  90.7841054  65.7581156  63.3911012  91.1089597
  65.5233771  64.5187505  89.2845972  65.1667516  63.6704122  88.7004400
  65.0110279  65.4242117  88.9594228  66.9775836  64.6989289  88.9388514
  67.8296536  63.6042959  88.8549097  67.4292986  62.6018343  89.0061922
  69.1888443  63.7798750  88.5793126  69.8531101  62.9162391  88.5479346
  69.6902594  65.0454282  88.3469787  70.7502956  65.1829008  88.1336142
  68.8499877  66.1330614  88.3851295  69.2409830  67.1300255  88.1819415
  67.4962586  65.9612378  88.6839660  66.8320759  66.8247815  88.7193707
  65.7593143  65.4576235  91.6269808  66.8366114  65.3531530  92.2123072
  64.9778776  66.5555991  91.7100481  64.1661861  66.5516000  91.1090155
  65.2661872  67.7705136  92.4822199  66.3435018  67.8851995  92.6019681
  64.7246684  68.9947649  91.7673925  63.6532647  68.8986337  91.5914599
  64.9177518  69.8983235  92.3456663  65.4735780  69.2660159  90.1522485
  64.7805738  70.3629714  89.8601320  64.7801142  67.7085320  93.9287099
  64.6608746  68.7529740  94.5849605  64.5253939  66.4877995  94.4282774
  64.5634808  65.7242971  93.7681920  64.0612608  66.2076572  95.7861021
  63.7619601  65.1618547  95.8554942  65.1579281  66.4723257  96.8209208
  65.3105212  67.5488674  96.8975528  64.8277180  66.0832204  97.7840710
  66.3759906  65.8477863  96.4517591  67.0436129  66.0302591  97.1170289
  62.7490271  66.9323434  96.1371144  62.6481248  67.4803148  97.2413268
  61.7333013  66.8985377  95.2038877  61.9798141  66.5194394  94.3007734
  60.3799467  67.4519101  95.3832064  59.8158533  67.4400576  94.4505986
  59.6571288  66.5496595  96.4091436  59.7462088  65.5514357  95.9805256
  60.2833435  66.6198221  97.2985436  58.1939788  66.8131531  96.7918369
  58.1597602  67.4850854  97.6494130  57.6770115  67.2731333  95.9496582
  57.5051183  65.4858312  97.1529918  58.0783738  64.9568719  97.9143586
  56.4963161  65.6711447  97.5218773  57.4206320  64.6437453  95.9610428
  58.1702992  63.9881236  95.7929399  56.4231256  64.7065564  95.0825357
  55.3654054  65.4821697  95.3173099  55.3204045  66.0258227  96.1673195
  54.6135130  65.5228671  94.6441820  56.4644594  63.9844861  93.9732098
  57.2567038  63.3841156  93.7943129  55.7035504  64.0374790  93.3111615
  60.4477924  68.9617751  95.7926484  59.7029975  69.4475119  96.6380922
  61.3675489  69.6872596  95.1790399  61.9868907  69.2125665  94.5378056
  61.6106093  71.0916850  95.4587464  60.6769675  71.5987262  95.7023061
  62.5774607  71.2117664  96.6804030  61.9264723  71.2191687  97.5546218
  63.1600177  70.2905653  96.6696382  63.5364134  72.4285889  96.7402517
  64.2423230  72.2285736  97.5463450  64.0686671  72.4518470  95.7893222
  62.8565182  73.7867896  96.9800424  62.0648767  73.9136804  96.2415971
  62.4230526  73.7860372  97.9801456  63.7881051  74.9190882  96.8712499
  64.7734552  74.6998216  96.8379834  63.4198853  76.1986942  96.8296612
  62.1329394  76.5300677  96.8644415  61.4299081  75.8072633  96.9227578
  61.8641257  77.5031101  96.8323879  64.3343043  77.1547342  96.7371215
  65.3135747  76.9105914  96.6980847  64.0472326  78.1225806  96.7061092
  62.1221059  71.8056088  94.1882846  63.1128318  71.3653442  93.5897522
  61.3850663  72.8638530  93.7545876  60.5086287  73.0208157  94.2313676
  61.7435313  73.7581080  92.6381129  62.7263443  73.4556013  92.2766333
  60.7555820  73.7441936  91.4515054  59.7653182  73.8277012  91.8992814
  60.9453312  74.6160017  90.8253697  60.7129020  72.5514026  90.5290451
  61.7910968  71.6733708  90.4427607  62.6669706  71.8353262  91.0710245
  61.7554619  70.5909908  89.5588073  62.6020454  69.9067455  89.5021911
  60.6474606  70.3879513  88.7566309  60.6251169  69.5466192  88.0639831
  59.5744577  71.2458028  88.8317888  58.6970134  71.0771427  88.2074928
  59.6094418  72.3297034  89.7055804  58.7665627  73.0192242  89.7526511
  61.8543126  75.2002833  93.1406605  61.0092449  75.6517062  93.9423213
  62.8780934  75.9350160  92.6225422  63.5456928  75.4671921  92.0262610
  63.1147565  77.3330196  92.9613320  62.8778259  77.5756702  93.9972295
  64.5612483  77.7843325  92.6674762  64.6308092  78.8494946  92.8881373
  65.5682206  77.0440250  93.4750965  65.4995734  75.9787668  93.2546150
  66.5675635  77.4020765  93.2276858  65.3761810  77.2081828  94.5354142
  64.8729939  77.7221615  91.2652368  65.7781686  78.0098518  91.1256180
  62.1055320  78.1687025  92.2357329  61.5462147  77.7178424  91.2311417
  61.8664637  79.3919522  92.7339301  62.2580290  79.6546753  93.6271000
  60.9416739  80.3073712  92.0923009  59.9638839  79.8364847  91.9908526
  60.7880331  81.5743423  92.9257586  60.5693847  81.2622390  93.9469753
  61.7467742  82.0923730  92.9020992  59.6917644  82.5127827  92.4360306
  59.5846190  83.2924352  93.1901942  60.0480538  82.9546394  91.5054810
  58.0888429  81.7413224  92.1497783  57.6842258  81.2204026  93.8838263
  57.6481471  82.0985769  94.5285024  56.7156424  80.7206286  93.8969688
  58.4508322  80.5355154  94.2462424  61.3606085  80.5810374  90.6302210
  60.4842110  80.6535355  89.7593808  62.6958916  80.5943046  90.3418065
  63.3367683  80.5681525  91.1219940  63.2496445  80.7661537  88.9898869
  62.8216965  81.6612627  88.5385117  64.7877643  80.9135777  89.0164713
  65.0364264  81.7297548  89.6947938  65.2089264  79.9835052  89.3981616
  65.3673223  81.2050379  87.6376949  64.9177942  80.5009985  86.9374421
  65.0770759  82.2204457  87.3678690  66.8429285  81.0822398  87.5821874
  67.2965319  81.8633315  88.1923011  67.1415963  80.1053952  87.9625445
  67.3088605  81.2292439  86.1432148  67.1664505  80.2735763  85.6387157
  66.6940352  81.9892286  85.6610196  68.7425431  81.6250892  86.0607362
  69.3124631  80.9207899  86.5071143  69.0125499  81.7120402  85.0913881
  68.8746400  82.5108165  86.5277872  62.8090901  79.6365284  88.0296373
  62.4118171  79.9292548  86.9029450  62.8780545  78.3622315  88.4707408
  63.3766269  78.1901990  89.3320942  62.4343631  77.2081623  87.6817063
  62.8474246  77.3245973  86.6797471  62.9414638  75.8777433  88.2719472
  62.7198479  75.8815086  89.3391737  62.2936749  74.6510496  87.6203277
  62.5152586  74.6463487  86.5530985  62.6902183  73.7443470  88.0772115
  61.2141923  74.6888053  87.7665893  64.3400319  75.8010727  88.0068607
  64.6887101  74.9805974  88.3630126  60.9161779  77.2718132  87.4590939
  60.4695544  77.2538094  86.3239022  60.1454850  77.4262979  88.5120934
  60.5682908  77.3549928  89.4265605  58.6809368  77.5263832  88.4271022
  58.2333712  76.6748470  87.9145884  58.0216694  77.6614145  89.8452796
  58.4952588  78.4971249  90.3604500  56.5086267  77.9033248  89.7622779
  56.0342539  77.0677510  89.2476054  56.0982630  77.9898897  90.7683637
  56.3170785  78.8244148  89.2118197  58.3246159  76.4425615  90.6937899
  59.4032478  76.3423377  90.8146644  57.8587955  76.5557973  91.6727121
  57.9299776  75.5517748  90.2050565  58.2578077  78.6339862  87.4427957
  57.3765970  78.3974272  86.5913601  58.9030583  79.8153737  87.5286512
  59.5358854  80.0008576  88.2936512  58.5664248  80.9211514  86.6179462
  57.4831522  80.9784492  86.5114722  59.0769447  82.2620687  87.1380964
  60.1087048  81.9724238  87.3372847  59.0623800  83.0807809  86.4186534
  58.4045885  82.7229997  88.4600392  58.3865988  81.8757332  89.1455439
  59.1531072  83.8903455  89.1110880  59.1711117  84.7382010  88.4263138
  58.6468325  84.1786875  90.0323077  60.1747193  83.5859148  89.3385327
  56.9089764  82.9306972  88.2933556  56.4440640  81.9949891  87.9828622
  56.4784323  83.2526171  89.2415647  56.7297860  83.6937227  87.5358716
  58.9828967  80.6820719  85.1617642  58.1908461  81.0145765  84.2758152
  60.1797245  80.0825357  84.8997516  60.8015315  79.8756213  85.6682839
  60.6185366  79.7372317  83.5303583  60.5561648  80.6265386  82.9031882
  62.0653651  79.2146209  83.4999232  62.1730391  78.5194737  84.3325552
  62.1928368  78.6775059  82.5600517  63.1165742  80.2974090  83.6082027
  62.8227513  81.0921024  82.9224685  63.0813551  80.6700967  84.6319046
  64.8035047  79.7746186  83.2239429  65.0884678  78.5570263  84.5012725
  64.3550579  77.7558150  84.4103369  66.0916432  78.1445677  84.3934876
  64.9927127  79.0271833  85.4799883  59.7100111  78.6636287  82.9268081
  59.4583511  78.6643533  81.7270216  59.2389154  77.7417421  83.7587185
  59.5764827  77.7480331  84.7106156  58.3526743  76.6686820  83.3505375
  58.7170802  76.2457151  82.4143716  58.2751794  75.5350787  84.4107427
  58.1983926  76.0958889  85.3422442  57.3600467  74.9638818  84.2546455
  59.4712002  74.5740387  84.4891025  60.3745429  75.1626453  84.6491499
  59.3131591  73.5658898  85.6249022  58.4102139  72.9765560  85.4652949
  60.1790593  72.9042101  85.6472080  59.2372217  74.0961918  86.5741723
  59.6997376  73.8696967  83.1797278  59.8995376  74.6055133  82.4007841
  60.5532980  73.1981104  83.2719649  58.8122128  73.2943675  82.9162983
  56.9929172  77.2114876  83.0237601  56.4300475  76.8418221  81.9831299
  56.4667720  78.1025624  83.8964673  57.0083759  78.2797445  84.7303564
  55.1474177  78.7307603  83.7780712  54.4227480  77.9208437  83.8616666
  54.9102825  79.7155133  84.9159211  55.6225913  80.5371095  84.8404503
  53.8954641  80.1081076  84.8517844  55.0428776  79.2069324  85.8708364
  54.9243676  79.3931315  82.4266856  53.8446293  79.2618874  81.8558414
  55.9608049  80.0306901  81.8927240  56.8054185  80.0469392  82.4463151
  55.9545192  80.7423186  80.6207357  55.1722888  81.5013277  80.6097817
  57.3144598  81.4353412  80.4315716  57.6424994  81.9384930  81.3411471
  57.9803348  80.5988772  80.2193488  57.3473019  82.4152959  79.2712302
  56.6257728  83.4547694  79.3393450  58.1716682  82.2085349  78.3478894
  55.6552625  79.8096567  79.4668747  54.7612264  80.0824445  78.6722048
  56.3993649  78.6790213  79.4041418  57.1750546  78.6214256  80.0484147
  56.2389188  77.6132556  78.4146463  56.1427522  78.0458222  77.4187862
  57.4440710  76.6881224  78.4278270  57.6367588  76.4091720  79.4637600
  57.1851582  75.7979531  77.8545357  58.6900597  77.3276106  77.8352698
  58.4064640  77.8539178  76.9238560  59.1273605  78.0339122  78.5409667
  59.7252303  76.2894948  77.4893471  59.5163757  75.4422214  76.6063021
  60.8550145  76.3232976  78.2022181  61.5863438  75.6520626  78.0159321
  60.9724223  77.0199273  78.9240379  54.9334354  76.8224086  78.5655114
  54.3471538  76.4998057  77.5610751  54.4736833  76.5439985  79.7875133
  55.0879736  76.7720415  80.5561114  53.2238897  75.8377571  80.0828795
  53.1662043  74.9262030  79.4880343  53.1566525  75.4587205  81.5693533
  53.3623967  76.3639521  82.1406013  52.1379119  75.1269134  81.7697821
  54.1438928  74.3575988  81.9826770  53.9145709  73.4911270  81.3624037
  55.1385069  74.7282483  81.7347583  54.1082451  73.8653332  83.7353675
  54.9637704  75.0215750  84.3316505  54.4814630  75.9763803  84.1223054
  55.0535119  74.8891152  85.4098441  55.9560983  75.0098034  83.8808201
  51.9542875  76.6033159  79.6480553  50.9961452  75.9743551  79.2030781
  51.9418828  77.9455290  79.7581735  52.7212469  78.3784792  80.2327734
  50.8266515  78.8060834  79.3144910  49.8647738  78.3846638  79.6065460
  50.9367392  80.2832754  79.8502703  51.9409703  80.6514237  79.6403012
  49.9052837  81.2048019  79.1860770  48.9007223  80.8375317  79.3960048
  50.0121789  82.2150356  79.5811745  50.0691663  81.2174157  78.1085416
  50.8072439  80.3296472  81.3921849  49.7427769  80.2171308  81.5979777
  51.3417453  79.4518263  81.7552803  51.3194687  81.5417578  82.0825817
  50.7850828  82.4199927  81.7203182  51.1655279  81.4409480  83.1569368
  52.3840514  81.6546894  81.8776187  50.7966488  78.7338665  77.7860093
  49.7313429  78.4648510  77.2173414  51.9678571  78.9225437  77.1375742
  52.7647139  79.2195824  77.6824472  52.1087576  78.8549436  75.6810076
  51.3994694  79.5425138  75.2202943  53.5112365  79.2318051  75.2331881
  54.2445695  78.6012652  75.7359221  53.6038080  79.1065135  74.1543774
  53.7435479  80.5907502  75.5732021  54.6272127  80.8434191  75.2959031
  51.6861444  77.5170298  75.0970265  50.9684084  77.5121618  74.0902966
  52.1005878  76.3846410  75.7310015  52.7522076  76.4908684  76.4953356
  51.7391032  75.0279537  75.3093591  52.0185523  74.8929262  74.2644788
  52.4523802  73.9558468  76.1515805  52.2161880  74.2035860  77.1864417
  51.9691484  73.0161431  75.8841033  53.9919357  73.8101292  75.9924045
  54.4173279  74.7225325  76.4103309  54.2718003  72.9607641  76.6155874
  54.5208036  73.6034982  74.5938094  55.4145918  72.9797986  74.6093184
  53.7644246  73.1379304  73.9619575  54.8648369  74.8936685  74.0319957
  54.1497249  75.3511825  73.4848255  56.0359627  75.4983870  74.1747191
  57.0351398  74.8855087  74.8020423  56.9005246  73.9550831  75.1712130
  57.9242326  75.3531502  74.9065653  56.2183097  76.7191716  73.7062659
  55.4612056  77.1948538  73.2365639  57.1140679  77.1717587  73.8197597
  50.2081060  74.8193971  75.3328055  49.6578484  74.3722500  74.3285834
  49.5159864  75.1836774  76.4431637  50.0680830  75.4441412  77.2478048
  48.0309421  75.1119245  76.5959278  47.6529174  74.1398365  76.2793187
  47.5762596  75.3943031  78.0667436  47.9295794  76.3857401  78.3501480
  46.0512690  75.3344784  78.2130262  45.6972322  74.3431255  77.9302223
  45.7768907  75.5359940  79.2485013  45.5939470  76.0817214  77.5645019
  48.2379165  74.4190610  79.0606969  47.7593709  73.4533297  78.8980378
  49.2864472  74.3580819  78.7692106  48.1406525  74.7957050  80.5529385
  47.0923487  74.8564232  80.8452950  48.6413380  74.0361169  81.1533043
  48.6194234  75.7611772  80.7164674  47.3604024  76.0625486  75.5691409
  46.4349970  75.6663234  74.8511427  47.8878913  77.2997379  75.4590185
  48.6318726  77.5570124  76.0917909  47.4051401  78.2968726  74.5243903
  46.3917383  78.5993613  74.7882394  48.2994725  79.5146235  74.5679494
  48.3794597  79.8674275  75.5961666  49.2895708  79.2490634  74.1974321
  47.7195168  80.6012427  73.7102094  47.6487844  80.1432252  72.7236407
  46.7181190  80.8170948  74.0826466  48.5023143  81.8766528  73.6138600
  49.5143766  82.0187131  74.3390543  48.0625716  82.7563609  72.8374161
  47.3108477  77.7767225  73.0871044  46.2899572  78.0005335  72.4092517
  48.3696649  77.0727606  72.6247387  49.2035916  76.9986596  73.1896941
  48.4019442  76.5347057  71.2735981  48.1677020  77.3257169  70.5611860
  49.7732635  75.9731391  70.9416356  50.4026608  76.8622144  70.9028607
  50.1616988  75.2861380  71.6934652  49.7758696  75.2970119  69.5945653
  49.7747838  76.0433528  68.4201373  49.8374574  77.1294940  68.4869862
  49.6953480  75.4249874  67.1727752  49.7171491  76.0212937  66.2606100
  49.5780482  74.0414697  67.0963717  49.5065380  73.3872580  65.8958842
  49.5460213  73.9807376  65.1423441  49.5403888  73.2868161  68.2542256
  49.4326659  72.2034394  68.2013939  49.6407461  73.9165785  69.4911285
  49.6142036  73.3262227  70.4070301  47.2841639  75.5217947  71.0342978
  46.5816131  75.6128211  70.0231328  47.1202944  74.5619955  71.9676071
  47.8318551  74.4977610  72.6815081  46.0685555  73.5515402  71.9466470
  46.1174554  72.9581020  71.0336634  46.1722768  72.5893933  73.1738264
  46.1383882  73.1857034  74.0856187  45.0339458  71.5812309  73.1853250
  45.0674569  70.9841954  72.2739927  45.1357911  70.9273099  74.0514171
  44.0814618  72.1085015  73.2388178  47.4999820  71.8491746  73.1737634
  48.3175317  72.5683804  73.2233382  47.5470230  71.1862756  74.0377377
  47.5887856  71.2613364  72.2601655  44.7004347  74.2591552  71.8361724
  43.8841306  73.8773656  71.0043123  44.5024757  75.3432923  72.6164737
  45.2029877  75.5288574  73.3199990  43.3049153  76.1843414  72.5909137
  42.4152740  75.5608992  72.6801170  43.3216929  77.1827374  73.7531190
  44.2699011  77.7203229  73.7546289  42.5031502  77.8912256  73.6261059
  43.1630641  76.5805258  75.1329321  43.2356142  77.3638198  76.2772887
  43.0467439  76.5436575  77.2973533  43.0504212  76.9756646  78.2980807
  42.8809572  75.2929568  76.8906489  42.7335491  74.4720980  77.4603521
  42.9454405  75.2985968  75.5109479  42.8257157  74.3681437  74.9559485
  43.0960390  76.9051297  71.2251217  41.9584494  77.0208005  70.7607638
  44.1774291  77.3338570  70.5506550  45.0990722  77.3107144  70.9631326
  44.0162890  77.9804758  69.2361479  43.1778317  78.6750203  69.1842193
  45.2865399  78.7100436  68.7783275  45.0877254  79.1343869  67.7942006
  45.7159516  79.8200006  69.7331003  45.9154037  79.3963243  70.7173853
  46.6195358  80.2970606  69.3535633  44.9201177  80.5606877  69.8114052
  46.3364453  77.7640238  68.5314464  47.1259727  78.2295240  68.2458655
  43.5346178  76.9980463  68.1944747  42.9059240  77.4028200  67.2101758
  43.8397435  75.6997548  68.4121770  44.4725974  75.5003204  69.1736369
  43.4329368  74.5982904  67.5432348  43.2613313  74.9778259  66.5359595
  44.5208897  73.4960822  67.4785775  44.7145208  73.1773042  68.5027781
  44.1004851  72.6644627  66.9130963  45.8274023  73.9428536  66.8297878
  46.1657445  74.8641702  67.3039196  46.5796013  73.1662102  66.9680762
  45.6214208  74.1809105  65.3723875  45.5787527  73.2062223  64.8863203
  44.6623123  74.6859064  65.2575418  46.6948793  75.0037460  64.7426402
  46.8121219  75.9327423  65.3006013  47.6328690  74.4488157  64.7607191
  46.3300934  75.3140580  63.3351538  45.4611775  75.8286428  63.3182047
  47.0594773  75.8709538  62.9132934  46.2218247  74.4533732  62.8178545
  42.0454484  74.0372961  67.9365622  41.6864105  72.9523018  67.4851554
  41.2583814  74.7875971  68.7620098  41.7195561  75.5859362  69.1744075
  39.8792288  74.4812488  69.1850347  39.4685889  75.3215727  69.7447935
  38.9875110  74.2245001  67.9600607  39.1577380  73.2463603  67.5102111
  37.9706228  74.2727003  68.3495671  39.1462028  75.2826366  66.8906449
  39.0601499  76.4874359  67.1456162  39.4891615  74.8572866  65.6882150
  39.6089305  75.5208912  64.9362947  39.6300733  73.8703775  65.5261809
  39.7308692  73.3421191  70.1870536  38.6223951  72.8701564  70.3897468
  40.8075075  72.9509178  70.8662042  41.7006808  73.3826489  70.6766020
  40.7539803  71.8841693  71.8468042  39.7363575  71.5011878  71.9234090
  41.6843467  70.7295209  71.4309155  42.6342801  71.1326106  71.0798535
  41.8619285  70.0692605  72.2798093  41.1428789  69.8637250  70.3151682
  41.1872800  70.2950610  68.9931701  41.6390761  71.2595093  68.7611793
  40.6612856  69.5072953  67.9697855  40.6515206  69.8795571  66.9453703
  40.1526595  68.2552187  68.2543917  39.7977975  67.6174387  67.4448179
  40.0931613  67.8121021  69.5561092  39.6650727  66.8358655  69.7837104
  40.5836492  68.6178266  70.5876041  40.5310792  68.2731722  71.6203430
  41.1309138  72.3461225  73.2284472  41.9509236  73.2446692  73.3765139
  40.5638716  71.6881572  74.2480936  39.7757549  71.1097498  73.9942900
  40.9152890  71.8020950  75.6714042  41.6960459  72.5460855  75.8295056
  39.6998024  72.1166740  76.6030594  39.9834423  71.9292702  77.6386890
  39.2800575  73.5950906  76.4438588  38.9958151  73.7831558  75.4085142
  38.4327376  73.8050669  77.0965913  40.1150812  74.2415109  76.7139983
  38.5219917  71.1291576  76.3463098  38.1624961  71.3913212  75.3512551
  38.9952194  70.1477684  76.3142107  37.4071001  71.0968702  77.2687241
  36.9330489  72.0778559  77.3010126  36.6816702  70.3541015  76.9368427
  37.7657731  70.8343052  78.2639694  41.6218268  70.4544437  75.9829573
  41.2146373  69.4480907  75.4237871  42.6943467  70.4385976  76.7910636
  43.0231446  71.3310889  77.1308438  43.4892193  69.2363649  77.1019900
  43.5870716  68.6091446  76.2159206  44.9038633  69.6563297  77.5694148
  45.3485760  70.3043229  76.8141435  44.8624356  70.1846553  78.5219146
  45.8405163  68.5147973  77.7560561  45.8536525  67.7807950  78.9332315
  46.7859192  66.8535436  78.7624285  46.9653656  66.1645682  79.5877835
  47.3530413  66.9435534  77.5588921  48.0855927  66.3632123  77.1759135
  46.7548585  67.9931471  76.9033349  47.0595344  68.2462338  75.8878444
  42.7917098  68.2916734  78.1070643  42.7274800  67.0836230  77.8888836
  42.3015398  68.8482780  79.2073864  42.5836600  69.8101141  79.3313980
  41.5437902  68.1993209  80.2874360  41.2432437  68.9549945  81.0131965
  40.2925476  67.4955576  79.7696387  40.6042880  66.7615799  79.0265412
  39.8237162  66.9841172  80.6103087  39.3081994  68.4473841  79.1507535
  39.3139845  69.3851594  79.7063115  39.5911006  68.6373085  78.1153803
  37.9432655  67.8556610  79.1911544  37.6320124  67.7143109  80.2261620
  37.2384227  68.5171484  78.6874376  37.9317672  66.5629297  78.5196057
  38.8144544  66.2129867  78.1753635  36.8453495  65.8328745  78.3280024
  35.6627294  66.2624786  78.7587194  35.5942327  67.1507577  79.2345012
  34.8385225  65.6984868  78.6080675  36.9287980  64.6636551  77.7139249
  37.8254461  64.3290777  77.3911551  36.0954568  64.1112354  77.5708391
  42.3547598  67.2542621  81.1708512  41.7752832  66.5594752  81.9991065
  43.6706664  67.2603518  81.0509776  44.1121885  67.7751808  80.3025735
  44.4987520  66.4358689  81.8943614  44.0563302  66.3666265  82.8881258
  44.6275009  65.0077944  81.3094034  43.6613861  64.7295129  80.8883560
  45.3523299  65.1302147  80.5045828  45.1002844  63.9176174  82.2542668
  44.8127102  64.0164985  83.4849920  45.7044484  62.9393236  81.7637322
  45.8410802  67.1444481  82.1111367  46.9195773  66.5965255  81.8393320
  45.7542157  68.3944173  82.6035844  44.8355403  68.8036474  82.6966731
  46.9224981  69.2270898  82.9179757  47.7740316  69.0716193  82.2555417
  46.5434756  70.7440793  82.9317890  45.7334778  70.8917577  83.6460683
  47.7459537  71.6217473  83.3305310  48.5562431  71.4749490  82.6164007
  47.4473361  72.6700450  83.3299912  48.0859443  71.3418602  84.3276111
  45.8937306  71.2053911  81.5919140  45.0333226  70.5561253  81.4298871
  45.5515379  72.2275065  81.7540368  46.7941802  71.1620192  80.3760031
  47.1364216  70.1400665  80.2129595  46.2408322  71.5032672  79.5011002
  47.6546386  71.8114464  80.5371104  47.5071161  68.7260156  84.2623698
  46.8508878  68.8187969  85.3048083  48.7103020  68.1238637  84.2066064
  49.1251107  67.9922074  83.2951791  49.4074894  67.5747755  85.3733497
  49.2641090  68.2391822  86.2254677  48.8648344  66.1598512  85.7472623
  49.4273396  65.8409454  86.6247510  47.8179821  66.2977687  86.0177785
  48.9730750  65.0917203  84.6563626  48.5357002  65.4749998  83.7344619
  50.0238835  64.8555714  84.4886207  48.2347677  63.8365866  85.0823625
  48.5911757  63.5640202  86.0757304  47.1729190  64.0777733  85.1314111
  48.4440122  62.6787202  84.1381691  48.3284365  63.0417144  83.1169062
  49.4568178  62.3002282  84.2762554  47.4676230  61.5845559  84.3886815
  46.5290858  61.9349571  84.2603593  47.6361126  60.8281649  83.7409284
  47.5748421  61.2477659  85.3348187  50.9076270  67.5536004  85.1021898
  51.2656304  67.5086893  83.9298424  51.8065139  67.6038534  86.1260541
  51.5887034  67.3686832  87.4768992  50.7824924  66.6395820  87.5577417
  51.2735013  68.3096277  87.9278649  52.8908640  66.8607862  88.0534886
  52.9565315  65.7763071  87.9657850  52.9879077  67.1466233  89.1008572
  53.9534795  67.5571645  87.1955133  54.9156636  67.0534039  87.1031774
  54.1085688  68.5705583  87.5657563  53.2605054  67.5994845  85.8431432
  53.4823605  68.5693388  85.3978779  53.7743809  66.4788059  84.9154123
  54.7152282  66.7004984  84.1379782  53.1292063  65.2966963  84.9758732
  52.4292697  65.2131453  85.6992039  53.4386859  64.1104265  84.1654713
  54.5068032  63.8990960  84.2161068  52.6719403  62.8866142  84.6818218
  51.8249582  63.2736239  85.2483412  52.3069215  62.2998068  83.8388994
  53.5199961  62.0080773  85.5788186  54.7199825  61.7560920  85.2216883
  52.9909183  61.5327467  86.6145056  53.2187014  64.2590978  82.6613471
  53.8391567  63.5215538  81.8957140  52.3522712  65.1986719  82.2299884
  51.7945907  65.6864879  82.9163756  52.0640024  65.4282753  80.8074929
  52.3828952  64.5648413  80.2236366  50.5619796  65.6407711  80.5873221
  50.2542247  66.3544486  81.3515543  50.3461864  66.0503108  79.6005037
  49.7658472  64.3670184  80.7667463  50.2348008  63.2621905  80.4897142
  48.5242747  64.4883089  81.1510697  47.9568122  63.6632864  81.2830699
  48.1368915  65.4066117  81.3146393  52.9181249  66.5427987  80.1886963
  52.8056728  66.8238414  78.9942874  53.8024834  67.1419926  80.9777779
  53.7865407  66.9167604  81.9622146  54.7615770  68.1371297  80.5115263
  54.5515291  68.3737180  79.4684515  54.6878537  69.4291917  81.3309257
  54.6914516  69.1313634  82.3794411  55.5454420  70.0723615  81.1335048
  53.4563180  70.2771214  81.1272076  53.3923197  71.1939326  80.0855458
  54.2391914  71.2913947  79.4062746  52.2547610  71.9881234  79.9038830
  52.2029608  72.6723524  79.0569781  51.1962870  71.9074178  80.7955609
  50.3172425  72.5384102  80.6643008  51.2591619  71.0230043  81.8531641
  50.4335062  70.9609294  82.5620643  52.3861132  70.2038165  82.0156270
  52.4320962  69.4984388  82.8453425  56.1473600  67.4790945  80.6108706
  56.5392508  67.0399230  81.6956240  56.8039400  67.2846240  79.4448475
  56.3570145  67.6885656  78.6341761  58.0819528  66.5849863  79.2591939
  58.4592755  66.2551145  80.2271357  57.9141677  65.3464692  78.3453825
  57.1697402  65.6346574  77.6031732  58.8862333  65.2432602  77.8631623
  57.5191257  64.0281214  78.9688334  58.2134992  63.8186219  79.7825018
  56.0942609  64.0446576  79.5090332  55.3992269  64.2536524  78.6958003
  55.8596765  63.0742120  79.9464188  56.0032787  64.8179544  80.2718142
  57.5810388  62.9358081  77.9578772  58.5970068  62.8548807  77.5714068
  57.2935961  61.9928565  78.4229796  56.8978818  63.1592801  77.1384532
  59.0595850  67.5013115  78.5996807  58.6511052  68.2674854  77.7428402
  60.3462756  67.4425842  78.9929448  60.6157508  66.8470770  79.7629147
  61.3759745  68.2455177  78.3478673  60.9419634  69.1936888  78.0305267
  62.5664176  68.5391894  79.3033772  62.8947787  67.5787075  79.7005583
  63.3602140  68.9699396  78.6930972  62.2391761  69.4969898  80.4748486
  61.4319505  69.0234570  81.0336458  63.1360930  69.5328569  81.0931977
  61.7456498  71.1996453  80.0333181  63.1746378  71.9035578  79.7737560
  63.6940072  71.3860464  78.9671976  63.0214571  72.9464594  79.4962806
  63.7749000  71.8542357  80.6822459  61.8210435  67.4368211  77.1408750
  61.6147793  66.2379447  77.1197427  62.3587164  68.0823186  76.1222280
  62.4582339  69.0873568  76.1319088  62.8243566  67.3544361  74.9519903
  62.1286976  66.5403747  74.7483684  62.8433247  68.0366144  74.1020654
  64.2162220  66.7769275  75.1540209  64.7965858  66.8777301  76.2483603
  64.7611255  66.1510657  74.0897225  64.1811500  66.0352284  73.2709982
  66.0945563  65.5401842  74.0893583  66.6231922  65.7130119  75.0267877
  65.9988817  64.0107608  73.8228395  65.3473646  63.8620078  72.9617365
  67.3638441  63.3708042  73.5468644  68.0158061  63.5187544  74.4077691
  67.2356947  62.3032414  73.3680121  67.8121958  63.8346228  72.6682563
  65.3140647  63.3000180  74.9805896  65.9724029  63.3695616  75.8465315
  64.3838074  63.8286185  75.1886817  65.0091911  61.8247610  74.6873546
  65.9390783  61.2953733  74.4796091  64.5211715  61.3752109  75.5521325
  64.3504842  61.7544302  73.8217572  66.9972709  66.2494418  73.0926934
  66.5433835  66.6855637  72.0431411  68.2595854  66.3768645  73.4579035
  68.5127193  66.0295816  74.3719151  69.2965508  66.9779452  72.6384826
  70.2525200  66.8541571  73.1473035  69.3246832  66.4567158  71.6815981
  69.0604352  68.4382102  72.3919846  69.1434097  69.2404425  73.3174858
  68.7572881  68.7775640  71.1409694  68.7818900  68.0389256  70.4525601
  68.4630223  70.1484419  70.6850544  69.2999352  70.8062858  70.9193991
  68.2335752  70.1643995  69.1443580  67.9433585  71.1840688  68.8910833
  69.1988909  69.9387488  68.6912053  67.1724888  69.1803711  68.6100363
  67.5270366  68.1649866  68.7872118  66.2463876  69.3426956  69.1614792
  66.9185092  69.3753870  67.1273249  66.5479025  70.3863770  66.9580650
  67.8525780  69.2355326  66.5832148  65.9299398  68.4210859  66.6164247
  66.0778828  67.4453204  66.8311198  64.8481829  68.7613232  65.9145261
  64.6096094  70.0360452  65.6225117  65.2513993  70.7509798  65.9340793
  63.7876516  70.2837635  65.0904209  64.0112525  67.8303207  65.4786847
  64.1939291  66.8574648  65.6793855  63.1947553  68.0981112  64.9479124
  67.2449688  70.7468681  71.4251394  67.1987718  71.9493456  71.6897083
  66.2850690  69.8816130  71.7749778  66.4273616  68.9210287  71.4972548
  65.0448814  70.2281153  72.4390274  64.8064913  71.2816191  72.2927433
  63.9163721  69.3786688  71.8264252  64.1855526  68.3257787  71.7423808
  63.0094103  69.4747522  72.4233241  63.5736941  69.8416959  70.4532658
  62.4754423  69.3003110  69.7811019  62.4614380  69.8784481  68.6001436
  61.6867162  69.5761485  67.8955019  63.4486451  70.7688380  68.4868207
  63.6426503  71.3669628  67.6964356  64.1792419  70.7394637  69.6524345
  65.0563420  71.3772484  69.7621036  65.0838543  70.0675785  73.9430297
  64.0175150  70.0284287  74.5446347  66.2823107  70.0146742  74.5686594
  67.1213466  70.0248079  74.0065070  66.4131081  69.7747463  76.0046154
  65.7642764  68.9474136  76.2920821  67.8441020  69.4245987  76.3836065
  67.8966965  69.1229647  77.4297183  68.2166473  68.6166645  75.7538823
  69.0162295  70.7879899  76.1954832  70.0848976  70.1099942  76.6043456
  65.8476804  70.9047246  76.9012194  65.5534654  70.6225225  78.0646202
  65.6720725  72.1495286  76.3833151  66.0119948  72.3463695  75.4528282
  65.0971567  73.2559528  77.1645233  64.9444115  72.9133556  78.1879466
  65.9882061  74.4972254  77.1929183  65.8457727  74.9732181  76.2227416
  65.6453317  75.1685361  77.9802424  67.4434924  74.2386247  77.3876323
  68.1988384  74.3941849  76.4425295  67.8621829  73.7938369  78.5755178
  68.8444031  73.6130477  78.7260456  67.1946328  73.6403433  79.3177559
  63.7036306  73.6257583  76.6759571  63.1533558  74.6579751  77.0894315
  63.1411859  72.7842668  75.7872940  63.7065283  72.0179500  75.4507738
  61.8061757  72.9546180  75.2295116  61.4453880  73.9507754  75.4856403
  61.7767107  72.7984025  73.6875406  62.5770384  73.4204880  73.2868108
  61.9859030  71.7516078  73.4671786  60.4399539  73.2018008  73.0389782
  59.7570523  72.3593075  73.1483001  60.0531875  74.0566814  73.5936790
  60.5650682  73.5716808  71.5461482  59.8746269  74.3947457  71.3618821
  61.5877265  73.9132541  71.3861572  60.2561972  72.4244075  70.5873220
  61.1225198  71.7629334  70.5934637  59.3931056  71.8956443  70.9917741
  59.9645745  72.8537075  69.1780953  60.7643729  73.3433157  68.8029873
  59.7716397  72.0402043  68.6114484  59.1615924  73.4663112  69.1721323
  60.9203999  71.9564647  75.9205929  61.2617865  70.7696172  76.0236376
  59.8193799  72.4706281  76.4671812  59.7043911  73.4711848  76.3912649
  58.8120883  71.7154706  77.1870541  59.2330599  70.7988489  77.6001966
  58.2963941  72.5898428  78.3506321  59.2058822  72.9596677  78.8240877
  57.7654488  73.4208043  77.8861968  57.4181102  71.9518077  79.3858135
  56.6254829  71.4068007  78.8731632  58.1761569  71.0199356  80.2543194
  58.9687231  71.5643481  80.7676931  57.5032418  70.5794205  80.9900044
  58.6147108  70.2298340  79.6448029  56.7897469  72.9960296  80.2298249
  56.1869543  73.6549586  79.6048825  56.1536755  72.5243840  80.9788676
  57.5659310  73.5776340  80.7271916  57.6865572  71.3275972  76.2144721
  57.2684593  72.1418517  75.4026398  57.2215257  70.0734787  76.2948373
  57.6385283  69.4914065  77.0071575  56.1849602  69.4855917  75.4324673
  55.8655186  70.2127743  74.6859676  56.7480070  68.2250422  74.6941020
  57.1543428  67.4984026  75.3976539  55.9159635  67.7775950  74.1504158
  57.8383197  68.4973677  73.6724929  59.1471607  68.7265092  74.0723808
  59.3960332  68.6819519  75.1326529  60.1360403  69.0103776  73.1377205
  61.1497276  69.2386830  73.4669857  59.8335698  69.0029178  71.7935342
  60.6115795  69.2189354  71.0613203  58.5567004  68.7244678  71.3758559
  58.3205567  68.7073354  70.3118809  57.5622384  68.4636158  72.3135305
  56.5502259  68.2288224  71.9836781  54.9833057  69.0872149  76.2393323
  55.1638141  68.4133635  77.2439551  53.7682424  69.4830066  75.8231313
  53.6954551  70.1227031  75.0449348  52.5240648  69.0322743  76.4772753
  52.7668815  68.7295574  77.4958535  51.4165789  70.1183637  76.5332926
  51.8262584  70.8540206  77.2254422  51.3492469  70.5555732  75.5370927
  50.0100287  69.6962453  77.0053038  49.6514506  68.9129718  76.3374675
  50.0087104  69.1826155  78.4336625  50.3667542  69.9655436  79.1021886
  48.9952674  68.8987563  78.7173134  50.6631630  68.3141859  78.5086444
  49.0375428  70.8527735  76.8862800  48.9790340  71.1733891  75.8461445
  48.0511229  70.5349416  77.2240078  49.3821399  71.6828589  77.5029727
  52.0754050  67.8456767  75.6497413  51.9514271  67.9705365  74.4345699
  51.9105612  66.6804165  76.2896228  52.1679230  66.6296849  77.2649641
  51.5510867  65.4390797  75.6010119  51.1697068  65.6392578  74.5997241
  52.7858207  64.4577640  75.5074526  52.4426438  63.4861874  75.1519682
  53.8191552  65.0056302  74.5538487  54.1631712  65.9770537  74.9089404
  54.6641256  64.3192248  74.4993208  53.3776072  65.1169000  73.5635187
  53.4615306  64.1516869  76.8483261  54.5078693  63.9429546  76.6253753
  53.3920086  65.0623817  77.4432220  52.8984789  63.0483555  77.5902874
  52.9680685  62.1371537  76.9961758  53.4495094  62.9172481  78.5215636
  51.8522065  63.2565801  77.8140206  50.2818458  64.8157193  76.2227621
  49.6624199  65.4577137  77.0573822  49.8681113  63.6037476  75.7578262
  50.3627848  63.3079451  74.9284299  48.7247606  62.8010507  76.2098617
  48.6421888  61.9089675  75.5890006  48.8892335  62.3628469  77.6868129
  49.9418141  62.0906834  77.7649177  48.6922728  63.2336220  78.3121586
  48.0226038  61.1901727  78.1571844  46.9704989  60.9069085  77.4945127
  48.3655972  60.5801252  79.2133991  47.3723901  63.4899143  75.9230654
  46.6891265  64.0033445  76.8219505  46.9466361  63.3965993  74.6647571
  47.5510132  62.9364655  73.9990962  45.7392603  64.0355213  74.1715720
  45.4288061  64.8309830  74.8490364  46.0110327  64.6477106  72.7861042
  46.4268863  63.9402453  72.0687076  45.0950725  65.0784370  72.3816394
  47.0029803  65.7761700  72.9033402  46.5857564  67.0600867  73.2735293
  45.5256647  67.2397488  73.4524900  47.5078189  68.1067170  73.4150771
  47.1675752  69.1022351  73.7001710  48.8471629  67.8740507  73.1927326
  49.5677330  68.6844297  73.3030257  49.2796864  66.6040421  72.8272858
  50.3394771  66.4243397  72.6465899  48.3574944  65.5561307  72.6909670
  48.7020736  64.5591878  72.4162494  44.5034932  63.1351423  74.1682412
  43.5075291  63.4859506  73.5408601  44.5549585  62.0395638  74.9208163
  45.4007291  61.8639554  75.4442024  43.4583253  61.0780958  75.0321844
  43.2417947  60.7330427  74.0211691  43.8326145  60.2452197  75.6274360
  42.1785737  61.5989558  75.6610903  41.0928744  61.0665315  75.4035589
  42.2846215  62.6318775  76.5063668  43.1975064  62.9738829  76.7705124
  41.1079867  63.2349492  77.1367389  40.2426749  62.6025201  76.9383251
  41.2650159  63.3914111  78.6662472  42.1632945  64.0059503  78.7257140
  40.4162098  63.9504979  79.0600113  41.4637712  62.1143618  79.4931392
  42.2990915  61.5539370  79.0733002  41.7574156  62.4454809  80.9624884
  40.9222784  63.0055425  81.3831731  41.8936157  61.5209808  81.5236032
  42.6652267  63.0454506  81.0258587  40.2781328  61.1628271  79.3591823
  40.1563252  60.8781622  78.3140850  40.4577020  60.2709864  79.9595792
  39.3723594  61.6587605  79.7080711  40.7761213  64.5951498  76.4973184
  39.8344638  65.2560059  76.9451401  41.5306353  65.0111591  75.4559318
  42.3047435  64.4445830  75.1399456  41.3054910  66.2949427  74.8080825
  41.3374935  67.0827553  75.5606954  42.3865202  66.5701881  73.7682172
  42.3610129  65.7945766  73.0027916  42.2085017  67.5414487  73.3066303
  43.3638019  66.5715473  74.2509364  39.9251493  66.3332704  74.1768640
  39.4789605  65.3068702  73.6603923  39.2256228  67.4818986  74.2540971
  39.6141152  68.2460370  74.7881996  37.8856709  67.6469394  73.6759583
  37.6906132  66.8497115  72.9586861  36.8012258  67.5864855  74.7955164
  36.9200597  66.6158738  75.2770667  37.0550824  68.3759603  75.5028963
  35.3419310  67.7569695  74.3392983  35.2878770  68.7118567  73.8164509
  35.1373807  66.9475349  73.6385295  34.3017860  67.7320172  75.4665470
  33.3155640  67.7268586  75.0023933  34.4451207  66.8065608  76.0242971
  34.4089357  68.9108766  76.4097572  35.4622900  69.0638237  76.6446029
  34.0195035  69.7915328  75.8989868  33.6477540  68.6910249  77.6680925
  34.0087386  67.8752828  78.1417535  33.7459429  69.4987663  78.2664341
  32.6715969  68.5497045  77.4507335  37.8270783  68.9609901  72.8728851
  38.5260952  69.9307592  73.1935614  37.0178217  68.9764925  71.8051958
  36.5551185  68.1275674  71.5130804  36.8124111  70.1821850  71.0142053
  37.7658293  70.6907522  70.8711937  36.2212094  69.8427366  69.6280086
  36.4593877  68.8027320  69.4049373  35.1393288  69.9632695  69.6837416
  36.7750351  70.7370326  68.5276647  36.5864513  71.7661016  68.8335308
  37.8500573  70.5609272  68.4900325  36.1746672  70.4997247  67.1517297
  36.3518413  69.4564983  66.8902205  35.1018825  70.6782698  67.2249009
  36.7639715  71.3961665  66.0801376  36.8953188  72.3912229  66.5052388
  37.7355793  70.9916499  65.7965116  35.8850790  71.4829387  64.8667759
  34.9848589  71.8581533  65.1292973  36.3153250  72.0879968  64.1820182
  35.7635912  70.5610604  64.4724662  35.8674216  71.0764703  71.8507451
  34.8871120  70.5641289  72.4133305  36.2062679  72.3768406  72.0182125
  37.0973120  72.7164270  71.6853150  35.3538510  73.2969485  72.8044682
  34.5543199  72.7174963  73.2660787  36.1330704  74.0467784  73.9219803
  35.3624796  74.5382278  74.5159219  36.6770808  73.3390784  74.5475307
  37.0898420  75.0815180  73.3852428  36.6644572  76.3786551  73.1181905
  35.6275952  76.6433523  73.3254394  37.5378473  77.3343789  72.5944542
  37.1955190  78.3557924  72.4282386  38.8432234  76.9852179  72.2970221
  39.6692119  77.9193672  71.7341241  39.2383566  78.7659061  71.5950729
  39.2933922  75.7024430  72.5590270  40.3324055  75.4338867  72.3681620
  38.4072296  74.7488584  73.0713054  38.7423476  73.7241559  73.2318692
  34.6150926  74.2699510  71.8832151  33.7207386  74.9531710  72.3321410
  34.9999119  74.3414847  70.6151781  35.8114536  73.8171564  70.3209347
  34.3688353  75.2391005  69.6515401  33.2905976  75.2379464  69.8112315
  34.8920434  76.6968654  69.8009348  34.2309898  77.3439732  69.2244291
  34.8293662  76.9619676  70.8563458  36.3234721  76.8751733  69.3178112
  36.9708235  76.3669225  70.0324567  36.3996833  76.3853603  68.3470501
  36.7507777  78.3145155  69.1887543  36.1063262  78.8338991  68.4795139
  36.6960850  78.8093513  70.1584169  38.1393393  78.3823242  68.7019774
  38.4326829  77.6169210  68.1118869  39.0237395  79.3439952  68.9862469
  38.6807524  80.3636909  69.7697363  37.7469801  80.4112386  70.1517160
  39.3558095  81.0852972  69.9787387  40.2516108  79.3011356  68.4743073
  40.5162718  78.5379885  67.8679566  40.9130489  80.0319548  68.6945384
  34.5234400  74.7373012  68.2059801  35.5148092  74.0693155  67.8993530
  33.5503835  75.0884865  67.3159183  32.7492714  75.5964516  67.6627473
  33.5927903  74.7447313  65.8856446  33.8275582  73.6855401  65.7803013
  32.2504690  75.0221438  65.1888678  31.5470203  74.3361729  65.6607820
  31.9279793  76.0487741  65.3624499  32.2958336  74.7518239  63.6949976
  32.2675966  73.5634765  63.3054450  32.4343889  75.7244426  62.9181519
  34.6920284  75.5620539  65.2312798  34.8342132  76.7383427  65.5570162
  35.4835304  74.9440976  64.3310778  35.3704255  73.9518964  64.1799380
  36.6065011  75.6211408  63.6817563  37.2484427  76.0527902  64.4496684
  37.4473352  74.6669896  62.8178353  37.8254597  73.8958885  63.4890463
  36.8304069  74.2059316  62.0465215  38.6313963  75.3531656  62.1485499
  39.5119847  75.9472344  62.7999271  38.6554331  75.3346743  60.8231329
  39.4181295  75.7750989  60.3287443  37.9109379  74.8802463  60.3138953
  36.2063725  76.8733954  62.8885541  36.8534064  77.9112930  63.0628431
  35.1552152  76.8011325  62.0523153  34.6941470  75.9217909  61.8671837
  34.7876063  77.9619367  61.2400005  35.6789158  78.5651479  61.0673658
  34.1883573  77.5637789  59.8724976  33.7826837  78.4815533  59.4468001
  35.0285152  77.2234713  59.2671668  33.1009867  76.4846525  59.8889095
  33.5429135  75.5666808  60.2763751  32.3073147  76.8160093  60.5585283
  32.5218865  76.2240900  58.5066566  33.3406736  76.0436125  57.8101549
  31.8837072  75.3416558  58.5528790  31.7264726  77.3541045  58.0143212
  32.2212457  78.0870278  57.5263435  30.4119161  77.4751406  58.1768468
  29.7230432  76.5333997  58.8101273  30.2000425  75.7195508  59.1709897
  28.7251324  76.6351221  58.9281371  29.7735155  78.5363058  57.6984974
  30.2891064  79.2539608  57.2093785  28.7751770  78.6210888  57.8258972
  33.9031854  78.9907305  61.9893628  34.3064265  80.1498847  62.0943776
  32.7331205  78.5775167  62.5168393  32.4608969  77.6203803  62.3439705
  31.7780297  79.4619025  63.2132007  31.6174261  80.4004786  62.6827474
  30.4190327  78.7598805  63.3938724  29.6795811  79.5228376  63.6371994
  29.9815458  78.0124025  62.1660634  30.7203232  77.2489106  61.9223677
  29.0179320  77.5383746  62.3527318  29.8885634  78.7069033  61.3311242
  30.4755313  77.8807673  64.5113275  29.6265453  77.4459115  64.6196027
  32.2877449  80.0290457  64.5690152  31.7901026  81.0584936  65.0297777
  33.2539750  79.3392878  65.1961949  33.4790662  78.4653181  64.7427521
  33.8541768  79.6179496  66.5178084  34.5181449  78.7915715  66.7714712
  34.6655910  80.9383956  66.5664965  33.9790139  81.7384761  66.2897614
  34.9823201  81.0736087  67.6006628  35.8960211  80.9774376  65.6445818
  35.8411259  80.1260017  64.9662425  35.8618699  81.9025472  65.0691620
  37.1909886  80.9170662  66.4256780  37.1884665  81.7400790  67.1403406
  37.2124281  79.9693793  66.9637572  38.4036234  81.0161894  65.5962598
  38.7952107  81.9398841  65.4798690  39.0207020  79.9842489  65.0141106
  38.5242330  78.7548742  65.1186922  37.6744248  78.5995631  65.6419555
  38.9992928  77.9822181  64.6743720  40.1265053  80.1778341  64.3069296
  40.5028054  81.1099624  64.2087705  40.5868856  79.3921790  63.8700146
  32.7900653  79.4938704  67.6482915  33.0295585  79.9573559  68.7683474
  31.6411411  78.8086844  67.3582723  31.5175749  78.4931186  66.4068265
  30.5682719  78.5469416  68.3220909  30.2420225  79.4849671  68.7712776
  29.3635893  77.8878557  67.6316521  29.1320674  78.5038125  66.7626906
  29.6985410  76.9048134  67.3006909  28.1067499  77.7344522  68.4990782
  27.3846941  77.1272047  67.9531965  28.3873555  77.2238921  69.4203224
  27.4550244  79.0584813  68.8572232  27.5888290  79.5659745  69.9829572
  26.7340781  79.6504898  67.9069478  26.2809482  80.5328904  68.0970632
  26.6437053  79.2143915  67.0004422  31.0927456  77.6463736  69.4611772
  31.5664710  76.5359345  69.1993353  31.0226480  78.1356790  70.7137619
  30.6777056  79.0753465  70.8484431  31.4716061  77.3930491  71.8791527
  32.4327874  76.9240542  71.6687402  31.6337595  78.3178968  73.0739849
  32.0337517  79.2958211  72.8060866  30.6402850  78.4382024  73.5059977
  32.5069348  77.7819974  74.1557560  33.8135922  78.2113426  74.3074469
  34.3071979  77.5029241  75.3115454  35.3355102  77.7050270  75.6112570
  33.4097059  76.6354794  75.7880387  33.5285701  75.9688260  76.5374014
  32.2564801  76.8077148  75.0625277  31.3775108  76.2024922  75.2843827
  30.4975794  76.2689229  72.2105458  29.3064352  76.3529933  71.9264497
  31.0127372  75.2131520  72.7986590  32.0160540  75.1734941  72.9076632
  30.2270342  74.0485989  73.1949972  29.5391453  73.7182162  72.4166943
  31.1095079  72.8440035  73.6553439  30.4758319  72.0906012  74.1232540
  31.8194589  72.2342722  72.4524015  32.4537261  72.9870018  71.9842093
  32.4332875  71.3948911  72.7791348  31.0798272  71.8842382  71.7323179
  32.0835342  73.2380697  74.8056503  32.9197941  73.7490489  74.3285020
  31.5375109  73.9430764  75.4324865  32.6098501  72.0979517  75.6650200
  33.1564233  71.3927260  75.0389094  33.2765390  72.4965107  76.4297264
  31.7741392  71.5867519  76.1428923  29.2088708  74.4369716  74.2630234
  29.5095181  75.3404078  75.0481204  28.0136104  73.7830089  74.3086335
  27.5506327  72.6982721  73.5556137  28.3758657  71.9954403  73.4410788
  27.2554436  73.0740034  72.5759258  26.3875813  72.1085319  74.3213342
  26.7326684  71.3583193  75.0328081  25.6649122  71.6580260  73.6409702
  25.7829402  73.3220432  75.0366276  25.2450614  73.1143050  75.9616304
  25.1333607  73.8706296  74.3545725  27.0295167  74.1396870  75.3360800
  26.7756039  75.1864546  75.1690351  27.4885780  73.9523032  76.7800326
  28.3850545  73.1574933  77.0766302  26.8343941  74.6969875  77.6731819
  26.1622794  75.3620813  77.3182010  27.0518056  74.6393244  79.0943551
  28.1049833  74.4420437  79.2943460  26.6658360  75.9626967  79.7635684
  27.2105561  76.7660035  79.2675065  25.5970802  76.0877724  79.5897374
  26.9439427  76.0087085  81.2529517  28.2346116  76.1865306  81.7373504
  29.0516870  76.2755949  81.0214211  28.4957755  76.2516621  83.1034398
  29.5145425  76.4083009  83.4579535  27.4624999  76.1101029  84.0104758
  27.7394170  76.1549144  85.3568691  28.6717166  76.2869883  85.5438813
  26.1662849  75.9331448  83.5559852  25.3469243  75.8181487  84.2655798
  25.9104174  75.9022580  82.1813959  24.8879764  75.7933339  81.8196638
  26.2225197  73.4863975  79.6307303  24.9869210  73.4191043  79.4679472
  26.9386791  72.5335989  80.1989421  27.9436642  72.6307633  80.2246983
  26.3439262  71.3586053  80.8143192  25.2576842  71.4415071  80.7781988
  26.7595434  70.0837143  80.0892527  27.8380461  70.1466299  79.9444331
  26.5313383  69.2562211  80.7610245  26.0900179  69.8526366  78.7659142
  25.0195633  70.0375426  78.8555673  26.5121743  70.5214845  78.0158953
  26.3201802  68.4169503  78.3476007  25.9149607  68.2450578  77.3504301
  27.3862088  68.1896268  78.3501751  25.6474906  67.5204844  79.2878425
  25.3689335  67.9209991  80.1722029  25.3975025  66.2379855  79.0678598
  25.7645346  65.6682845  77.9247530  26.2367042  66.2161639  77.2197820
  25.5696307  64.6900368  77.7661857  24.7630482  65.5158179  79.9821370
  24.4705334  65.9464578  80.8476336  24.5754616  64.5387011  79.8084918
  26.8234963  71.2565878  82.2399148  27.8601002  71.8119441  82.6265383
  26.0512303  70.5430642  83.0144380  25.1546903  70.2751055  82.6342886
  26.3557611  70.1735529  84.3831715  27.4003029  70.3997256  84.5973618
  25.4730845  70.9468029  85.3738558  24.4438952  70.9184432  85.0159949
  25.5327952  70.4574444  86.3459993  25.9234089  72.3923375  85.5062100
  26.9748036  72.3005660  85.7786952  25.8428372  72.8473666  84.5190141
  25.2137082  73.2614449  86.5212190  24.0036011  73.0361203  86.7590607
  25.8578743  74.2031004  87.0405734  26.1514983  68.6608904  84.4026380
  25.9726300  68.0679639  83.3242790  26.2276551  68.0176429  85.5691841
  26.4767510  68.5122682  86.4138121  26.0268272  66.5597737  85.6467187
  26.1732476  66.2202155  86.6720774  24.6131824  66.1936170  85.2095214
  24.4586857  66.5855093  84.2042103  24.5496041  65.1056745  85.1885667
  23.5485687  66.7430080  86.1337823  23.5890053  66.5700671  87.3689557
  22.6025293  67.3959797  85.6520403  27.0615681  65.7505479  84.8076134
  26.7180774  64.7521984  84.1649661  28.3268344  66.2102339  84.8138663
  28.5211233  67.0555060  85.3314243  29.4383660  65.5456032  84.1249190
  29.0343249  64.7974912  83.4428790  30.3014953  66.5364878  83.3150298
  30.7223873  67.2244975  84.0482363  31.1010331  65.9382418  82.8780620
  29.5994487  67.3335086  82.2117749  28.6079245  67.5824066  82.5899684
  30.1753774  68.2485885  82.0738003  29.4654185  66.6031942  80.8621980
  29.0192782  65.6314756  81.0739073  28.7797870  67.1922545  80.2530865
  30.7526660  66.4103445  80.1199164  31.2695503  67.3677275  80.0539699
  31.3729484  65.7000398  80.6665571  30.4945820  65.8910371  78.7497319
  29.9201863  66.5492774  78.2428897  31.3723620  65.7676284  78.2656115
  30.0160111  65.0037032  78.8106213  30.3163411  64.8969469  85.1828186
  30.5779638  65.5185124  86.2176514  30.7710134  63.6516695  84.9352820
  30.4686612  63.1622076  84.1051557  31.6899115  62.9669342  85.8501480
  31.3918970  63.1752715  86.8777092  31.6824385  61.4423316  85.6351872
  31.6411048  61.2932514  84.5562220  32.6054805  61.0137358  86.0255706
  30.5060507  60.7214536  86.2701522  29.7268855  61.2881302  87.0582685
  30.3783255  59.4291791  85.9760264  29.6146268  58.8979773  86.3693312
  31.0457226  58.9860404  85.3609573  33.0509845  63.5525956  85.5536233
  33.2798864  63.9619696  84.4105810  33.9329138  63.6513353  86.5709695
  33.6257506  63.4192492  87.5047179  35.2718212  64.2341859  86.4024869
  35.1855684  65.1617262  85.8365112  35.9503339  64.5443067  87.7612855
  35.3166672  65.3280695  88.1763537  35.8393389  63.6361913  88.3538278
  37.4308066  65.0051600  87.7945723  38.0408061  64.2114177  87.3633248
  37.6543724  66.2961103  87.0173056  37.0450119  67.0904864  87.4482874
  38.7064540  66.5759082  87.0715119  37.3718427  66.1469455  85.9751793
  37.8886625  65.2091579  89.1997438  37.7991158  64.2731693  89.7511114
  38.9296941  65.5321972  89.1999464  37.2721688  65.9713623  89.6762719
  36.1936659  63.4070352  85.4911724  36.2950988  62.1770737  85.6104155
  36.8631915  64.1542552  84.5802676  36.5916948  65.1259956  84.6261969
  37.8345247  63.7532850  83.5638382  37.9145895  62.6695391  83.4790810
  37.3844817  64.3289816  82.1861714  37.1934497  65.3935815  82.3212050
  38.4153229  64.1355164  81.0895208  38.6065448  63.0710660  80.9535828
  38.0392754  64.5584541  80.1579570  39.3416590  64.6378637  81.3681765
  36.1613952  63.7052832  81.7866021  35.8838379  64.0593017  80.9385259
  39.2198564  64.2729260  84.0081022  39.3862050  65.4780328  84.2527606
  40.1873387  63.3604661  84.0921306  39.9691016  62.3982062  83.8764274
  41.5535033  63.6887060  84.4831009  42.2362304  63.1046188  83.8659906
  41.7167182  64.7506442  84.2993960  41.8312563  63.3931518  85.9385194
  40.9929148  62.7902298  86.6153424  43.0256095  63.7819700  86.4368445
  43.7159582  64.1923249  85.8243685  43.3962558  63.5361634  87.8426846
  42.9821309  62.5998897  88.2168388  44.9105365  63.5277118  88.0718387
  45.0852643  63.3301803  89.1294548  45.6245535  62.4906420  87.2426012
  45.4506603  62.6878032  86.1847788  46.6940593  62.5333312  87.4485968
  45.2458975  61.4999377  87.4940472  45.4316537  64.8311702  87.8307284
  46.3809109  64.8277995  87.9739058  42.7319577  64.5438950  88.7654117
  42.6851037  65.7395624  88.4534226  42.2569495  64.0590486  89.9135128
  42.3221705  63.0617383  90.0591760  41.5670780  64.8623118  90.9199578
  40.7669749  65.3760540  90.3870383  40.9448944  63.9559498  91.9772134
  41.7340699  63.4414434  92.5254699  40.3543851  64.5563092  92.6692882
  40.3009618  63.2214560  91.4935100  42.4368332  65.9301629  91.5901772
  41.8930186  66.9437667  92.0323365  43.7673679  65.7011680  91.6880793
  44.1333710  64.8125830  91.3773418  44.6803096  66.6339483  92.3536252
  44.2924739  66.8723826  93.3439947  46.0873853  66.0326316  92.5085090
  45.9599793  64.9850533  92.7813581  46.5726078  66.0974701  91.5346224
  46.9566719  66.7319682  93.5596561  46.8909279  67.8085425  93.4022827
  46.5695036  66.4855095  94.5483223  48.4043439  66.2948676  93.4610720
  48.6907859  66.2941158  92.4093832  49.0169966  67.0149923  94.0034525
  48.6480274  64.9578653  94.0158297  47.8822299  64.5114644  94.4999575
  49.8038610  64.3052738  93.9174680  50.8275824  64.8423899  93.2646848
  50.7293902  65.7531077  92.8391833  51.6998558  64.3378098  93.1965854
  49.9449204  63.1129779  94.4733895  49.1720227  62.6978567  94.9737927
  50.8248477  62.6234373  94.3947972  44.7397736  68.0102315  91.6897776
  44.7585325  69.0209053  92.3979714  44.7487114  68.0531971  90.3551375
  44.7768402  67.2102197  89.7995323  44.8692433  69.3260462  89.6772154
  45.0221053  70.1196574  90.4085934  46.0710311  69.3129951  88.7035811
  45.7694782  68.7826589  87.8003045  46.2841597  70.3536567  88.4592457
  47.3159322  68.6637430  89.2791199  48.1890141  69.3788446  90.1001429
  47.9871281  70.4332238  90.2888917  49.3048907  68.7675077  90.6760383
  49.9496788  69.3247488  91.3556209  49.5760635  67.4386464  90.3981261
  50.6970343  66.8229689  90.9034721  51.2343171  67.4068987  91.4437987
  48.7249402  66.7138428  89.5800510  48.9282798  65.6626694  89.3756299
  47.6107741  67.3280858  89.0196356  46.9490759  66.7626765  88.3634589
  43.5752776  69.7750321  88.9827434  43.6035140  70.7885773  88.2912191
  42.4433083  69.0571703  89.1905914  42.5116744  68.2364841  89.7753133
  41.1376171  69.3818103  88.5934981  41.2395651  69.4218172  87.5090142
  40.1259954  68.3107502  88.9453754  40.0062463  68.2649013  90.0278070
  39.1677437  68.5497274  88.4841337  40.4749909  67.3457837  88.5777601
  40.6220558  70.7348882  89.0669320  40.8798743  71.1129605  90.2062950
  39.9008557  71.4783798  88.2029108  39.7726169  71.1966012  87.2415290
  39.3594347  72.7703667  88.6251669  40.1196974  73.3244108  89.1757439
  38.9310749  73.5996213  87.4157208  38.6536857  74.5921281  87.7708050
  39.7861038  73.6802693  86.7445119  37.8379735  73.0242296  86.7208189
  37.6066701  73.5792543  85.9724565  38.1902369  72.5576828  89.6175520
  37.6896524  71.4349358  89.7366795  37.7768383  73.6096148  90.3419818
  38.3069823  74.4691491  90.3262478  36.6483447  73.5064797  91.2706078
  36.7352044  72.6417598  91.9284938  36.5165223  74.7926021  92.1236407
  36.7323599  75.6466903  91.4817312  35.1036144  74.9516432  92.7357668
  34.8872301  74.0980973  93.3782136  35.0631206  75.8682092  93.3242970
  34.3641985  75.0007674  91.9364233  37.5925974  74.8120594  93.2154899
  37.2124590  74.2289466  94.0542838  38.4773012  74.3244871  92.8060124
  37.9455456  76.1555531  93.6759532  37.0613832  76.6436142  94.0860179
  38.7122906  76.0859952  94.4475508  38.3262235  76.7391556  92.8377454
  35.3609941  73.1438313  90.4941179  34.6223153  72.2472347  90.9203564
  35.1301011  73.8104250  89.3361532  35.7371692  74.5800083  89.0926187
  33.9492853  73.5738268  88.5130515  33.0717011  73.5438004  89.1588406
  33.7434050  74.6578861  87.4616131  34.6880506  74.8357673  86.9477045
  33.0018644  74.3037672  86.7455005  33.2616157  75.9613126  88.0499391
  32.5329545  75.9896463  89.0585397  33.6643574  77.0734258  87.4373517
  33.3718032  77.9740521  87.7886123  34.2604444  77.0109574  86.6244071
  33.9298514  72.1889691  87.9118715  32.8560856  71.5811305  87.8817148
  35.1009795  71.6446495  87.5084176  35.9447918  72.1996021  87.5187954
  35.1772157  70.2709201  86.9938018  34.4830836  70.1557411  86.1613275
  36.5778554  69.9485119  86.5056261  37.2831332  70.0505830  87.3304078
  36.6055394  68.9260185  86.1290083  36.8521132  70.6370863  85.7064095
  34.7401323  69.2790355  88.0960777  34.0767908  68.2980437  87.7712405
  35.0524756  69.5765844  89.3899464  35.6469606  70.3767525  89.5524823
  34.6419641  68.7677245  90.5455597  34.8849818  67.7237511  90.3476676
  35.3455913  69.1989543  91.8468700  35.4694362  70.2790162  91.9257872
  34.7274476  68.8434451  92.6712557  36.7049647  68.5961325  92.0390261
  36.8694827  67.2415116  92.2648820  38.1717062  67.0572305  92.4128157
  38.5183820  66.0382095  92.5846035  38.8417435  68.2034862  92.3195166
  39.8390954  68.3461709  92.3904403  37.9168247  69.1965752  92.1027278
  38.2406552  70.2339181  92.0181418  33.1212336  68.8038872  90.7487394
  32.5252384  67.7656506  91.0374806  32.4934025  69.9818565  90.5482642
  33.0793276  70.7805749  90.3511852  31.0394683  70.1941037  90.6675303
  30.6663565  69.7122359  91.5712395  30.7256099  71.7027883  90.7476661
  31.0558690  72.0741737  89.7775624  29.6443229  71.8133206  90.8295263
  31.4011807  72.5000016  91.8518446  32.4801528  72.3702220  91.7677184
  31.0635063  73.9571705  91.7451223  29.9846671  74.0877976  91.8296290
  31.5591959  74.5051674  92.5464288  31.4008617  74.3392227  90.7816246
  31.0266963  71.9785055  93.2204605  31.3347300  70.9367510  93.3096921
  31.5276025  72.5717636  93.9854697  29.9473573  72.0504513  93.3544384
  30.2266102  69.5484067  89.5123515  28.9920606  69.5982082  89.5113854
  30.9356143  68.9520179  88.5561054  31.9423576  68.9469402  88.6369851
  30.3344322  68.3079314  87.4017816  31.0300196  67.5415147  87.0599296
  29.4114301  67.8359937  87.7385922  30.0194661  69.2397395  86.2462765
  29.4488084  68.7934441  85.2465389  30.3765931  70.5454551  86.3772578
  30.7049419  70.8220469  87.2914696  30.2032308  71.5908188  85.3504208
  29.2297729  71.5978517  84.8600848  30.4795323  72.9996145  85.9840975
  31.4224193  72.9367990  86.5273459  30.5624123  74.1290022  84.9424995
  29.6196583  74.1927390  84.3991274  30.7551395  75.0758147  85.4469825
  31.3712362  73.9196870  84.2424351  29.4478854  73.3184541  87.1072359
  28.4825830  73.3850549  86.6053828  29.4556908  72.4492369  87.7648832
  29.6879599  74.6217401  87.9576182  29.6798249  75.4914841  87.3006714
  28.8975498  74.7215435  88.7015202  30.6529343  74.5556669  88.4601703
  31.0984347  71.2328318  84.1228996  32.1619429  70.6148788  84.2950341
  30.6425464  71.5424236  82.8889235  29.7094855  71.9067283  82.7593905
  31.4303699  71.1987884  81.6926668  31.8139630  70.1850770  81.8081868
  30.6024168  71.2685080  80.3866963  29.6796263  70.7127201  80.5529991
  30.3665562  72.3167323  80.2031327  31.3307701  70.6930440  79.1784527
  31.8755423  71.5238512  78.7300294  32.0392382  69.9804485  79.6008032
  30.4944524  70.0048860  78.1159438  29.4647179  70.5691664  77.6763797
  30.8917876  68.8909638  77.7050569  32.7115519  72.0227102  81.6105003
  32.7033360  73.2395842  81.8600300  33.8170227  71.3326931  81.2932691
  33.7370786  70.3288347  81.2159601  35.1347388  71.9317189  81.1571020
  35.2856868  72.6534058  81.9598983  36.2426767  70.8801316  81.2306045
  36.0364254  70.1318684  80.4653191  37.1848895  71.3796003  81.0050691
  36.3412216  70.2006253  82.5917298  36.0921381  70.8577744  83.4249244
  35.6050616  69.3992223  82.5290903  37.6952563  69.5916227  82.8470705
  38.7194239  70.2845613  82.9025846  37.7159885  68.3046950  83.1360553
  38.5969810  67.8448721  83.3163791  36.8507740  67.7851404  83.1756565
  35.2814020  72.7627237  79.8934763  34.7219188  72.4348262  78.8480544
  36.0211269  73.8632917  80.0123594  36.3179477  74.1184259  80.9434358
  36.3475733  74.7570502  78.9173455  36.3917484  74.1905533  77.9871686
  35.3011710  75.8521487  78.7705412  35.5554750  76.4522197  77.8968459
  34.3314476  75.3790255  78.6159742  35.2427492  76.6837975  79.9122176
  34.5735696  77.3596700  79.7818533  37.7631603  75.3101475  79.1601888
  38.4585644  74.8370659  80.0720325  38.1946564  76.2854873  78.3507201
  37.5974487  76.5703123  77.5876232  39.5348037  76.8608339  78.4332518
  40.2700060  76.0937698  78.1899634  39.7068222  78.0178697  77.4723502
  38.8789240  78.7092947  77.6292428  40.6460624  78.5159732  77.7128100
  39.7268382  77.5761670  76.0272796  40.6173626  76.9815931  75.8234440
  38.8379369  76.9890512  75.7965166  39.7447385  78.8002805  75.1834130
  40.4848412  79.5009959  75.5698647  39.9981134  78.5342589  74.1571902
  38.4424093  79.4478759  75.1889519  37.7653379  79.1484684  75.8759954
  38.0976216  80.4020473  74.3346121  38.9570537  80.8225021  73.4151002
  39.8791896  80.4134640  73.3655693  38.6850914  81.5496211  72.7690088
  36.8920868  80.9509501  74.3984998  36.2356848  80.6403202  75.1004582
  36.6359085  81.6770928  73.7449036  39.9563499  77.2616872  79.8113579
  41.0625305  76.9250653  80.2024489  39.0738949  77.9214240  80.5621512
  38.2159803  78.1900237  80.1017861  39.2890471  78.3628710  81.9487251
  40.1199435  79.0676920  81.9793480  38.0358119  79.0545316  82.5168607
  38.2433182  79.2891604  83.5608864  37.8976721  79.9798510  81.9575743
  36.7813168  78.2222746  82.4287794  36.5359928  78.0701388  81.3776982
  36.9679551  77.2577987  82.9010657  35.6396033  78.8985217  83.1131316
  35.9606117  79.2561065  84.0914903  35.3014725  79.7422064  82.5114980
  34.5221974  77.9763643  83.2955784  34.6107258  77.0455407  82.9137019
  33.4049994  78.2948732  83.9317190  33.2611622  79.5040115  84.4668744
  34.0071156  80.1802351  84.3870287  32.4066474  79.7403984  84.9506360
  32.4228235  77.4110521  84.0396998  32.5280930  76.4917183  83.6349237
  31.5737968  77.6611085  84.5262429  39.7362488  77.2539737  82.9078755
  40.5633180  77.5043124  83.7900326  39.2260592  76.0376279  82.7087484
  38.5192874  75.9356135  81.9944893  39.5252698  74.8861426  83.5564586
  39.5592507  75.1877453  84.6033494  38.4333292  73.8246947  83.3879500
  38.4421301  73.3517902  82.4059199  38.6686944  73.0821098  84.1503613
  37.0484552  74.4103695  83.6583571  36.7329785  74.6975360  84.8610818
  36.3216098  74.6863444  82.6725850  40.9273660  74.3365977  83.3343426
  41.5512820  73.9123215  84.2961511  41.4486837  74.4125022  82.0856731
  40.8609604  74.7438892  81.3340992  42.8273355  74.0199807  81.7696794
  43.0102522  73.0097900  82.1359520  43.0813313  74.0459922  80.2367236
  42.4951091  74.9018916  79.9022404  44.1402978  74.2448738  80.0719937
  42.6687719  72.8093801  79.4488923  42.2907958  71.7844548  80.0828791
  42.7797440  72.8389714  78.2152430  43.7835225  74.9897138  82.4650470
  44.7612202  74.5590423  83.0762353  43.4663699  76.2912528  82.3907002
  42.6826027  76.5259421  81.7984762  44.2199531  77.3789500  83.0034287
  45.2689901  77.2965796  82.7191124  43.6901418  78.7612571  82.5462023
  42.6570850  78.8373869  82.8854618  44.2933704  79.5181504  83.0475284
  43.7473009  78.9827626  81.0386715  42.9064032  78.4370922  80.6106113
  43.6078674  80.0512516  80.8743800  45.2824344  78.4485368  80.2253978
  46.3629110  79.7745156  80.5934458  46.4627323  79.8732427  81.6743657
  47.3415108  79.5788710  80.1550781  45.9585816  80.6986935  80.1805121
  44.2416206  77.2726974  84.5269949  45.2943872  77.4727984  85.1322082
  43.0991838  76.9226685  85.1387171  42.2637414  76.8006681  84.5844145
  42.9870213  76.8184751  86.5994239  43.4293875  77.6957492  87.0714423
  41.5157651  76.7340942  87.0068474  40.9687659  77.4372980  86.3788381
  41.1815262  75.7192387  86.7913183  41.2559082  77.0519431  88.4647858
  42.0934436  76.6624411  89.0435115  41.2219841  78.1371641  88.5609293
  39.9660731  76.4598672  88.9846824  38.8811844  76.7965889  88.4600825
  40.0438527  75.6465210  89.9260045  43.8173285  75.6335732  87.1342542
  44.5070240  75.7618599  88.1512103  43.7823369  74.5062477  86.4049213
  43.1111617  74.4953556  85.6502660  44.5846616  73.3089856  86.6346333
  44.3780811  72.9156105  87.6299622  44.2588477  72.2323402  85.6087351
  44.2841114  72.6627171  84.6076174  44.9926821  71.4292704  85.6770431
  42.9660026  71.7134794  85.8668981  42.7588958  71.0343179  85.2207973
  46.0689023  73.6476011  86.5805031  46.8002492  73.2143944  87.4660959
  46.4998449  74.4800122  85.6076818  45.8663631  74.7163496  84.8573854
  47.8851094  74.9440448  85.5183339  48.5526040  74.0824984  85.5013644
  48.1222852  75.7749097  84.2452494  47.9462957  75.0230065  83.4759845
  47.3798719  76.5677745  84.1542106  49.5284477  76.3678704  84.0690520
  49.6706602  77.1419461  84.8231629  50.6295417  75.2917799  84.2211024
  50.4882543  74.5175472  83.4669800  51.6087823  75.7520688  84.0894862
  50.5684640  74.8464878  85.2141204  49.6304463  77.1377338  82.7503282
  48.9032942  77.9497247  82.7458669  50.6343963  77.5491771  82.6459244
  49.4263979  76.4634008  81.9186202  48.3362128  75.7038278  86.7974963
  49.4890623  75.5300516  87.2225619  47.4160244  76.4884634  87.4022024
  46.5141947  76.5774657  86.9562416  47.6447105  77.2090476  88.6503811
  48.5050583  77.8656224  88.5207265  46.7616823  77.8078681  88.8734830
  47.9114303  76.2680605  89.8144911  48.7629651  76.5322583  90.6719629
  47.2160433  75.1290118  89.8180881  46.4835644  74.9847599  89.1378196
  47.4120968  74.1163751  90.8473849  47.4513559  74.5974579  91.8246859
  46.2682667  73.0923231  90.8502648  46.2121870  72.6740841  89.8452621
  46.5034318  72.2996468  91.5605195  44.9385268  73.7143197  91.2118309
  44.8627615  74.7603512  92.1288716  45.7829770  75.1166054  92.5918897
  43.6474329  75.3478171  92.4570810  43.6137737  76.1925790  93.1450827
  42.4779635  74.8683087  91.8918298  41.2881425  75.4393621  92.2575759
  41.3927624  76.1465235  92.8983388  42.5212998  73.8170801  90.9885860
  41.6036130  73.4395618  90.5375524  43.7509797  73.2412115  90.6574533
  43.7913592  72.4084385  89.9553431  48.7554615  73.4390021  90.6976816
  49.4034404  73.1808685  91.7166617  49.1735862  73.1690327  89.4250236
  48.5018732  73.3498719  88.6927681  50.4394253  72.5154975  89.0635196
  50.5819162  71.5920608  89.6248218  50.5249823  72.1910160  87.5397815
  50.3799787  73.1171825  86.9836442  51.8710395  71.5789602  87.1653730
  52.0165612  70.6524518  87.7208068  51.8899428  71.3678022  86.0961885
  52.6698707  72.2786329  87.4111947  49.3976709  71.2591132  87.1204344
  48.4380445  71.7341000  87.3244121  49.4782996  71.0472708  86.0542630
  49.4679417  70.3274281  87.6817950  51.5970875  73.3768864  89.5881645
  52.4691525  72.8488471  90.2820825  51.5342154  74.7133651  89.3473765
  50.7917293  75.0294386  88.7399958  52.5258108  75.7005371  89.8109443
  53.5242531  75.3572806  89.5400437  52.2943415  77.0862690  89.1814121
  51.2951209  77.2823021  89.5702930  52.9857681  77.8379820  89.5621442
  52.2675055  77.1457543  87.6699746  51.6932769  76.2982915  87.2955830
  51.6246441  78.4544759  87.1840805  52.1986271  79.3024374  87.5577161
  51.6170648  78.4734290  86.0942713  50.6016664  78.5170426  87.5551632
  53.6463808  76.8522738  87.0781914  53.9672027  75.8552702  87.3801127
  53.5937936  76.9026652  85.9906269  54.3625662  77.5893613  87.4413436
  52.5970679  75.8129991  91.3308005  53.6927834  75.9323405  91.8784701
  51.4391831  75.7612476  92.0087117  50.5783048  75.8043585  91.4822811
  51.3618607  75.8130398  93.4834428  52.0485519  76.5798018  93.8420936
  49.9511267  76.1407226  93.9929324  49.2536398  75.4599114  93.5049700
  49.9359659  75.9660605  95.0687407  49.5362034  77.5933560  93.7038012
  49.2669687  77.6592145  92.6496303  48.6629114  77.8183565  94.3160412
  50.8515169  78.8081467  94.0645765  51.2132531  78.4175444  95.9537538
  51.5377128  77.3819449  96.0555309  51.9973026  79.0809453  96.3188102
  50.3059140  78.5725173  96.5375521  51.9241749  74.5750036  94.1191025
  52.6235691  74.6648730  95.1219147  51.7176492  73.4379928  93.4602198
  51.0869646  73.4987802  92.6736823  52.2684736  72.1272956  93.8083340
  52.0464585  71.8816319  94.8468223  51.6271424  71.0609005  92.9027802
  50.5802281  70.9269284  93.1750320  51.6896268  71.5124644  91.9126864
  52.3184700  69.7192324  92.8880161  52.1579895  68.8201154  93.9405025
  51.5663897  69.1239561  94.8040939  52.7371894  67.5527902  93.9035003
  52.6020219  66.8626053  94.7362526  53.4762894  67.1689597  92.8011817
  54.0408704  65.9259808  92.7913923  53.8570358  65.4242055  93.5889047
  53.6445031  68.0409338  91.7343962  54.2287941  67.7419715  90.8641513
  53.0602550  69.3067108  91.7808387  53.1794404  69.9930721  90.9425052
  53.8077881  72.1468311  93.6724250  54.4701069  71.5365105  94.4794508
  54.3919458  72.8136628  92.6419876  53.8657263  73.2046467  91.8736622
  55.8620646  72.8992852  92.5968612  56.2758035  71.9176040  92.8275585
  56.3859851  73.3410155  91.2345882  55.9101690  74.3035524  91.0469157
  57.4687129  73.4665694  91.2406550  56.0591683  72.4582038  90.0498016
  56.0999214  71.0702103  90.1596164  56.3671954  70.6197877  91.1155369
  55.8044113  70.2602045  89.0670697  55.8075747  69.1760008  89.1792881
  55.5087961  70.8247324  87.8476916  55.2796414  70.1857000  86.9949163
  55.5020243  72.1990089  87.7028466  55.2668544  72.6468158  86.7373083
  55.7974430  73.0144354  88.7972928  55.8253638  74.0975449  88.6781533
  56.3850416  73.8508829  93.7042933  57.4233231  73.5723538  94.3106513
  55.6002699  74.9185472  94.0116374  54.7851404  75.0323250  93.4262163
  55.9056504  75.9641949  94.9839200  56.9303026  76.3104567  94.8486802
  54.9586115  77.1527671  94.7957324  54.0091219  76.6967678  94.5153159
  54.8277282  77.7294893  95.7113530  55.3901890  78.0940302  93.6876122
  56.5556721  78.1497875  93.3139890  54.4873842  78.9312309  93.2065587
  54.7402861  79.5721575  92.4680782  53.5488565  78.9261058  93.5797080
  55.9401047  75.4494176  96.4235930  56.9575636  75.5968467  97.1031906
  54.8347206  74.8527770  96.8727368  54.0849579  74.7732593  96.2007009
  54.6809856  74.1859102  98.1651156  55.2655259  74.7030712  98.9260074
  53.2092318  74.2006007  98.5851322  52.7504992  73.3703211  98.0481970
  53.2146643  73.9831853  99.6532151  52.4107802  75.4727852  98.3302678
  52.5466879  76.1493215  99.1740264  52.7828245  75.9464962  97.4218170
  50.9198491  75.1538595  98.1662592  50.3538265  76.0844444  98.2078414
  50.7657188  74.6784278  97.1975962  50.4246749  74.2551540  99.2151486
  50.4965383  73.2635199  99.0373941  49.9039066  74.6559361 100.3690997
  49.7441015  75.9483312 100.6211379  50.0202151  76.6321983  99.9310748
  49.3470415  76.2426133 101.5019563  49.5306932  73.7678464 101.2761622
  49.6428319  72.7816980 101.0889825  49.1353941  74.0801958 102.1515336
  55.0032863  72.7275091  97.8487019  54.4524669  72.2379900  96.8727161
  55.8163831  71.9979463  98.6252762  56.3503106  72.3864242  99.3895442
  56.0537207  70.5814786  98.2493320  56.5982364  70.4900148  97.3095255
  56.8241092  69.8563132  99.3256022  56.8576590  68.7990235  99.0627083
  58.2466033  70.3874713  99.4787128  58.2138565  71.4446683  99.7420790
  58.7592189  69.8333871 100.2650429  58.7841626  70.2642670  98.5385260
  56.0905944  69.9653001 100.5523507  56.5656372  69.5091524 101.2508233
  54.7508982  69.8210031  97.8666800  54.6893402  69.1624410  96.8233389
  53.6981668  69.9968065  98.6920616  53.8431924  70.5800333  99.5037965
  52.3869741  69.3814589  98.5071211  52.3716354  68.7933904  97.5894942
  52.0862240  68.4554598  99.6859040  51.4210578  67.6569182  99.3572941
  53.0174615  68.0239631 100.0529290  51.4633191  69.1909630 100.7273211
  51.2764786  68.6056395 101.4649435  51.2510150  70.4212664  98.3837583
  51.4563787  71.6071137  98.6231346  50.0374945  69.9299379  98.0975587
  49.9935769  68.9526037  97.8465838  48.8156361  70.7136026  98.0319035
  49.0547863  71.7762634  98.0726284  48.0716089  70.4306205  96.7293842
  48.1845265  69.3523109  96.6171470  47.0144844  70.6760883  96.8310384
  48.6360506  71.1267828  95.5084737  49.7221778  71.1685624  95.5902240
  48.2579455  70.3788526  94.2690198  47.1718908  70.3370532  94.1863341
  48.6688589  70.8879842  93.3972195  48.6572400  69.3658669  94.3192635
  48.2038604  72.5853114  95.4538655  48.5601429  73.1039414  96.3439133
  48.6254373  73.0567265  94.5660919  47.1160814  72.6411625  95.4124330
  47.9266740  70.4574462  99.2697659  48.0161754  69.3770207  99.8682642
  47.0827941  71.4340491  99.6898844  46.9277678  72.7349653  99.1860452
  46.2360622  72.7035954  98.3442260  47.8981625  73.0957125  98.8450255
  46.3907296  73.5375798 100.3491093  45.8249367  74.3999086  99.9964529
  47.2021146  73.8750659 100.9939805  45.4881783  72.5373532 101.0826792
  44.4725729  72.4091717 100.7082274  45.4543046  72.8084238 102.1378915
  46.2714740  71.2472401 100.9036290  46.9857137  71.1881284 101.7248876
  45.3393211  70.0248013 100.9469124  45.0035167  69.5683220 102.0449775
  44.9332592  69.5041188  99.7656900  45.2904836  69.9795117  98.9493006
  44.0229769  68.3697147  99.5677420  43.5287178  68.1122300 100.5044964
  42.9507425  68.7507912  98.5354822  42.4078858  67.8436326  98.2700219
  42.2515706  69.4916415  98.9232959  43.5051609  69.3115863  97.2534303
  43.9666809  68.6133877  96.1783340  43.8977958  67.5267574  96.2292169
  44.4405134  69.4797323  95.2202428  44.8137487  69.2130591  94.3204204
  44.2787292  70.7663711  95.6655061  44.5516233  71.9856682  95.0377136
  44.9710481  71.9709459  94.0317490  44.2701700  73.1371628  95.7375930
  44.4817924  74.1054951  95.2841083  43.7177339  73.0961232  97.0200423
  43.4964481  74.0140319  97.5646300  43.4346126  71.8887455  97.6380709
  43.0040374  71.9133233  98.6391212  43.7011340  70.6949811  96.9496503
  44.7291814  67.1013935  99.1000950  44.0616165  66.1645549  98.6406263
  46.0711366  67.0666298  99.2070418  46.5482792  67.8936040  99.5365080
  46.8774078  65.9405123  98.7432433  46.4700233  65.5608010  97.8062500
  48.3261487  66.3664266  98.5088170  48.3264388  67.4340338  98.2890126
  48.8782335  66.1857421  99.4311268  48.9905609  65.6121589  97.3634286
  49.2421496  64.6074080  97.7029573  48.3116153  65.5484005  96.5130936
  50.2497414  66.2982364  96.9212623  50.2572465  67.4998853  96.6453607
  51.3422376  65.5531403  96.8264000  52.2123960  65.9732943  96.5324675
  51.2993207  64.5687982  97.0485042  46.8171495  64.7010376  99.6325944
  46.5700553  63.6139897  99.1092547  47.0461917  64.8626755 100.9354723
  47.2086893  65.7952482 101.2876116  47.0735297  63.7471523 101.8848977
  47.4662131  62.8851752 101.3455515  47.7677362  64.0262295 102.6775469
  45.7403163  63.3759519 102.5046859  45.6590747  63.1421351 103.7192552
  44.6833030  63.3525854 101.6670853  44.8711438  63.6076900 100.7080562
  43.3031767  63.0359442 102.0441525  43.2187788  63.0321216 103.1308731
  42.3019612  64.0781592 101.4718550  42.3140966  63.8616781 100.4036378
  41.3297889  63.8098879 101.8853904  42.5554087  65.5719226 101.6924274
  43.4918161  65.8477162 101.2074740  41.4291605  66.3909899 101.1128536
  40.4924286  66.1160665 101.5976724  41.6265268  67.4500161 101.2790186
  41.3535078  66.1996102 100.0424560  42.7123924  65.9116165 103.1570509
  43.5566867  65.3596667 103.5701104  42.8904317  66.9815098 103.2653635
  41.8034141  65.6389587 103.6932553  42.9430084  61.6317984 101.5474237
  42.5896998  61.4489758 100.3758855  43.0594288  60.6392230 102.4329808
  43.4884465  60.8315630 103.3268759  42.7368976  59.2578885 102.1051369
  42.7875870  59.1227182 101.0247394  43.7245311  58.2704289 102.7742764
  43.9865070  58.6823028 103.7488675  43.1985813  57.3253115 102.9092947
  45.0073034  58.0313282 101.9568695  45.3174698  58.9785891 101.5157411
  45.7850800  57.6732866 102.6313855  44.7790146  56.9912145 100.8356230
  44.5750208  56.0362300 101.3198648  43.8993445  57.3095770 100.2762257
  45.9465097  56.8369764  99.8915729  46.1918914  57.8188590  99.4868571
  46.7963487  56.4549753 100.4572124  45.6345979  55.9035827  98.7739377
  44.8474157  56.2575912  98.2494171  46.4372305  55.8265614  98.1657036
  45.4076105  54.9935752  99.1487204  41.2736092  58.9099219 102.4001811
  40.6515587  59.4655925 103.3115039  40.7295201  58.0173598 101.5639096
  41.3462219  57.7195834 100.8215434  39.3847525  57.4506878 101.6159193
  39.0420844  57.2392812 102.6288285  38.3928772  58.3874010 100.9545143
  38.7176427  58.6012090  99.9362247  37.4093823  57.9180725 100.9306686
  38.3375067  59.3173082 101.5204700  39.4441462  56.1177853 100.8655251
  40.2339967  55.9848388  99.9167662  38.6454731  55.1277718 101.3090830
  38.0967554  55.3040819 102.1384942  38.6067452  53.7883794 100.7241095
  39.5870228  53.3466849 100.9031652  37.5529872  52.9390621 101.4293261
  36.5649259  53.3636490 101.2516721  37.5858813  51.9213959 101.0402583
  37.7544633  52.9246761 102.5004468  38.3816043  53.7923439  99.1983671
  39.2411883  53.3069786  98.4468879  37.2601904  54.3820144  98.7487924
  36.5804193  54.6953368  99.4269072  36.9016803  54.4355427  97.3321008
  37.5467435  53.7887799  96.7373819  35.4306735  54.0009686  97.1163480
  35.3543749  52.9516947  97.4014850  34.4344849  54.8175927  97.9209282
  34.5098761  55.8669855  97.6359884  33.4246692  54.4590852  97.7213195
  34.6529363  54.7136282  98.9837410  35.1165255  54.1059289  95.7298018
  34.2057451  53.8382345  95.5869062  37.2356183  55.7924357  96.6936308
  37.2762636  56.8172293  97.3836417  37.4564615  55.7793162  95.3602512
  37.4666988  54.8730949  94.9144290  37.7584466  56.9581674  94.5444591
  38.6519304  57.4460070  94.9340724  38.0068540  56.5791479  93.0725899
  37.0780293  56.1556442  92.6904530  38.2315050  57.5023040  92.5383476
  39.1402148  55.5849839  92.8655122  40.0294988  55.9675382  93.3664384
  38.8511163  54.6349136  93.3148345  39.4409302  55.3763290  91.3869523
  38.5255104  55.0476420  90.8949458  39.7575472  56.3299730  90.9645590
  40.5260925  54.3453678  91.1725350  41.4210771  54.6786700  91.6979043
  40.1868529  53.4005187  91.5971241  40.8391803  54.1566793  89.7313016
  41.1539575  55.0319821  89.3377791  41.5661396  53.4624687  89.6328033
  40.0101059  53.8474228  89.2443776  36.6434984  58.0124800  94.6481582
  36.9500324  59.1966555  94.6318359  35.3641717  57.5928300  94.7902071
  35.1924223  56.5988675  94.7388260  34.2055354  58.4971416  94.9176562
  34.2236520  59.2352959  94.1158462  32.8948395  57.7074709  94.8269505
  32.9112580  57.1467369  93.8923881  32.8692027  57.0127575  95.6664837
  31.6452668  58.6033917  94.8649895  31.6142750  59.0923979  95.8386493
  31.7501725  59.3564408  94.0839556  30.3583723  57.8252705  94.6482318
  30.4564764  57.2218857  93.7457900  30.1901500  57.1723778  95.5046966
  29.1709167  58.7835854  94.4954059  29.3855936  59.4501522  93.6601197
  28.2881339  58.1868694  94.2657893  28.9182582  59.5933383  95.7265456
  29.7359906  60.1466677  95.9392425  28.1292180  60.2044611  95.5714827
  28.7188923  58.9758859  96.5005642  34.2506816  59.3392271  96.2082680
  33.7660505  60.4813609  96.2238265  34.8299719  58.7484799  97.2850069
  35.1216834  57.7924409  97.1401168  35.0334720  59.3458620  98.6134907
  34.1908156  59.9879935  98.8698037  35.1453065  58.2293462  99.6772155
  35.8364022  57.4788451  99.2935045  35.5605443  58.6770137 100.5801393
  33.8104709  57.5701033 100.0049389  33.1844889  58.3529167 100.4332502
  33.3536614  57.2023357  99.0861493  33.8987509  56.4235480 100.9953164
  34.9165396  55.7308546 101.1558494  32.7924658  56.1716609 101.6614284
  32.7738832  55.4226840 102.3387686  31.9669326  56.7284440 101.4923461
  36.3120967  60.2224102  98.6173993  36.3611137  61.2499214  99.3021635
  37.3480941  59.7725680  97.8709589  37.1908791  58.8955049  97.3954139
  38.6541792  60.4221094  97.7180019  39.1485866  60.5106520  98.6853802
  39.5461662  59.5710660  96.7828830  39.2139139  58.5387369  96.8924468
  39.3440363  59.9114177  95.7673022  41.0481094  59.6548595  97.0588093
  41.5626187  59.6654567  96.0979406  41.2382094  60.5917193  97.5825054
  41.5704061  58.4736591  97.9099273  42.5104797  58.7925192  98.3601370
  40.8354843  58.2926543  98.6942911  41.7947765  57.1954375  97.1225103
  40.8412223  56.8903806  96.6914938  42.5028207  57.4096849  96.3219663
  42.3273931  56.0977419  97.9748346  41.6712531  55.8987673  98.7164471
  42.4611665  55.2695338  97.4124503  43.2111838  56.3800475  98.3739796
  38.4954169  61.8409766  97.1379748  39.2117537  62.7494269  97.5528744
  37.5361828  62.0140435  96.1941004  37.0200514  61.1741118  95.9745044
  37.2075636  63.2451901  95.4619464  38.1180561  63.8020846  95.2406521
  36.5089073  62.9000110  94.1374722  35.6780442  62.2170480  94.3144674
  36.1206954  63.8749467  93.8426978  37.3864537  62.3510796  93.0317929
  38.3743373  61.4073455  93.2981856  38.5441966  61.1056499  94.3317363
  39.1400317  60.8496147  92.2738310  39.9134552  60.1169055  92.5041682
  38.9173562  61.2325642  90.9607133  39.6771756  60.7203789  89.9366617
  40.3431427  60.0983321  90.2385646  37.9147043  62.1403190  90.6709885
  37.7233439  62.4331302  89.6386401  37.1475596  62.6814089  91.7032786
  36.3414211  63.3787500  91.4753397  36.3136259  64.1802324  96.2609684
  36.4657622  65.3948689  96.1408075  35.3687390  63.6295617  97.0441488
  35.2305008  62.6302805  96.9948889  34.4464106  64.4201398  97.8692298
  33.9356169  65.1422963  97.2323004  33.3891944  63.5474441  98.5693982
  33.9272983  62.7319217  99.0525822  32.9206035  64.1732106  99.3289631
  32.3116914  62.9716452  97.6473960  31.8022738  63.8067977  97.1666520
  32.8231586  62.3752097  96.8919059  31.2912535  62.1047330  98.3728411
  31.0728940  60.9363511  97.9624354  30.7080335  62.5875985  99.3669263
  35.2175647  65.2948707  98.8710323  34.7682947  66.3932876  99.2062663
  36.3972865  64.8049397  99.3135920  36.6243902  63.8600228  99.0385370
  37.2905187  65.4886648 100.2482921  36.6968479  66.0696840 100.9540335
  38.1577469  64.4842325 101.0416754  38.5414458  63.7474007 100.3360172
  38.9900366  65.0366298 101.4778531  37.3803485  63.7701974 102.1532970
  36.9546779  64.5374291 102.8000280  36.5758083  63.2069552 101.6804595
  38.2415613  62.8251136 102.9849761  38.6468744  62.0556045 102.3279556
  39.0601588  63.3960369 103.4232046  37.4367752  62.1747894 104.0845628
  37.0359793  62.9608084 104.7245921  36.6143789  61.6254830 103.6262769
  38.2592104  61.2452374 104.8990063  39.0210699  61.7541237 105.3240999
  37.6857373  60.8326221 105.6207938  38.6303424  60.5165756 104.3062060
  38.1278692  66.5407561  99.5204591  38.1224295  67.6943425  99.9375715
  38.8048736  66.1504797  98.4140675  38.8014054  65.1611185  98.2109620
  39.6065304  67.0354356  97.5560509  40.4191825  67.5159995  98.1008022
  40.1873931  66.2501851  96.3455431  39.3858609  65.6653787  95.8942693
  40.7844343  67.2082174  95.2880840  41.5863976  67.7930748  95.7385253
  41.1820041  66.6284432  94.4550769  40.0062319  67.8792154  94.9244056
  41.2351143  65.2100009  96.8179403  42.0828976  65.7819660  97.1950613
  40.7720039  64.6633794  97.6394226  41.7258270  64.2078751  95.7429283
  42.1895035  64.7537691  94.9212813  42.4550684  63.5286862  96.1845262
  40.8786088  63.6351837  95.3656408  38.7553198  68.2391312  97.1176770
  39.1495736  69.3867257  97.3536978  37.5670650  67.9562416  96.5310912
  37.3666601  66.9790093  96.3731216  36.6025333  68.9465205  96.0577075
  37.0507465  69.5475714  95.2665426  35.3566544  68.2623525  95.5037266
  35.5851394  67.8856264  94.5067455  35.1024783  67.4279803  96.1574220
  34.2576873  69.1573626  95.4305266  33.4924794  68.6964136  95.0789831
  36.2161447  69.9336395  97.1505593  36.2980612  71.1462158  96.9323426
  35.8004979  69.4107037  98.3301947  35.6536199  68.4131292  98.3882572
  35.3987861  70.2370614  99.4657081  34.7859646  71.0611762  99.1004905
  34.5903444  69.4490425 100.5121554  35.0910175  68.4903690 100.6476941
  34.6331828  70.0154564 101.4424458  33.1246633  69.2101374 100.1262636
  33.2077917  68.6438402  99.1986333  32.7208239  68.5675857 100.9086575
  32.1921006  70.4002775  99.9137659  32.4550906  71.4925992 100.4707287
  31.1707715  70.2260160  99.2089484  36.5793833  70.9848384 100.0935145
  36.3850638  72.1013923 100.5666808  37.8045731  70.4089856 100.0458864
  37.8705740  69.4593676  99.7082936  39.0181752  71.0482049 100.5654897
  38.7934902  71.5147513 101.5246302  40.1595335  70.0326803 100.7672247
  39.7684025  69.2469234 101.4135233  40.3848070  69.6162794  99.7854090
  41.4387011  70.6101417 101.3825209  42.1723867  69.8048199 101.4180605
  41.7932643  71.3947334 100.7140876  41.2456242  71.1852721 102.7854259
  40.3705303  71.8350488 102.7754341  41.0769247  70.3600929 103.4773212
  42.4514872  71.9737628 103.2287655  43.2641912  71.2739310 103.4233116
  42.7368749  72.6451290 102.4188763  42.1771977  72.7648334 104.4526889
  41.9131503  72.1428799 105.2033903  43.0071923  73.2767089 104.7157333
  41.4244437  73.4136736 104.2725034  39.4225371  72.2065138  99.6542565
  39.7430617  73.2799469 100.1594410  39.3314630  72.0122979  98.3162151
  39.0819697  71.0864584  97.9989240  39.5794294  73.0524866  97.3060016
  40.6058933  73.4103093  97.3862133  39.3660672  72.4863065  95.8948427
  38.4517504  71.8932158  95.9140162  39.2363780  73.3311620  95.2184553
  40.5101295  71.6299498  95.4150388  41.3942211  72.2629215  95.3386867
  40.6833101  70.8531197  96.1597840  40.2381832  71.0029464  94.1030384
  39.5866957  70.1389021  94.2337692  39.7571430  71.7232209  93.4412950
  41.5360357  70.5623382  93.5013173  42.0320894  71.4379081  93.0824992
  42.1533685  70.1402341  94.2943038  41.3405264  69.5555885  92.4427952
  40.7688733  69.9466638  91.7076948  42.2374647  69.2862267  92.0645810
  40.8812697  68.7440097  92.8307671  38.6326487  74.2367774  97.5122600
  39.0459832  75.4005968  97.4417687  37.3563129  73.9233368  97.7804223
  37.0948662  72.9480262  97.7577438  36.3107933  74.9134244  97.9965174
  36.4249505  75.7385032  97.2934439  34.9477831  74.2797006  97.7836078
  34.8581530  73.4409499  98.4739433  34.1912053  75.0275442  98.0211364
  34.7464299  73.7936415  96.3770754  34.9136731  74.6274886  95.6952914
  35.4743030  73.0079245  96.1747104  33.0917840  73.1453048  96.1218095
  32.1762329  74.7184130  95.9306917  32.5754675  75.2707199  95.0800050
  31.1202852  74.5067263  95.7625734  32.2868859  75.3160407  96.8355112
  36.3947498  75.5935595  99.3568488  35.9395388  76.7340246  99.4907233
  36.9526820  74.9025561 100.3733089  37.2020974  73.9323675 100.2443699
  37.1045007  75.4874742 101.7085515  36.3157882  76.2224300 101.8693983
  37.0143472  74.4276234 102.8035322  37.0465479  74.9424980 103.7637231
  36.0546250  73.9224533 102.6947364  38.0612137  73.4714207 102.7445581
  37.9524868  72.8337652 103.4539055  38.3985516  76.2955886 101.8163679
  38.4748311  77.1736839 102.6740386  39.3924633  76.0240602 100.9159731
  39.2508702  75.2220146 100.3186679  40.6906807  76.7095606 100.8653393
  40.9250484  77.1450935 101.8366694  41.8382026  75.7431438 100.4649884
  41.6983551  75.4765182  99.4173941  43.2125646  76.3517865 100.6515717
  43.3533321  76.6182610 101.6990808  43.9735186  75.6297290 100.3554619
  43.3012999  77.2460006 100.0346375  41.7673751  74.5510074 101.2350567
  42.4808522  73.9618940 100.9791344  40.6554381  77.9756687  99.9822519
  40.7546671  77.8603414  98.7499097  40.5723328  79.1943388 100.5889459
  40.2055304  79.5696446 101.9372562  41.1061934  79.5576892 102.5510668
  39.4985382  78.8315234 102.3159886  39.5957226  80.9488260 101.8278297
  39.6890718  81.4896756 102.7695657  38.5440735  80.8860315 101.5482007
  40.4189059  81.6124892 100.7168584  41.3719229  81.9928934 101.0844864
  39.8913938  82.4059925 100.1875350  40.6573665  80.4360981  99.7837670
  39.8527428  80.4396945  99.0484671  42.0021814  80.5119002  99.0656975
  42.9865836  79.9755532  99.5892003  42.0458007  81.1293476  97.8521934
  41.1725298  81.4152018  97.4329267  43.2735221  81.1983948  97.0308887
  43.7788754  80.2375366  96.9335814  43.1049923  81.8185908  95.6108532
  43.9142152  81.4326809  94.9909088  41.7655793  81.4999603  94.9542046
  40.9558287  81.8859946  95.5733833  41.7231199  81.9656749  93.9696196
  41.6593044  80.4201969  94.8497142  43.3924848  83.2964210  95.5895040
  44.4185658  83.4721866  95.9125617  43.2604105  83.6781984  94.5771295
  42.7068975  83.8102362  96.2633473  44.4306765  81.8330567  97.8440203
  45.5659276  81.3704262  97.7595582  44.0966762  82.8200860  98.6922101
  43.1204404  83.0776165  98.6649869  44.9874096  83.5643185  99.5888891
  45.8128694  83.9984912  99.0247886  44.2015730  84.7060615 100.2717864
  43.3087396  84.2591910 100.7091128  44.8372831  85.0979308 101.0657708
  43.7951083  85.8446475  99.3362174  43.3776422  86.6102289  99.9902113
  44.7486583  86.1895943  98.9364008  42.8297773  85.5768219  98.1872198
  41.9706156  84.6688039  98.3043670  42.9249777  86.3030926  97.1705198
  45.6161576  82.6520154 100.6490820  46.7459293  82.9044821 101.0806576
  44.8824912  81.5899868 101.0559527  43.9192935  81.5363909 100.7568257
  45.3577905  80.6179822 102.0290640  46.0376513  81.0805920 102.7445224
  44.2032220  79.9213660 102.8164307  43.5117570  79.4854101 102.0953773
  44.7293153  78.8230920 103.7480085  45.4205387  79.2583938 104.4696896
  43.8942338  78.3637559 104.2769221  45.2477156  78.0652358 103.1606272
  43.3926874  80.9417138 103.6145114  42.9592494  81.6745936 102.9339816
  42.5948926  80.4310499 104.1538122  44.0449315  81.4483682 104.3258340
  46.3085018  79.6480838 101.3359325  47.4014250  79.3918344 101.8508035
  45.9103498  79.1308617 100.1641683  44.9753306  79.3259451  99.8358683
  46.7492754  78.2344953  99.3726854  47.0282487  77.3612071  99.9622961
  45.9710232  77.7601437  98.1260889  45.2306467  77.0648360  98.5216760
  45.4657973  78.6390687  97.7256670  46.7779781  77.0680964  96.9958397
  47.6851334  77.6463551  96.8203775  47.1448230  75.6603427  97.3525304
  46.2381068  75.0813085  97.5276988  47.7086893  75.2127697  96.5340965
  47.7550078  75.6610608  98.2557327  46.0061264  77.0466826  95.7173161
  45.7831011  78.0683410  95.4097884  46.5967913  76.5557300  94.9438940
  45.0744024  76.5003278  95.8638965  48.1003983  78.8994370  98.9563040
  49.1534591  78.2556528  99.0595067  48.0545654  80.1843779  98.5122612
  47.1382769  80.6062918  98.4622270  49.2001601  80.9398231  97.9819619
  49.9774522  80.2489872  97.6553704  48.7741099  81.7963892  96.7878698
  48.0694868  82.5659588  97.1030969  49.6427842  82.2666375  96.3270322
  47.9500341  80.8706224  95.4742988  47.7527347  81.9130671  94.6722512
  49.9548472  81.7807453  99.0236495  50.8293921  82.5748746  98.6341922
  49.6555473  81.5920629 100.3247719  48.9171402  80.9418204 100.5528923
  50.2876132  82.3401433 101.4196611  50.1797647  83.4097801 101.2398135
  49.6309492  81.9986755 102.7773923  48.5522575  81.9620768 102.6251292
  49.9880564  81.0146918 103.0812848  49.9568160  83.0180475 103.8688173
  50.9338761  83.4476598 103.6477116  49.1998530  83.8016011 103.8348647
  49.9794345  82.3951196 105.2564579  48.9891814  81.9914902 105.4676002
  50.7090367  81.5853175 105.2572314  50.3474146  83.4042811 106.3163992
  51.3018916  83.8541388 106.0430820  49.5761943  84.1742665 106.3374016
  50.4610420  82.7800478 107.6616054  51.1759199  82.0668275 107.6424718
  50.7077793  83.4859301 108.3405390  49.5765835  82.3635123 107.9152397
  51.7883261  82.0962786 101.4781647  52.2236837  80.9467953 101.4238234
  52.5486504  83.1855655 101.5733750  52.0877993  84.0837412 101.6049348
  54.0079930  83.1533386 101.6345096  54.3411467  84.0170703 102.2099012
  54.3044605  82.2388719 102.1482772  54.6662071  83.1871618 100.2666616
  55.8949436  83.2849526 100.1609753  53.8454788  83.1105354  99.2044218
  52.8617025  82.9570108  99.3738733  54.3159384  83.1188326  97.8250973
  55.4021031  83.0294130  97.8063992  53.7081423  81.9345230  97.0333880
  52.6263386  81.8377603  97.1252406  53.9748472  82.0416889  95.9819680
  54.3001747  80.6248090  97.4980824  55.5583350  80.2247636  97.0724613
  56.1047799  80.8439481  96.3610483  56.1271160  79.0374545  97.5483995
  57.1072591  78.7268519  97.1865344  55.4527224  78.2598555  98.4725867
  55.9068534  77.3474124  98.8589965  54.2072561  78.6414194  98.9026004
  53.6671370  78.0246372  99.6208978  53.6290985  79.8232655  98.4191631
  52.6405481  80.1269466  98.7636133  54.0434496  84.4576527  97.1679485
  53.2279223  85.2055424  97.7082976  54.7019846  84.8126602  96.0291103
  55.8077363  84.2103292  95.3321422  55.4156964  83.4515042  94.6549498
  56.4616738  83.7389153  96.0657863  56.4863147  85.3463640  94.6008622
  57.0277467  84.9777010  93.7296344  57.1757641  85.8738543  95.2600396
  55.3183412  86.2524006  94.1922602  54.8047732  85.9140080  93.2923505
  55.6139097  87.2945491  94.0711595  54.3999938  86.1101243  95.3959053
  54.6623092  86.9022833  96.0971706  52.9209303  86.2314375  95.0200952
  52.2811575  85.2415003  94.6619039  52.3728461  87.4468334  95.1625685
  52.9747014  88.1670027  95.5356981  50.9760765  87.7809068  94.8963796
  50.3811602  87.2886691  95.6657143  50.7761063  89.2805165  95.0142132
  51.3585159  89.7868476  94.2444548  49.7201434  89.5180218  94.8852415
  51.1058169  89.6153867  95.9977029  50.4747502  87.2930696  93.5447110
  49.2889117  86.9804884  93.4251911  51.3777446  87.2002015  92.5475663
  52.3102914  87.5040626  92.7886557  51.1100081  86.7950313  91.1439074
  50.4006589  87.4884068  90.6920742  52.3922001  86.8056173  90.3214862
  53.1617717  86.3062044  90.9100825  52.2021554  86.2339907  89.4130667
  52.8642562  88.2017259  89.9515429  53.5019499  88.0635900  89.0784071
  51.9401641  88.6957588  89.6514021  53.5876843  89.0602906  90.9761245
  53.7901277  88.6132597  92.1299932  53.9832039  90.1868389  90.6015486
  50.4171947  85.4405504  91.0190585  49.5653803  85.2737779  90.1420356
  50.7830733  84.4840295  91.8995450  51.5861934  84.6720098  92.4824350
  50.1803976  83.1604214  91.9610078  50.1400286  82.7281201  90.9612153
  50.9996342  82.2356460  92.8601151  51.2198848  82.6703633  93.8351073
  50.4765554  81.2888885  92.9947959  52.3280415  81.9081801  92.2233766
  52.4129079  80.9658042  91.1889065  51.5106595  80.4388002  90.8785606
  53.6370399  80.6964710  90.5544567  53.6863203  79.9710211  89.7424256
  54.7807402  81.3546160  90.9629854  55.7361305  81.1454760  90.4817476
  54.7098132  82.2900848  91.9957261  55.6140920  82.8089090  92.3138477
  53.4874632  82.5644173  92.6228388  53.4408264  83.2961864  93.4293368
  48.7049567  83.2190470  92.3654964  47.8786493  82.5070935  91.7735983
  48.3553782  84.1110037  93.3278945  49.0701811  84.6233031  93.8245890
  46.9677306  84.3103130  93.7168136  46.4771637  83.3426936  93.8224354
  46.8772374  85.0469887  95.0405877  47.3562372  86.0217163  94.9480385
  45.8299858  85.1816016  95.3112234  47.3804035  84.4674944  95.8146092
  46.2310934  85.0698391  92.6151822  45.1134315  84.6954600  92.2783469
  46.8767879  86.0834768  92.0041835  47.7761547  86.3613117  92.3703071
  46.3081843  86.8573734  90.8817384  45.3804582  87.3281971  91.2069284
  47.2752787  87.9580740  90.3925886  48.2360826  87.4807995  90.1998084
  46.8714793  88.3507192  89.4593813  47.4642514  89.0926074  91.3772623
  46.5195851  89.6286770  91.4685641  47.7346831  88.6668731  92.3435536
  48.7602915  90.2518344  90.8516933  48.9615845  91.2522594  92.3955201
  49.2619528  90.5997537  93.2153458  49.7259873  92.0133334  92.2388184
  48.0155396  91.7337746  92.6429944  45.9191370  85.9308562  89.7133900
  44.8355591  86.0874818  89.1368605  46.8016795  84.9454563  89.4081576
  47.6828944  84.9822187  89.9003041  46.6287076  83.9308232  88.3742711
  46.4257114  84.4153552  87.4192211  47.9020873  83.0619478  88.2275547
  48.7410237  83.7082018  87.9694062  48.0860172  82.5984000  89.1967778
  47.7525463  81.9885526  87.1771751  47.1255904  80.7772249  87.4745714
  46.8117818  80.5871054  88.5009622  46.8995290  79.8234895  86.4917728
  46.3648410  78.9039142  86.7296634  47.3718453  80.0360612  85.2118792
  47.1663745  79.0794497  84.2619707  46.6898606  78.3157659  84.5956191
  48.0292729  81.2157368  84.8967736  48.4009914  81.3870017  83.8865290
  48.2135334  82.1851727  85.8806623  48.7264056  83.1161663  85.6391811
  45.3807180  83.0822712  88.6373039  44.4910518  83.0710331  87.7857818
  45.2944446  82.4133589  89.8224180  46.1100104  82.4120592  90.4181948
  44.1419446  81.5746651  90.2109041  43.9229241  80.8737257  89.4054147
  44.4203494  80.7803337  91.4877288  44.9364732  81.5315622  92.0855342
  43.5083090  80.4732198  91.9995523  45.3333593  79.5637636  91.2972052
  46.1291117  79.8334591  90.6028398  45.9410212  79.1159795  92.6127695
  45.1458383  78.8456598  93.3075431  46.5826895  78.2516373  92.4416701
  46.5318534  79.9283843  93.0358726  44.6156123  78.4371698  90.5429218
  44.3081185  78.7954049  89.5604684  45.2913890  77.5900929  90.4250745
  43.7366186  78.1243877  91.1065141  42.8175837  82.3491828  90.3148825
  41.7947906  81.8554578  89.8362219  42.8360669  83.5601408  90.8789820
  43.6795027  83.8694510  91.3405475  41.6549697  84.4137485  90.9515712
  40.8248282  83.8546274  91.3832515  41.9242319  85.6424376  91.8251356
  42.9409383  85.9567523  91.5893103  41.2270464  86.4345882  91.5521337
  41.8256152  85.4044745  93.3128823  41.0452474  84.5717700  93.8053765
  42.6027835  86.1837208  94.0546838  42.5961544  86.0881136  95.0601265
  43.1972567  86.8687421  93.6103323  41.1235129  84.8355353  89.5659289
  39.9049973  84.9030445  89.3725275  42.0349626  85.1199553  88.6080674
  43.0090805  85.1176717  88.8748792  41.6923425  85.5005615  87.2390051
  41.0325003  86.3680479  87.2522263  42.9692078  85.8614689  86.4368713
  43.2938603  86.8145572  86.8543909  43.7514340  85.1164183  86.5822049
  42.6982000  86.0254552  84.9581846  42.2927939  87.2486656  84.4350372
  42.2242464  88.1079578  85.1021337  41.9759659  87.3881950  83.0807989
  41.6703155  88.3570389  82.6858038  42.0213248  86.2851612  82.2481038
  41.7004517  86.4120840  80.9249092  41.4589172  87.3088473  80.6818528
  42.4206569  85.0609852  82.7458115  42.4702993  84.1920744  82.0895874
  42.7610253  84.9380472  84.0922667  43.0846858  83.9749033  84.4868524
  40.8939824  84.3755221  86.5295782  39.8684126  84.6552176  85.8920744
  41.4130777  83.1144338  86.6371946  42.2743075  83.0819494  87.1638133
  40.9260665  81.8741536  86.0231374  40.7553397  82.0296572  84.9578815
  41.9567633  80.7567065  86.1950589  42.1673509  80.5915398  87.2516913
  41.5936224  79.8310774  85.7484724  43.5534147  81.0992117  85.4123996
  44.1316008  79.9560965  85.7700121  39.5913663  81.4623886  86.5564542
  38.7341733  80.9530375  85.8223754  39.4296049  81.6519857  87.8612857
  40.2153575  81.9712152  88.4097243  38.2096396  81.2946048  88.5534335
  37.7961827  80.3765790  88.1358438  38.5031150  81.0678870  90.0358586
  39.2059119  81.8321378  90.3676666  37.5698449  81.1680685  90.5899981
  39.0937684  79.6966244  90.2865486  38.3116397  78.9677535  90.0741276
  39.9125812  79.5667980  89.5788815  39.6070807  79.4892054  91.6949988
  39.8471414  78.4328062  91.8153752  40.5130093  80.0831859  91.8157462
  38.6502085  79.8750347  92.7363808  37.8549152  80.4252328  92.4450220
  38.7782453  79.5774789  94.0286795  39.8020918  78.8302483  94.4483303
  40.4812144  78.4900227  93.7826434  39.8927692  78.6086510  95.4295397
  37.8752632  79.9903914  94.9053394  37.0840441  80.5345945  94.5924248
  37.9820988  79.7591429  95.8826873  37.1277358  82.3310062  88.2970878
  35.9387805  82.0325432  88.4372138  37.5642465  83.5140280  87.8654551
  38.5673750  83.6128788  87.8017281  36.7311296  84.6515340  87.4862806
  35.8552246  84.6556511  88.1350275  37.3098788  85.5601471  87.6523259
  36.2740264  84.6146435  86.0396414  35.4046752  85.4016895  85.6538422
  36.8360573  83.7028077  85.2210654  37.5854541  83.1121697  85.5522008
  36.4360449  83.5963532  83.8098594  36.3380643  84.6041743  83.4063800
  37.4430899  82.8105826  82.9377573  37.4988005  81.8491221  83.4482368
  36.9625418  82.6793069  81.9682522  38.8458800  83.3592481  82.7372378
  39.2161215  83.7511602  83.6845640  39.7635529  82.2682323  82.2528598
  39.3941903  81.8761162  81.3052760  40.7662587  82.6718805  82.1123250
  39.7954824  81.4657597  82.9898256  38.8692783  84.4974814  81.7770381
  38.2398803  85.3039339  82.1533252  39.8918819  84.8576683  81.6645727
  38.4932209  84.1650687  80.8094734  35.0549036  82.9661016  83.6277590
  34.6799104  82.0289509  84.3567601  34.3181477  83.4599287  82.6010212
  34.6598712  84.2604593  82.0886978  33.0371390  82.8909945  82.2161114
  32.4740442  82.6332510  83.1131018  32.2084389  83.8785460  81.3837844
  32.8360281  84.1848638  80.5468850  31.3478215  83.3249512  81.0083241
  31.7272533  85.1165216  82.1389181  31.1090890  84.7770061  82.9700035
  32.6071989  85.6294495  82.5271226  30.9190917  86.0810471  81.2616803
  29.9251904  85.6598298  81.1105672  30.8337546  87.0338070  81.7842371
  31.5355694  86.3180902  79.9467921  31.2494145  85.6910026  79.2085674
  32.4218944  87.2756293  79.6617258  32.8249655  88.1231367  80.6087312
  32.4578724  88.0400668  81.5459836  33.4955545  88.8443495  80.3845392
  32.9122226  87.3931122  78.4303160  32.6122821  86.7545399  77.7075704
  33.5820883  88.1203166  78.2240339  33.3388430  81.6268144  81.4049805
  34.4056314  81.5032841  80.8033106  32.3877161  80.6984313  81.3941877
  31.6043874  80.8735247  82.0072438  32.4360457  79.4287614  80.6802385
  33.1183773  78.7433140  81.1829159  31.0290641  78.7877703  80.6444184
  30.7227916  78.5394550  81.6606053  30.2993319  79.4651358  80.2008343
  30.9675603  77.5054618  79.8491127  31.6023747  76.3518318  80.3052944
  32.1266902  76.3768718  81.2605777  31.5730142  75.1780573  79.5582192
  32.0704091  74.2820450  79.9295156  30.9193076  75.1493901  78.3571498
  30.9140440  74.2352711  77.7634676  30.2666293  76.2759810  77.8961964
  29.7249281  76.2393001  76.9510433  30.2990524  77.4550419  78.6341242
  29.7973010  78.3469037  78.2587206  33.0363317  79.5223355  79.2770187
  34.0153226  78.8402951  79.0146437  32.4555005  80.3421813  78.3934883
  31.6292133  80.8255879  78.7154615  32.8716795  80.5294894  77.0008323
  33.2755931  79.6048469  76.5885347  31.6430297  80.9349261  76.1816072
  31.8940531  80.7564779  75.1360247  30.8359186  80.2659756  76.4802321
  31.1924002  82.3886217  76.3573350  32.0584855  82.9409311  75.9927101
  30.3598939  82.5219895  75.6665054  30.7991239  82.9119809  77.7330373
  30.1780305  82.1596802  78.5249442  31.0795803  84.1051198  77.9957573
  34.0269358  81.5626681  76.7881926  34.4976322  81.7431696  75.6539695
  34.4567403  82.2396939  77.8729056  33.9740235  82.0581095  78.7413012
  35.4715593  83.2895160  77.8513429  35.3183169  83.9387177  76.9892796
  35.3797063  84.1321364  79.1180393  34.3241534  84.3657890  79.2570131
  35.7215949  83.4977195  79.9357968  36.1860376  85.4204315  79.1055597
  37.2197460  85.1432051  78.8989361  35.7981083  86.0162455  78.2793541
  36.1267958  86.2327393  80.3861003  35.3624194  85.8684147  81.3121550
  36.8616327  87.2438838  80.4624919  36.9073031  82.7960831  77.6260212
  37.3921758  81.8498564  78.2564770  37.5937334  83.5015065  76.7314955
  37.1002590  84.2638293  76.2894024  38.9739686  83.2662238  76.3553815
  39.1825000  82.2027700  76.2384199  39.2530072  83.9642017  75.0339489
  39.0574531  85.0314768  75.1377877  40.2956453  83.8118363  74.7550388
  38.6062720  83.5504398  74.2602345  39.9141367  83.8178991  77.4122695
  39.8138004  85.0069947  77.7640157  40.8991266  83.0247069  77.8717160
  40.9837781  81.5624503  77.9328694  41.5811387  81.2156230  77.0896783
  39.9759085  81.1546163  77.8556076  41.6281338  81.2572615  79.2649608
  42.1319827  80.2910443  79.2392750  40.8858509  81.2582645  80.0631565
  42.6285594  82.4060839  79.4461066  43.5354332  82.2188263  78.8711166
  42.8943344  82.6388966  80.4772524  41.8588450  83.5660731  78.8341927
  41.3311211  84.0675725  79.6454289  42.7598403  84.5780891  78.1069148
  42.9412012  84.4833597  76.9055578  43.2312274  85.6111190  78.8052109
  42.9554947  85.6836251  79.7741349  44.1597578  86.6123033  78.2696894
  43.9941134  86.7268272  77.1984539  43.9507246  87.9822006  78.9504746
  42.8784661  88.1357109  78.8288379  44.1839438  87.8744018  80.0097613
  44.7043715  89.1837816  78.3832203  45.6759861  88.9813989  77.6271539
  44.3639171  90.3343373  78.7633733  45.5120721  86.0356395  78.6537750
  45.9997651  86.2800588  79.7760315  46.0735694  85.2085696  77.7433107
  45.5477709  84.9949118  76.9078554  47.3529773  84.5266663  77.9519787
  47.3238297  83.9842231  78.8969681  47.6448909  83.5291401  76.8226830
  47.8417262  84.1421968  75.9431851  48.5421485  82.9668129  77.0811728
  46.5144154  82.5660580  76.5237512  46.4153697  81.3444847  77.1879933
  47.1604808  81.0891608  77.9414643  45.3800466  80.4530404  76.8997882
  45.3133609  79.5001575  77.4248302  44.4432253  80.7754956  75.9186738
  43.4005422  79.9489116  75.6029557  43.3906596  79.1421165  76.1231323
  44.5313492  81.9732609  75.2418264  43.7982683  82.2283722  74.4765741
  45.5633312  82.8589384  75.5400104  45.6428600  83.8039131  75.0026111
  48.5238846  85.4908136  78.1255705  49.4547573  85.1865394  78.8855174
  48.4787121  86.6414052  77.4237297  47.7253365  86.7748409  76.7643971
  49.5154984  87.6589947  77.5015274  50.4796535  87.1881867  77.3095793
  49.3126238  88.8048462  76.4807923  49.1736452  88.3508058  75.4996544
  48.4069792  89.3412739  76.7639056  50.5123349  89.8021057  76.4270255
  50.3664269  90.4675831  75.5761721  50.5140828  90.3854681  77.3477791
  52.1419192  88.9363828  76.2510796  51.9991246  88.5013152  74.4438768
  51.8968275  89.4140415  73.8568802  52.8933339  87.9645254  74.1271008
  51.1236040  87.8706459  74.2895357  49.6079335  88.2004608  78.9000038
  50.7062582  88.2927580  79.4281082  48.4425239  88.5244182  79.5051129
  47.6255313  88.5067359  78.9115561  48.2899984  88.9889724  80.8733265
  48.8762548  89.8958534  81.0215476  46.8009532  89.3047541  81.1813646
  46.5431734  90.2109030  80.6331467  46.2109854  88.4706578  80.8014681
  46.5049120  89.5031548  82.6483485  46.7974699  90.7059635  83.2862765
  47.2186623  91.5219161  82.6989795  46.5616646  90.8776790  84.6485773
  46.8476402  91.8092988  85.1368439  46.0543330  89.8258123  85.4016579
  45.7634673  90.0026959  86.7412949  45.9495187  90.8920143  87.0512908
  45.7463516  88.6233105  84.7815911  45.3633084  87.7868002  85.3660814
  45.9283665  88.4871845  83.4062143  45.6170078  87.5716733  82.9032282
  48.8889771  87.9832909  81.8479434  49.7240823  88.3634386  82.6574915
  48.5178816  86.7058335  81.7430458  47.7925069  86.4685762  81.0815022
  49.0173964  85.6551121  82.6318762  48.9101673  85.9697077  83.6699662
  48.2240996  84.3478464  82.4285174  48.3991820  84.1579246  81.3695674
  48.6588440  83.5410272  83.0185513  46.6999322  84.4184285  82.6949307
  46.2740300  85.2224553  82.0947232  46.0342173  83.1150820  82.3333268
  46.4593016  82.3105966  82.9334979  44.9641830  83.1866923  82.5282610
  46.1971467  82.9042480  81.2763956  46.3829506  84.8673904  84.1818544
  46.8078277  85.8548413  84.3621868  45.3034884  84.9045972  84.3284090
  46.8192719  84.1518754  84.8788198  50.5230427  85.4176807  82.5153705
  51.1621598  85.2132097  83.5371419  51.0923814  85.4751108  81.2817234
  50.4793563  85.5766593  80.4854901  52.5304764  85.3236579  81.0371609
  52.8913799  84.4381554  81.5603561  52.8370502  85.1711371  79.5545214
  52.0204208  85.6224111  78.9909902  53.7629640  85.7058560  79.3427212
  52.9899478  83.7055132  79.1447458  53.6031095  83.2132018  79.8995723
  51.9957557  83.2587196  79.1370249  53.6372400  83.5318281  77.7699676
  54.6715168  83.8747263  77.7980988  53.6106407  82.4829961  77.4744287
  52.9160673  84.3112309  76.7824053  53.1880294  85.2755977  76.6553908
  51.9067231  83.8404611  76.0677802  51.5601759  82.5602892  76.1571273
  52.0701861  81.9440778  76.7737902  50.7884458  82.2096806  75.6079407
  51.2550010  84.6381053  75.2294556  51.5320718  85.6051352  75.1389849
  50.4852921  84.2740168  74.6862370  53.2941342  86.4952030  81.6211488
  54.3113882  86.2852154  82.2925446  52.7689093  87.7280513  81.3953506
  51.9673794  87.7255434  80.7808240  53.2516256  89.0103916  81.8975932
  54.2636920  89.1914762  81.5356138  52.3467113  90.1513368  81.4145951
  51.3239908  89.7757780  81.4477263  52.4579490  90.9646848  82.1316665
  52.6518009  90.6613833  80.0221405  52.5923195  89.8061589  79.3489734
  51.9243869  91.4139434  79.7177982  54.0303713  91.2569727  79.9224007
  54.2235121  92.4325960  80.2503833  54.9970007  90.4723985  79.4234690
  55.9381674  90.8286263  79.3373964  54.7793496  89.5289227  79.1360970
  53.3363281  89.0685432  83.4061981  54.2768795  89.6864750  83.9170761
  52.3417331  88.4815434  84.1385129  51.5799638  88.0347181  83.6484578
  52.3460682  88.4378899  85.6094774  52.2268437  89.4514032  85.9924599
  51.2072841  87.5588817  86.1752701  51.2675540  86.6762160  85.5385849
  51.5137294  87.2972912  87.1880691  49.7758040  88.0719680  86.1957197
  49.4531810  88.2958715  85.1789196  48.8677067  87.0051221  86.7927315
  49.1894455  86.7810073  87.8097642  47.8404658  87.3692774  86.8090982
  48.9223235  86.1004103  86.1872450  49.6642443  89.3676234  86.9756667
  50.2967981  90.1258226  86.5140293  48.6284986  89.7071948  86.9708323
  49.9871332  89.2025014  88.0035658  53.6569142  87.8243195  86.0605651
  54.3839715  88.4391609  86.8469077  53.9870672  86.6336503  85.4806177
  53.3030818  86.2107969  84.8695053  55.1877672  85.8688344  85.8110295
  55.3768437  85.9337138  86.8825424  55.0259133  84.4052054  85.4341096
  54.8595133  84.3170944  84.3604957  55.9038368  83.8230399  85.7141696
  53.8385189  83.7521801  86.1118164  53.6368816  83.8859793  87.4828861
  54.3256568  84.5020101  88.0609819  52.5708497  83.2447575  88.1190618
  52.4397846  83.3452563  89.1964766  51.6879145  82.4877441  87.3871640
  50.8615829  81.9827617  87.8874327  51.8463948  82.3655730  86.0155795
  51.1286499  81.7893648  85.4316903  52.9292032  82.9829532  85.3808630
  53.0698414  82.8663039  84.3062870  56.4743667  86.4622460  85.2487330
  57.5061646  86.3873442  85.9164822  56.4196061  87.0793344  84.0694234
  55.5550818  87.0385861  83.5488116  57.5741829  87.7082693  83.4425660
  58.4348271  87.0405482  83.4818020  57.2574844  88.0168048  81.9671793
  57.0178698  87.0705036  81.4822070  56.3808032  88.6643444  81.9522626
  58.3935656  88.6892056  81.2269701  58.0770763  89.6935140  80.9453675
  59.2523276  88.7534211  81.8951813  58.7706466  87.9300614  80.0090149
  59.0198808  86.9036609  80.2782421  57.9387722  87.9286105  79.3046837
  59.9280195  88.5378532  79.3636600  60.4682911  89.2089581  79.8907503
  60.3134741  88.2442396  78.1337410  59.6251155  87.3837231  77.4059747
  58.7996638  86.9476946  77.7914726  59.9272923  87.1656035  76.4672454
  61.3880677  88.8259532  77.6151556  61.9109112  89.4940769  78.1631936
  61.6779004  88.5977607  76.6749302  58.0348195  88.9473243  84.2178431
  59.2405986  89.1305435  84.4232049  57.0676002  89.7806969  84.6738286
  56.1332699  89.6245790  84.3234668  57.3175808  90.9870124  85.4871216
  58.1733894  91.5412896  85.1018065  56.0721943  91.9223802  85.5349283
  55.2053090  91.3341949  85.8360067  56.2806054  93.0658962  86.5264912
  57.1471029  93.6548474  86.2257932  55.3958773  93.7024502  86.5389756
  56.4477361  92.6573723  87.5231229  55.7552944  92.4832327  84.1054777
  56.5072435  93.2422377  83.8896428  55.8671309  91.6530730  83.4080345
  54.3663933  93.0882245  83.9551953  54.2539660  93.9188030  84.6520449
  54.2355152  93.4500114  82.9353520  53.6138530  92.3296382  84.1704390
  57.8762714  90.5780460  86.8664433  58.7942916  91.2289752  87.3599859
  57.3797626  89.4640575  87.4477544  56.5738342  89.0331697  87.0177376
  57.8799305  88.9020715  88.7034190  57.9127878  89.6757758  89.4704922
  56.9470952  87.7634662  89.1881472  56.0582961  88.3396294  89.4453850
  56.7223629  87.1050315  88.3490648  57.3806315  86.9178050  90.4030729
  58.3012555  86.3975693  90.1386734  57.6120488  87.7519764  91.6336309
  56.6916742  88.2721912  91.8989348  57.9150944  87.1072099  92.4585796
  58.3972710  88.4817207  91.4361477  56.4046491  85.8212166  90.6463079
  56.3526573  85.1787849  89.7672870  56.7246210  85.2335661  91.5067649
  55.4207295  86.2468878  90.8432982  59.3362374  88.4204346  88.5591407
  60.1692608  88.7683300  89.3974543  59.6409949  87.6580707  87.4690328
  58.8669036  87.4530062  86.8535407  60.9610265  87.1088114  87.1342256
  61.2979618  86.3964065  87.8872549  60.8251119  86.3940024  85.8266491
  59.8897442  85.8415517  85.7372923  60.8462631  87.1937716  85.0863641
  61.9258059  85.4384096  85.4589628  61.9509692  84.1463596  85.9833687
  61.1849681  83.8488309  86.6994825  62.9330730  83.2452506  85.6050571
  62.9734573  82.2545356  86.0577750  63.8612274  83.6058273  84.6523059
  64.6124954  82.8837384  84.3324872  63.8435919  84.8711003  84.1041233
  64.5912919  85.1577287  83.3646039  62.8692886  85.7819252  84.4966742
  62.8401861  86.7754855  84.0493590  62.0462723  88.2087396  87.0257064
  63.1564689  88.0702178  87.5686992  61.6828133  89.3149261  86.3684067
  60.7517146  89.2932941  85.9776553  62.4823987  90.5095204  86.1744563
  63.4178548  90.2737138  85.6670941  61.6804215  91.4879920  85.2977283
  61.5128156  90.9855887  84.3450487  60.7251111  91.6429197  85.7992056
  62.3477128  92.8339695  85.0507650  62.6145546  93.2691537  86.0138387
  63.2515308  92.6690382  84.4642390  61.4302104  93.7794159  84.3074734
  62.0369943  94.4991064  83.7579664  60.8256165  93.2042420  83.6062312
  60.5357436  94.5106172  85.2085815  60.8565786  94.6715959  86.1526420
  59.3458958  94.9887021  84.8519877  58.8803049  94.7839180  83.6229484
  59.4329123  94.2628629  82.9571957  57.9763040  95.1504180  83.3611092
  58.6015697  95.6565952  85.7282995  58.9414170  95.8012390  86.6683432
  57.6997633  96.0162027  85.4498640  62.7698708  91.1316875  87.5441763
  63.9265496  91.4135696  87.8646720  61.7058731  91.3321381  88.3439535
  60.8059102  91.1779023  87.9122389  61.7401853  91.8885363  89.7075479
  62.2282082  92.8631411  89.7163969  60.3064371  92.0545369  90.2193134
  59.8493693  91.0653561  90.2459712  60.2328774  92.6829139  91.5992092
  60.6893678  93.6723791  91.5732311  59.1899397  92.7723731  91.9031450
  60.7664333  92.0558321  92.3134831  59.6189384  92.8871692  89.2894199
  58.7129245  93.0124161  89.5810574  62.6594321  91.0699970  90.6594457
  63.3764988  91.6533114  91.4663123  62.6742108  89.7429393  90.5119821
  61.9835587  89.3393390  89.8953738  63.5190894  88.8435184  91.2852139
  63.6442168  89.2285622  92.2972335  62.8718304  87.4425173  91.3663909
  62.6874522  87.1738939  90.3262249  63.5835771  86.7410059  91.8015902
  61.5451283  87.3854854  92.1554859  60.8886711  88.1725945  91.7845088
  60.8652527  86.0489594  91.9984463  61.5209599  85.2613391  92.3696620
  59.9352636  86.0447817  92.5669563  60.6473199  85.8731409  90.9450264
  61.7443905  87.6844795  93.6203651  62.1643496  88.6839030  93.7338846
  60.7853927  87.6331942  94.1359173  62.4276350  86.9527224  94.0514190
  64.9752491  88.7926198  90.7777228  65.8172814  88.1368471  91.4130216
  65.2716201  89.5105323  89.6539924  64.4471210  89.8555772  89.1836259
  66.5843138  89.6933837  88.9942467  66.4539959  90.3398138  88.1263501
  67.6405414  90.3351284  89.9376152  67.7951083  89.6244903  90.7495276
  68.5717929  90.4639540  89.3860041  67.2415324  91.6697436  90.5319981
  67.4617445  91.9376980  91.7189931  66.6119920  92.5284758  89.7267827
  66.3268969  93.4308027  90.0798077  66.4236737  92.2719157  88.7682349
  67.1174823  88.4228126  88.3314781  68.3258504  88.2377337  88.2118309
  66.1951737  87.6198240  87.7931185  65.2387122  87.9187100  87.9194037
  66.4422247  86.3689308  87.0735819  67.3890814  85.9335287  87.3929353
  65.2987154  85.3501708  87.3730438  64.3226294  85.7313280  87.0729196
  65.5314327  84.4547592  86.7966925  65.1693658  84.9182006  88.8033208
  66.2820556  84.7205755  89.6088144  65.8091871  84.3337278  90.7805943
  66.5305588  84.1475400  91.5762424  64.4831455  84.2407384  90.7662861
  63.8746413  83.9650214  91.5237837  64.0628481  84.5943103  89.5059088
  63.0014780  84.5710511  89.2588182  66.5306533  86.5631422  85.5391021
  65.8167128  87.3896410  84.9623788  67.3519570  85.7298530  84.8815883
  67.8620255  85.0598461  85.4392802  67.5452910  85.7150645  83.4274012
  67.0353457  86.5713895  82.9860820  69.0270019  85.7880177  83.0625700
  69.4057766  84.7710288  83.1643659  69.0578684  86.0833992  82.0138102
  69.9019357  86.7466668  83.8914781  69.8367955  86.3914066  84.9198981
  70.9358190  86.6862780  83.5515653  69.4649921  88.1894892  83.8514549
  69.0718628  88.7183765  82.8049056  69.5749439  88.8736516  84.9883249
  69.2968542  89.8441283  85.0190276  69.9359361  88.4190387  85.8148315
  66.9786204  84.4125368  82.8697499  66.9955995  83.3844721  83.5511870
  66.4706796  84.4451099  81.6362313  66.3778167  85.3243597  81.1479735
  65.9465101  83.2437386  81.0009524  65.5518753  82.5653971  81.7574017
  64.8065990  83.6100381  80.0228730  65.2272819  84.4611337  79.4873718
  64.6434036  82.7877359  79.3262480  63.4790416  84.0125951  80.6527849
  62.5636836  83.0431816  81.0872168  62.8245424  81.9908382  80.9748539
  61.3349576  83.4034983  81.6560624  60.6704893  82.6385653  82.0578849
  60.9676370  84.7453056  81.7144546  59.7376023  85.0944142  82.2330940
  59.2229778  84.3366995  82.5205477  61.8410018  85.7240728  81.2413048
  61.5543990  86.7752472  81.2727983  63.0909875  85.3530923  80.7239209
  63.7817319  86.1171318  80.3672474  67.1392190  82.4906721  80.3145338
  67.1150033  82.2701630  79.1063408  68.1929915  82.1270456  81.1150013
  68.1232340  82.4736243  82.0611072  69.4247866  81.4101707  80.7199251
  69.7071425  81.7039187  79.7089422  70.5831395  81.7367858  81.6656905
  71.4566317  81.1908444  81.3092376  70.7416664  82.8060936  81.5258691
  70.3714794  81.4449186  83.1433608  69.3988346  80.7152978  83.4819353
  71.2032621  81.9096914  83.9634228  69.2838909  79.8806958  80.5777286
  70.2696306  79.2064042  80.2451296  68.0739623  79.3474278  80.8204545
  67.4052539  79.9971193  81.2088221  67.7062576  77.9242980  80.7539638
  66.7044585  77.8056663  81.1667885  67.7163921  77.3632041  79.3111455
  68.6880482  77.3820510  78.8175581  67.4021961  76.3293430  79.4543664
  66.7032828  78.0824299  78.4544141  65.3342844  77.9150657  78.6713485
  65.0064845  77.1731204  79.3994720  64.3923029  78.6750979  77.9774565
  63.3281958  78.5360925  78.1683898  64.8144023  79.6214629  77.0506926
  63.9051647  80.3800708  76.3477005  62.9941302  80.1773515  76.5724686
  66.1683459  79.8004909  76.8150151  66.5051700  80.5247145  76.0732940
  67.1023130  79.0491317  77.5316787  68.1686095  79.2124610  77.3753602
  68.5063211  77.0492415  81.7319027  68.6948478  75.8499502  81.5072097
  68.9177193  77.6547748  82.8497068  68.8523626  78.6606201  82.9137622
  69.5762666  76.9412588  83.9205156  69.9297641  75.9871784  83.5295308
  70.7803243  77.7206321  84.4782345  70.4157145  78.6724871  84.8644103
  71.4885247  76.9752055  85.5724801  71.8538480  76.0233788  85.1869096
  72.3297668  77.5682255  85.9312809  70.7967915  76.7921145  86.3947230
  71.7140026  77.9313199  83.4238770  72.4710033  78.4172528  83.7591673
  68.4571887  76.6352409  84.9142252  68.0823543  77.5008974  85.7098677
  67.8455292  75.4429724  84.7852276  68.1164396  74.8303009  84.0293568
  66.7857571  75.0050320  85.6828730  66.1939288  75.8639710  85.9991993
  65.8624017  74.0062790  84.9829301  66.5075313  73.1931240  84.6502350
  65.1014216  73.6130805  85.6570253  65.1384106  74.5087078  83.7622102
  63.9382595  75.2028090  83.8805446  63.5257833  75.3880642  84.8723327
  63.2602333  75.6624933  82.7419047  62.3472422  76.2469750  82.8556109
  63.7464453  75.3764684  81.4767526  63.2041053  75.7114860  80.5925974
  64.9208985  74.6652712  81.3375293  65.3163818  74.4500032  80.3448799
  65.6105672  74.2161638  82.4849772  66.5248862  73.6325445  82.3776962
  67.4480340  74.3686094  86.8944821  68.6749457  74.3271720  86.9554457
  66.6685132  73.8975483  87.8680235  65.6655078  73.9948942  87.8001766
  67.2272826  73.2687910  89.0722540  67.9508431  73.9400902  89.5347653
  66.1250078  72.9661494  90.0855661  65.3929808  72.3878693  89.5218039
  66.5407739  72.3479967  90.8812581  65.4544138  74.1752026  90.6872137
  66.0377567  75.2776975  90.6261802  64.3772793  74.0139278  91.2651348
  67.9695148  71.9806343  88.7434975  68.9966365  71.6724069  89.3698424
  67.4231325  71.2138474  87.7819289  66.5463876  71.5044471  87.3733099
  67.9841038  69.9275266  87.3755057  68.3177689  69.3819256  88.2581644
  66.9481525  69.0808367  86.6415634  67.4128690  68.1885695  86.2220434
  66.1579234  68.7875449  87.3326625  66.2805551  69.7918526  85.5037483
  66.7582635  69.9478994  84.2374881  67.7402177  69.5235900  84.0281384
  65.8525854  70.6386370  83.4688076  66.0047540  70.9417883  82.5174698
  64.7396433  70.9041985  84.2188755  63.5498155  71.5584698  83.8775241
  63.4009575  71.8756728  82.8453796  62.6330526  71.7603934  84.8849807
  61.6997193  72.2783151  84.6641960  62.8716794  71.3124082  86.2007286
  62.1315272  71.4741338  86.9843861  64.0419784  70.6587606  86.5383069
  64.1763714  70.3312166  87.5692066  65.0009683  70.4366310  85.5321093
  69.2263633  70.1011134  86.5545452  70.0980994  69.2306803  86.5935248
  69.3199977  71.2276934  85.8299874  68.5065020  71.8260473  85.8127615
  70.4611985  71.5869185  84.9934833  70.7253883  70.8152158  84.2704495
  70.1300265  72.8810768  84.2319525  69.7402552  73.5968079  84.9557671
  71.3270584  73.4839400  83.5188637  71.7171199  72.7689154  82.7945078
  71.0223976  74.3941295  83.0023022  72.1023174  73.7222279  84.2470759
  69.0745981  72.5947937  83.3018676  68.8522431  73.3917313  82.8149907
  71.6884007  71.6682971  85.8927310  72.7327655  71.0750124  85.5929037
  71.4932425  72.3059847  87.0533071  70.5857444  72.7402412  87.1425698
  72.4688714  72.5233406  88.1104475  73.4027834  72.8989971  87.6923689
  71.9288660  73.5502991  89.0943191  70.9677532  73.1929504  89.4639992
  72.6312263  73.6266096  89.9243592  71.7499800  74.9106190  88.4592896
  72.7127036  75.1896770  88.0310480  71.0177109  74.7937534  87.6603988
  71.2017705  76.2090766  89.5792749  72.5006882  76.1428247  90.8753816
  73.4735027  76.3425725  90.4261247  72.2922976  76.8931803  91.6380352
  72.5084391  75.1533333  91.3324899  72.9155024  71.2455095  88.8214647
  74.1037966  71.1185280  89.0978462  71.9910172  70.3065901  89.1189448
  71.0181948  70.5110921  88.9403533  72.3272661  69.0335943  89.7813678
  72.9445093  69.2388772  90.6559928  71.0705593  68.2735949  90.2345543
  70.4621680  68.2324354  89.3310804  71.3685486  67.2640472  90.5176019
  70.2615669  68.8986470  91.3626833  70.1082342  69.9556263  91.1450032
  68.9278319  68.2160887  91.4969224  69.0803570  67.1590920  91.7150803
  68.3636197  68.6762421  92.3081093  68.3716986  68.3176353  90.5649865
  71.0118387  68.8507841  92.6757185  71.9492192  69.3986233  92.5793368
  70.4046934  69.3054803  93.4584875  71.2228751  67.8137189  92.9365983
  73.1953615  68.1441499  88.8978294  73.9328092  67.3023932  89.4086694
  73.1244251  68.3733548  87.5743264  72.3969183  69.0151950  87.2934805
  73.8951597  67.6966459  86.5285984  74.2202430  66.7188937  86.8841550
  73.0293430  67.4988393  85.2561696  72.6860679  68.4774911  84.9207560
  73.6539017  67.0492491  84.4842272  71.8168724  66.5955152  85.5234928
  72.2186152  65.6222005  85.8052053  71.2936589  67.0320971  86.3742255
  70.8371535  66.4252858  84.3527243  70.4900066  67.4029411  84.0183921
  71.3347315  65.9153599  83.5278055  69.6499348  65.5980778  84.8167928
  70.0473554  64.7375629  85.3550042  69.0723184  66.2191125  85.5014638
  68.7721124  65.1294490  83.7133292  69.3070499  64.5536124  83.0790156
  68.0092254  64.5895303  84.0962015  68.4034095  65.9266788  83.2147493
  75.2344065  68.4594470  86.2646030  76.0331063  68.0548850  85.4143717
  75.4720674  69.5424470  87.0385831  74.7243995  69.7522407  87.6843994
  76.6690849  70.3876700  87.0632042  77.3929716  70.0116305  86.3402370
  76.3292608  71.8513014  86.7057637  75.5123990  72.1484847  87.3634248
  77.2159826  72.4405072  86.9395609  75.9243946  72.0943918  85.2460105
  76.8306913  71.9895511  84.6495747  75.2011418  71.3372354  84.9431548
  75.3255920  73.4726008  84.9845809  75.1405918  74.3015480  85.8899110
  74.9728665  73.7413735  83.7314936  74.5713953  74.6400009  83.5047974
  75.1079484  73.0457341  83.0118131  77.1765110  70.3279216  88.5069209
  76.5252165  70.2370788  89.2597065  78.1563664  70.3795226  88.7000702
  74.7208602  53.4028198  62.5883777  75.0238404  54.7857703  63.1523172
  76.3137087  55.3271619  62.5454201  77.4576674  54.3736820  62.6660336
  77.1328920  53.0583489  62.9215273  75.9167952  52.4626964  62.6860115
  71.3666203  52.2740888  63.6485773  72.1001897  51.8557488  64.7419224
  73.5484643  52.1690041  64.5252090  73.5369471  52.8287995  63.2203123
  72.2907918  52.8722730  62.6682616  69.3687987  51.5058332  64.6461273
  70.0994363  51.0822412  65.7558988  71.4816170  51.2443985  65.8313804
  69.9912333  52.1105307  63.5721557  72.0244069  53.3296328  61.5602818
  72.1971242  50.8286848  66.9189932  75.8327147  51.2636171  62.5397228
  78.6191057  54.7140922  62.5517583  76.1651708  55.5295353  61.6085282
  76.5466121  56.1611376  62.9826953  74.2894508  55.3890692  62.9604545
  75.1071649  54.7386334  64.1174018  71.7948014  50.4540255  67.5803001
  73.0494585  50.9422775  66.9417271  73.9011571  52.7476511  65.2194038
  74.0939985  51.3674018  64.5199998  77.7493557  52.5633516  63.2603535
  69.4889615  52.4078980  62.7977981  69.6324597  50.6625356  66.4957914
  68.4080155  51.3741128  64.6283152  74.5330600  53.5143332  61.6435534
  44.7091228  58.7357249  92.3781551  43.3440133  50.7074125  95.0110863
  63.5209448  78.9461017  68.2159452  77.5184216  69.7959642  71.8636292
  32.2417722  60.6744241  75.1361650  35.2365517  66.3113580  60.9184340
  76.4907201  46.8136897  40.0304876  77.0950358  47.3505920  40.5430990
  75.6685119  47.3037336  40.0383906  86.2245281  50.9503930  42.7387721
  86.8288438  51.4872953  43.2513834  85.4023199  51.4404368  42.7466751
  70.8539468  56.1614933  32.6647923  71.4582625  56.6983956  33.1774036
  70.0317385  56.6515371  32.6726953  85.5175019  59.0366165  23.9662922
  86.1218175  59.5735188  24.4789036  84.6952936  59.5266603  23.9741952
  88.1401806  51.9926479  22.3141654  88.7444963  52.5295501  22.8267767
  87.3179724  52.4826917  22.3220684  54.0907842  47.1002069  61.4581394
  54.6950999  47.6371092  61.9707507  53.2685760  47.5902507  61.4660424
  61.4718020  57.9140313  61.5506040  62.0761176  58.4509336  62.0632153
  60.6495937  58.4040751  61.5585070  55.6965475  43.7055478  73.4169333
  56.3008632  44.2424501  73.9295446  54.8743393  44.1955916  73.4248363
  62.9358639  60.7378309  68.2146089  63.5401796  61.2747332  68.7272202
  62.1136557  61.2278748  68.2225119  68.0945010  59.2830503  71.9607188
  68.6988166  59.8199526  72.4733301  67.2722927  59.7730942  71.9686217
  50.9331614  61.5554299  74.0576756  51.5374771  62.0923322  74.5702870
  50.1109532  62.0454738  74.0655786  38.6414190  57.9894596  67.3679099
  39.2457346  58.5263619  67.8805212  37.8192107  58.4795034  67.3758129
  57.0379125  75.1277372  65.0124914  57.6422281  75.6646395  65.5251028
  56.2157042  75.6177810  65.0203944  64.0645342  62.4623632  70.1530974
  64.6688498  62.9992655  70.6657087  63.2423259  62.9524071  70.1610004
  56.0771050  60.6998905  91.5268784  56.6814206  61.2367928  92.0394898
  55.2548967  61.1899343  91.5347814  60.0634874  59.7559025  89.0933013
  60.6678031  60.2928048  89.6059126  59.2412791  60.2459464  89.1012042
  59.8991812  64.1455518  94.9613677  60.5034968  64.6824541  95.4739791
  59.0769729  64.6355956  94.9692707  57.9812972  71.9217014  96.3863374
  58.5856128  72.4586037  96.8989487  57.1590889  72.4117452  96.3942404
  65.7932789  72.5383369  93.8843984  66.3975946  73.0752391  94.3970097
  64.9710707  73.0283807  93.8923014  63.5462765  79.8090652  95.4350002
  64.1505921  80.3459675  95.9476115  62.7240682  80.2991091  95.4429032
  59.6590915  73.9129549  95.8501121  60.2634071  74.4498572  96.3627234
  58.8368832  74.4029988  95.8580151  59.0693698  77.7113692  94.1559980
  59.6736854  78.2482715  94.6686093  58.2471615  78.2014130  94.1639010
  64.7870664  81.2865192  92.5218714  65.3913821  81.8234215  93.0344828
  63.9648581  81.7765630  92.5297744  66.3310464  77.6035839  87.7826986
  66.9353620  78.1404862  88.2953099  65.5088381  78.0936277  87.7906016
  57.8823998  83.5453321  83.4452570  58.4867155  84.0822344  83.9578683
  57.0601916  84.0353759  83.4531600  61.3379881  78.8157062  79.6924481
  61.9423037  79.3526085  80.2050594  60.5157798  79.3057501  79.7003511
  56.6928475  81.2232057  76.2888424  57.2971631  81.7601080  76.8014537
  55.8706392  81.7132496  76.2967453  55.6725812  83.9449409  81.8636444
  56.2768968  84.4818432  82.3762558  54.8503729  84.4349847  81.8715474
  57.1128145  85.9972357  77.9713970  57.7171302  86.5341379  78.4840083
  56.2906062  86.4872795  77.9793000  60.7338305  80.9032570  78.1808684
  61.3381461  81.4401593  78.6934797  59.9116222  81.3933008  78.1887713
  58.5931720  78.4379290  73.7353865  59.1974877  78.9748313  74.2479978
  57.7709638  78.9279728  73.7432895  47.3486161  78.5288102  66.1749182
  47.9529318  79.0657125  66.6875295  46.5264079  79.0188540  66.1828212
  66.2579394  73.5719805  73.9731034  66.8622550  74.1088828  74.4857148
  65.4357311  74.0620244  73.9810064  64.3047128  65.5627252  68.1482593
  64.9090284  66.0996275  68.6608706  63.4825045  66.0527690  68.1561623
  41.8114271  80.3624987  73.1237058  42.4157427  80.8994010  73.6363172
  40.9892188  80.8525426  73.1316088  29.4659405  80.8711107  71.4354330
  30.0702562  81.4080130  71.9480443  28.6437322  81.3611545  71.4433359
  36.2577129  78.4522600  76.9269046  36.8620286  78.9891623  77.4395159
  35.4355046  78.9423038  76.9348076  22.6732642  70.3968277  82.5973947
  23.2775798  70.9337300  83.1100060  21.8510559  70.8868715  82.6052977
  36.8700102  79.6181208  79.2787564  37.4743259  80.1550231  79.7913677
  36.0478019  80.1081646  79.2866593  41.6760580  76.8346343  95.8044662
  42.2803737  77.3715366  96.3170775  40.8538497  77.3246782  95.8123692
  53.5376007  90.8527157  88.0448938  54.1419163  91.3896180  88.5575051
  52.7153924  91.3427596  88.0527968  56.3217038  92.0230254  90.7428750
  56.9260195  92.5599277  91.2554864  55.4994956  92.5130693  90.7507780
  44.2931190  88.4049349  93.3897927  44.8974346  88.9418372  93.9024041
  43.4709107  88.8949787  93.3976957  38.4206455  86.9817830  85.5709673
  39.0249611  87.5186853  86.0835786  37.5984372  87.4718268  85.5788703
  38.3514601  88.4267861  83.2875629  38.9557758  88.9636884  83.8001743
  37.5292519  88.9168299  83.2954659  45.8531030  86.9547825  74.9399711
  46.4574187  87.4916848  75.4525824  45.0308947  87.4448263  74.9478741
  55.1085433  87.7955030  78.1687813  55.7128590  88.3324053  78.6813926
  54.2863350  88.2855468  78.1766842  61.2333844  90.8674792  81.2816895
  61.8377000  91.4043815  81.7943008  60.4111761  91.3575231  81.2895925
  63.1879270  90.9696393  79.3447797  63.7922427  91.5065415  79.8573911
  62.3657188  91.4596831  79.3526827  59.4963075  92.7236546  81.9026323
  60.1006232  93.2605569  82.4152436  58.6740993  93.2136984  81.9105353
  58.6967374  95.5598592  88.6360193  59.3010531  96.0967615  89.1486306
  57.8745292  96.0499030  88.6439222  55.7174156  96.7642953  85.2849156
  56.3217312  97.3011976  85.7975269  54.8952073  97.2543391  85.2928185
  64.6734768  94.0118940  90.6973935  65.2777924  94.5487963  91.2100048
  63.8512685  94.5019378  90.7052964  68.6863250  55.7766628 132.4476544
  68.0124949  56.0798325 133.0561502  69.0729072  56.5795708 132.0982001
  70.7770720  47.5674841 130.9823984  70.1599890  46.8421669 130.8857036
  70.3087208  48.3284201 130.6391058  72.6519991  53.3552111 133.7216367
  73.3470895  53.9758804 133.9403682  72.9943141  52.5047463 133.9968745
  66.7434859  53.4613863 132.6291461  66.1708826  54.0804050 132.1761932
  67.3167653  54.0113225 133.1631382  69.9632119  53.7451013 133.7600043
  70.8962792  53.6796575 133.9632918  69.8755332  54.5807280 133.3014575
  72.5920135  53.0616883 130.7203990  72.5133767  52.7276747 131.6139748
  73.4129802  53.5538651 130.7195463  70.1624087  50.3784879 130.3413969
  70.8659937  50.5834881 130.9571624  69.4386736  50.9461641 130.6063052
  72.0710785  50.8167408 132.3912429  72.9056389  50.3848607 132.2089904
  71.9095128  50.6449422 133.3189323  73.5324640  57.2704955 132.9047381
  72.6961952  57.6079642 133.2256656  73.3929410  57.1353935 131.9674518
  73.4063020  57.1152183 130.1045288  72.5292487  56.9940984 129.7407535
  73.8820773  56.3238261 129.8524177  71.1081488  58.0551185 133.6626943
  70.4150733  58.1295540 133.0066979  70.8633240  57.2911529 134.1848460
  76.1518329  58.0516570 129.9062398  75.2449785  57.7549683 129.9825112
  76.4294310  57.7546388 129.0396684  74.9217114  54.9103505 130.0474377
  75.7836278  55.2358403 130.3070195  75.1067458  54.1235001 129.5347443
  75.8746557  52.1499548 133.3354086  75.8625227  53.0941388 133.4922357
  76.7669979  51.9669693 133.0413548  68.6863251  32.7828750 119.1721850
  68.0124950  33.0860447 119.7806808  69.0729073  33.5857831 118.8227307
  70.7770721  24.5736963 117.7069290  70.1599892  23.8483792 117.6102343
  70.3087210  25.3346324 117.3636365  72.6519992  30.3614234 120.4461674
  73.3470896  30.9820927 120.6648988  72.9943142  29.5109585 120.7214051
  66.7434860  30.4675986 119.3536767  66.1708827  31.0866173 118.9007239
  67.3167654  31.0175347 119.8876689  69.9632120  30.7513136 120.4845349
  70.8962793  30.6858697 120.6878225  69.8755333  31.5869403 120.0259882
  72.5920137  30.0679006 117.4449297  72.5133768  29.7338870 118.3385055
  73.4129804  30.5600774 117.4440769  70.1624089  27.3847001 117.0659275
  70.8659939  27.5897004 117.6816931  69.4386737  27.9523763 117.3308359
  72.0710786  27.8229531 119.1157735  72.9056390  27.3910729 118.9335210
  71.9095129  27.6511544 120.0434630  80.6995061  38.3399182 129.2112912
  81.3373471  38.2205929 128.5076252  80.5815904  39.2880026 129.2700864
  77.5084767  38.2926610 129.1474437  77.1703279  38.1767675 128.2594972
  78.3774535  37.8917775 129.1275443  73.3671583  40.1462086 125.1371328
  72.8036448  40.0552023 124.3687616  73.2523978  39.3261991 125.6173820
  78.9471142  43.8133054 120.4485793  78.2959121  44.3987134 120.0619806
  79.7415505  44.3439249 120.5080830  72.8726769  40.9022191 120.8472927
  73.6457645  40.3551178 120.7085803  73.2252168  41.7666440 121.0587388
  75.2093047  37.0614857 118.4791377  75.4618567  36.5396379 117.7174840
  74.2717606  36.8981003 118.5818061  80.2536329  36.0650636 126.2866120
  81.0399419  35.6470059 125.9356537  80.5175034  36.9696728 126.4547769
  80.4246407  41.5023486 120.9854777  79.7892240  41.5758112 121.6975682
  80.0943813  42.0917085 120.3073856  74.9289335  38.9642963 120.6815752
  74.8125594  38.2887867 121.3496836  75.0391595  38.4775337 119.8647905
  77.2720876  38.4253110 124.3862441  76.9079084  37.8983731 125.0975363
  78.1287992  38.0351579 124.2128927  76.9126363  33.4543010 119.3823790
  77.0800766  34.3223246 119.7494261  76.7223532  33.6170292 118.4585079
  79.6701697  41.9159989 131.0489620  79.3702420  42.8185028 130.9405427
  79.3252756  41.6492172 131.9010773  76.8915584  35.9100668 120.3670456
  76.7715209  36.3557718 121.2055937  76.1968173  36.2585985 119.8083995
  74.6522476  48.6804309 124.0160588  74.5746506  49.6312134 124.0949068
  74.0484120  48.3350182 124.6735514  82.5900650  36.3822141 121.1950791
  83.5018506  36.6149527 121.0198488  82.0810297  36.9659185 120.6325869
  81.1970233  41.3647959 128.5864372  80.5679095  41.5293673 127.8840440
  80.8095895  41.7789569 129.3575336  85.0759465  42.3002397 125.9408736
  84.3910503  42.6801298 125.3905769  85.1603314  42.9097724 126.6740683
  76.7498195  41.1022367 125.8514457  77.2136540  41.3810070 125.0619080
  76.4854993  40.2005812 125.6687548  75.6867081  37.2245520 122.6604022
  76.3891124  37.6766563 123.1277949  75.3547709  36.5829338 123.2883915
  83.4456224  42.8234311 130.7126437  84.2673668  42.4214499 130.4309118
  83.4418627  42.7202546 131.6642552  76.9260845  44.0386462 122.7366127
  76.7906520  44.8837998 123.1650975  77.4670658  44.2405740 121.9732061
  70.3790243  41.5561900 123.3094053  70.8914763  42.3505151 123.4599617
  71.0312955  40.8588191 123.2427654  72.1885127  44.6727657 125.3916806
  72.3651756  45.5945621 125.2037790  72.9841961  44.3586076 125.8211185
  73.3116443  46.1905830 131.3927148  73.8623868  46.0622894 130.6204142
  72.4727919  46.4900719 131.0422041  68.3439159  39.8850555 124.0853623
  69.1814381  40.2947563 123.8687331  68.5217427  38.9449997 124.0553817
  80.2403592  37.5525635 119.7737456  79.7250215  38.3230240 120.0125843
  79.9680900  36.8790771 120.3970517  77.8250703  32.3975336 124.8322694
  76.9692299  32.0082186 124.6528333  78.2377654  32.4767297 123.9722480
  85.2137866  40.3057990 121.7090629  84.4367308  39.9669149 121.2645792
  85.8929347  40.3110613 121.0345595  80.0289895  35.4252727 121.5997237
  79.7240030  35.7398877 122.4507380  80.9820337  35.5034147 121.6424570
  78.4736327  41.5842951 123.2490191  77.9457688  40.8495710 122.9363429
  77.9723829  42.3617627 123.0030159  83.4529173  39.7791971 128.3657237
  82.7952847  40.4691233 128.4537366  84.2569572  40.1688403 128.7091224
  82.2634631  38.1336344 126.4161179  82.7766513  38.7666336 126.9182889
  82.9135855  37.5337539 126.0504539  73.5324641  34.2767078 119.6292688
  72.6961954  34.6141765 119.9501963  73.3929411  34.1416058 118.6919825
  76.6188927  39.4023161 116.2525164  75.7115988  39.1712414 116.4516313
  77.1159959  38.6060780 116.4399146  79.5257006  48.1120668 119.1721850
  78.8518704  48.4152365 119.7806808  79.9122828  48.9149748 118.8227307
  79.5250510  37.0077215 123.7922200  80.2722329  37.5198612 123.4829322
  79.7942100  36.6861268 124.6526594  77.7977160  39.5035756 120.7749154
  76.8888379  39.2194789 120.8721624  77.8272244  39.9234834 119.9152461
  83.0296428  43.1142345 124.5440322  82.5758755  42.2733255 124.6005512
  82.3990394  43.7503744 124.8815102  81.9729347  34.0434331 125.7740989
  81.2352104  33.5311718 126.1051232  82.2256121  33.6034713 124.9624266
  81.4729367  44.9518842 125.4790140  81.7652341  45.5123899 124.7602506
  81.9827987  45.2447403 126.2343299  76.3462054  37.1164376 126.8758950
  76.4010664  36.1638213 126.8001426  75.5353256  37.2723815 127.3600248
  77.4953248  41.0444499 118.1137233  77.0572678  40.3280358 117.6542870
  78.2363689  41.2720614 117.5522324  74.2854414  35.7341436 124.6349328
  73.4722280  36.0335607 125.0414521  74.7813408  35.3397125 125.3523811
  76.4362992  45.7299193 126.5683593  76.3939171  45.9560039 125.6392125
  77.3525691  45.4962568 126.7169394  85.6126363  39.3201696 124.1713551
  85.4744261  39.5103292 123.2434741  85.2562582  40.0821079 124.6281603
  74.5528793  42.6062222 126.3645556  75.3469391  42.1112542 126.1628131
  73.8420485  42.0780085 126.0013261  79.3723637  44.9880318 130.7157924
  79.4260660  45.5571254 131.4835639  78.5038419  45.1582203 130.3511961
  70.8611556  36.7505304 122.4405309  69.9309144  36.6889759 122.6575271
  70.9569028  36.2281257 121.6441950  77.1300069  43.1791244 130.0443393
  76.9911154  42.8110028 130.9169331  76.3414665  43.6938883 129.8727351
  77.7248221  48.2800341 121.3868930  77.8999976  47.8088384 122.2014552
  77.0381009  48.9066107 121.6150190  78.6805284  42.5572847 127.4332231
  78.3455117  42.5173617 128.3289881  78.1809230  41.8917563 126.9602641
  81.6164476  39.9028881 117.7069290  80.9993646  39.1775709 117.6102343
  81.1480964  40.6638241 117.3636365  72.2909306  51.4289703 128.1608790
  72.5305904  52.0608227 128.8387808  71.4478503  51.0777743 128.4474149
  73.4063021  34.1214305 116.8290595  72.5292488  34.0003106 116.4652841
  73.8820775  33.3300384 116.5769483  76.8037168  47.2368826 130.5650294
  76.7307339  48.0423797 131.0769598  76.3614561  47.4360792 129.7398315
  76.5926948  46.4740596 124.0753115  75.8094469  47.0162276 124.1691340
  77.2919693  46.9914575 124.4747356  79.9023598  32.2835225 126.7187321
  80.3992297  31.5305188 126.3988391  79.1310579  32.3199542 126.1530530
  79.2635851  47.1355660 132.7208452  79.9763824  47.7703125 132.6484354
  78.7725880  47.2319526 131.9048454  80.9853378  41.0406912 124.2925744
  80.0509657  41.1608375 124.1230448  81.1630047  40.1379379 124.0285754
  84.3725930  36.8824232 124.8275778  84.8386382  37.7152223 124.7536081
  84.8233430  36.4169213 125.5321037  82.4402161  43.2268053 121.8261930
  82.7162005  43.1124648 122.7355804  81.5706660  42.8285538 121.7874103
  79.0756225  47.4754404 125.4694744  79.2578619  46.6576060 125.9322496
  79.8989211  47.6922096 125.0319634  79.4098390  46.4022589 122.7309792
  79.9386157  45.8915044 122.1179954  79.6726610  46.0865119 123.5955325
  72.7654138  47.4537706 125.4907568  72.0964513  47.9383833 125.0071608
  72.6267008  47.7006926 126.4050947  76.9059407  49.4881449 132.0890227
  77.4577715  49.6513071 132.8539312  77.2465600  50.0785887 131.4170251
  68.1341715  35.7156161 122.2703500  68.4295156  34.8066839 122.2170554
  67.2329751  35.6943900 121.9484503  80.0427794  47.4363425 129.0753909
  79.9178934  46.6353165 128.5664854  80.7006885  47.9309618 128.5867879
  82.1062702  45.2372445 130.7033459  81.1593038  45.1177796 130.6311786
  82.4545476  44.3494943 130.7859720  69.8629557  33.3970258 122.3942826
  69.5342263  32.5167637 122.2117931  70.2168928  33.3417927 123.2819215
  79.1109136  45.0325161 126.9037811  78.9634098  44.1041868 127.0845381
  79.9362629  45.0545252 126.4194886  72.9771380  33.6843228 122.7618303
  73.3167453  34.2129149 122.0396912  73.4243501  34.0223634 123.5376870
  82.7143258  45.8553720 127.9902684  83.6389805  45.6496581 127.8527135
  82.5458561  45.6070121 128.8992025  74.9639527  32.1817850 120.9611596
  75.6847890  32.5599102 120.4575313  74.3404831  32.9006727 121.0646574
  79.1070650  32.8862999 121.8969928  79.3234264  33.7687637 121.5958756
  78.6264717  32.4949212 121.1675570  82.5038574  46.3739387 123.3464775
  82.6775451  45.8085810 122.5938628  82.9967465  47.1740282 123.1644265
  75.1103150  31.7165640 123.7909133  75.2319061  30.7882286 123.9900020
  74.8205193  31.7304326 122.8787448  88.3577965  39.1375810 124.9655075
  88.8009111  38.3883135 124.5674198  87.4804475  39.1285947 124.5828807
  83.4913746  45.6906152 120.4461674  84.1864651  46.3112844 120.6648988
  83.8336896  44.8401503 120.7214051  85.3905169  43.1405857 121.9749004
  85.9156494  43.4793130 121.2498324  85.3027522  42.2052872 121.7912139
  77.0745830  49.2077840 126.3344258  76.6350820  48.7154219 127.0277114
  77.8253947  48.6650808 126.0936333  69.5538169  45.3989381 126.3368886
  70.3796189  45.0993153 125.9567529  69.2032221  44.6297004 126.7858674
  74.5219702  44.7515850 128.4066559  73.8999712  44.0886555 128.1068787
  75.1924569  44.7776981 127.7240207  67.7546774  43.3175708 127.2957819
  66.9178683  42.8897882 127.1141820  67.7270420  43.5108151 128.2328610
  74.0833209  43.3019773 121.8825020  74.2321330  43.9855237 121.2291692
  74.8899653  43.2824863 122.3974475  71.8385842  39.3284950 122.8886089
  71.5931884  38.4247280 123.0866299  72.0081757  39.3302101 121.9465567
  71.1081490  35.0613308 120.3872250  70.4150735  35.1357663 119.7312286
  70.8633242  34.2973652 120.9093767  77.5828615  45.7967903 119.3536767
  77.0102582  46.4158090 118.9007239  78.1561408  46.3467265 119.8876689
  80.8025875  46.0805053 120.4845349  81.7356548  46.0150615 120.6878225
  80.7149087  46.9161320 120.0259882  83.4313891  45.3970924 117.4449297
  83.3527523  45.0630787 118.3385055  84.2523558  45.8892692 117.4440769
  77.9675413  37.1328716 116.6952820  78.9134518  37.0034924 116.7641238
  77.5889658  36.3943378 117.1722248  76.1518330  35.0578692 116.6307705
  75.2449786  34.7611805 116.7070418  76.4294311  34.7608511 115.7641991
  77.7680396  29.6015582 122.7851946  76.9581124  29.2562667 123.1607192
  78.4564813  29.2923126 123.3739558  74.9217115  31.9165628 116.7719684
  75.7836279  32.2420526 117.0315501  75.1067459  31.1297124 116.2592750
  83.0749752  30.7894154 123.9154907  82.4948421  31.4478958 123.5332959
  82.8085684  29.9671499 123.5042325  81.8574630  32.9494244 122.9711255
  80.9700485  33.2343895 122.7531450  82.2728619  32.7888008 122.1238532
  69.8658880  47.5301996 128.0582700  69.7313348  46.7702397 127.4920698
  69.4490942  48.2542895 127.5911489  81.0017843  42.7138919 117.0659275
  81.7053693  42.9188922 117.6816931  80.2780492  43.2815681 117.3308359
  81.8315653  38.4648780 123.1861545  81.7750855  38.9217332 122.3469178
  82.3843996  37.7039465 123.0084388  85.6420459  34.2538512 124.0111665
  85.3857393  33.8535148 124.8419873  85.0173327  34.9682306 123.8861804
  73.0228006  48.4271313 128.2701143  72.9060390  49.3716745 128.1679833
  72.2020452  48.1244874 128.6586942  82.9104540  43.1521448 119.1157735
  83.7450144  42.7202647 118.9335210  82.7488883  42.9803462 120.0434630
  82.5650433  39.6553562 120.4814075  82.5099236  39.4897833 119.5402519
  81.9396488  40.3629595 120.6376264  75.8746558  29.1561671 120.0599393
  75.8625228  30.1003511 120.2167664  76.7669980  28.9731816 119.7658854
  74.0482520  49.0799575 131.4857071  74.9509767  49.1123185 131.8023566
  73.8219890  48.1500025 131.5003407  75.8036122  47.8330561 128.1467150
  74.8531753  47.8332423 128.0331522  76.1068608  47.0863296 127.6303184
  88.3478522  53.6218528 129.1474437  88.0097033  53.5059592 128.2594972
  89.2168290  53.2209693 129.1275443  84.2065337  55.4754004 125.1371328
  83.6430203  55.3843941 124.3687616  84.0917733  54.6553908 125.6173820
  81.7529769  56.9705196 127.9755548  82.5451061  56.6296020 127.5601848
  81.9926420  57.0800171 128.8957702  89.7864896  59.1424972 120.4485793
  89.1352876  59.7279052 120.0619806  90.5809259  59.6731167 120.5080830
  83.7120523  56.2314109 120.8472927  84.4851399  55.6843096 120.7085803
  84.0645922  57.0958358 121.0587388  86.0486801  52.3906775 118.4791377
  86.3012322  51.8688296 117.7174840  85.1111360  52.2272920 118.5818061
  91.0930084  51.3942553 126.2866120  91.8793173  50.9761976 125.9356537
  91.3568788  52.2988646 126.4547769  91.2640161  56.8315404 120.9854777
  90.6285994  56.9050030 121.6975682  90.9337568  57.4209002 120.3073856
  85.7683090  54.2934881 120.6815752  85.6519348  53.6179784 121.3496836
  85.8785350  53.8067255 119.8647905  88.1114631  53.7545028 124.3862441
  87.7472838  53.2275649 125.0975363  88.9681747  53.3643497 124.2128927
  87.7520118  48.7834928 119.3823790  87.9194520  49.6515164 119.7494261
  87.5617287  48.9462209 118.4585079  83.9607932  53.6965703 127.0826324
  83.0358429  53.5641918 127.2904016  84.2092346  54.4759923 127.5796267
  87.7309339  51.2392585 120.3670456  87.6108964  51.6849636 121.2055937
  87.0361927  51.5877903 119.8083995  81.3216744  53.3398977 127.9170113
  81.4509125  53.5933456 128.8309525  80.6414195  53.9326685 127.5974769
  85.4916231  64.0096227 124.0160588  85.4140260  64.9604052 124.0949068
  84.8877874  63.6642099 124.6735514  93.4294405  51.7114058 121.1950791
  94.3412261  51.9441445 121.0198488  92.9204052  52.2951103 120.6325869
  87.5891949  56.4314285 125.8514457  88.0530295  56.7101988 125.0619080
  87.3248747  55.5297730 125.6687548  84.4816030  55.9785766 128.7894220
  85.0517387  56.4073035 128.1511705  85.0724142  55.6968351 129.4878406
  86.5260835  52.5537437 122.6604022  87.2284878  53.0058481 123.1277949
  86.1941464  51.9121256 123.2883915  80.2686169  50.8120990 127.9621156
  79.4785223  51.0678519 127.4861266  80.7597416  51.6269328 128.0673196
  82.2200914  51.1765569 124.9204632  81.4232078  51.2884263 125.4388128
  81.9926507  51.5152221 124.0545523  78.5523872  51.0651480 130.3936147
  78.8031910  51.9498490 130.6593723  79.0883420  50.8856082 129.6211238
  87.7654600  59.3678380 122.7366127  87.6300274  60.2129916 123.1650975
  88.3064412  59.5697658 121.9732061  81.2183997  56.8853818 123.3094053
  81.7308518  57.6797068 123.4599617  81.8706710  56.1880108 123.2427654
  83.0278882  60.0019574 125.3916806  83.2045510  60.9237539 125.2037790
  83.8235715  59.6877993 125.8211185  79.1832914  55.2142472 124.0853623
  80.0208136  55.6239481 123.8687331  79.3611182  54.2741914 124.0553817
  91.0797346  52.8817553 119.7737456  90.5643969  53.6522158 120.0125843
  90.8074654  52.2082689 120.3970517  88.6644457  47.7267254 124.8322694
  87.8086053  47.3374104 124.6528333  89.0771409  47.8059214 123.9722480
  86.4386490  45.3452327 128.2380436  87.3039486  45.1495135 127.8786325
  86.5063998  45.1162678 129.1649793  96.0531620  55.6349908 121.7090629
  95.2761063  55.2961067 121.2645792  96.7323101  55.6402531 121.0345595
  90.8683649  50.7544645 121.5997237  90.5633785  51.0690794 122.4507380
  91.8214091  50.8326065 121.6424570  89.3130081  56.9134868 123.2490191
  88.7851443  56.1787628 122.9363429  88.8117584  57.6909545 123.0030159
  84.0448809  47.5754535 125.6096803  84.6192561  47.3529716 124.8769996
  84.6319791  47.6443229 126.3625404  93.1028386  53.4628262 126.4161179
  93.6160268  54.0958253 126.9182889  93.7529610  52.8629457 126.0504539
  84.3718396  49.6058996 119.6292688  83.5355708  49.9433682 119.9501963
  84.2323165  49.4707975 118.6919825  86.3471476  44.4495784 124.3371872
  85.6935889  44.1344801 123.7128487  86.3051950  43.8271524 125.0631695
  87.4582681  54.7315079 116.2525164  86.5509743  54.5004332 116.4516313
  87.9553713  53.9352698 116.4399146  90.3650760  63.4412586 119.1721850
  89.6912459  63.7444283 119.7806808  90.7516582  64.2441666 118.8227307
  89.5809217  50.9377717 128.6619520  88.6631778  51.1592664 128.5041208
  89.9969360  51.0124028 127.8031227  90.3644264  52.3369133 123.7922200
  91.1116083  52.8490530 123.4829322  90.6335854  52.0153185 124.6526594
  88.6370915  54.8327673 120.7749154  87.7282134  54.5486706 120.8721624
  88.6665998  55.2526752 119.9152461  92.8123102  49.3726249 125.7740989
  92.0745858  48.8603635 126.1051232  93.0649875  48.9326631 124.9624266
  79.2059085  52.5533188 124.7564356  79.0083485  51.9602548 124.0315423
  78.6505749  52.2485398 125.4740295  87.1855809  52.4456294 126.8758950
  87.2404418  51.4930130 126.8001426  86.3747011  52.6015733 127.3600248
  88.3347002  56.3736417 118.1137233  87.8966432  55.6572276 117.6542870
  89.0757443  56.6012532 117.5522324  85.1248169  51.0633354 124.6349328
  84.3116034  51.3627524 125.0414521  85.6207163  50.6689043 125.3523811
  96.4520117  54.6493614 124.1713551  96.3138016  54.8395210 123.2434741
  96.0956336  55.4112997 124.6281603  84.6162243  48.6351709 130.2510563
  85.2561623  48.4940468 129.5533527  83.7839774  48.3486223 129.8749165
  85.3922547  57.9354140 126.3645556  86.1863146  57.4404460 126.1628131
  84.6814240  57.4072003 126.0013261  81.7005311  52.0797221 122.4405309
  80.7702899  52.0181677 122.6575271  81.7962783  51.5573174 121.6441950
  81.6190860  48.6052034 125.0283550  81.8797677  49.5197368 124.9192711
  82.4408032  48.1376477 125.1780163  83.0915785  50.0189791 132.1982375
  83.7638839  49.8107154 131.5495024  82.2645572  49.8211877 131.7587607
  88.5641975  63.6092258 121.3868930  88.7393731  63.1380301 122.2014552
  87.8774763  64.2358024 121.6150190  92.4558230  55.2320799 117.7069290
  91.8387401  54.5067627 117.6102343  91.9874719  55.9930159 117.3636365
  84.2456776  49.4506223 116.8290595  83.3686242  49.3295024 116.4652841
  84.7214529  48.6592301 116.5769483  75.7658916  54.2383383 126.9232102
  76.4529956  53.9245113 126.3353117  75.6107045  55.1424747 126.6499353
  80.5693638  49.1273579 131.3517126  80.4851827  48.5199249 130.6167536
  79.7476345  49.6182598 131.3526622  87.4320702  61.8032513 124.0753115
  86.6488224  62.3454194 124.1691340  88.1313447  62.3206493 124.4747356
  90.7417352  47.6127143 126.7187321  91.2386052  46.8597105 126.3988391
  89.9704334  47.6491460 126.1530530  91.8247133  56.3698830 124.2925744
  90.8903412  56.4900293 124.1230448  92.0023801  55.4671297 124.0285754
  87.3252321  49.7544526 126.4459005  86.9550108  49.2015566 127.1339911
  87.8211413  49.1502659 125.8934005  95.2119684  52.2116149 124.8275778
  95.6780136  53.0444141 124.7536081  95.6627185  51.7461131 125.5321037
  93.2795915  58.5559971 121.8261930  93.5555759  58.4416565 122.7355804
  92.4100414  58.1577456 121.7874103  90.2492145  61.7314507 122.7309792
  90.7779911  61.2206961 122.1179954  90.5120364  61.4157037 123.5955325
  75.3426892  52.3183976 129.1949569  75.3810992  51.7847567 129.9886687
  74.8367185  51.7919182 128.5760546  82.7217655  47.1648517 132.6912111
  82.7858981  48.0263348 132.2789509  82.6584775  46.5522518 131.9584470
  78.9735470  51.0448078 122.2703500  79.2688911  50.1358757 122.2170554
  78.0723506  51.0235818 121.9484503  82.5029717  49.1204075 128.2531049
  81.7816303  49.7340043 128.1138522  83.2922973  49.6561840 128.1747695
  80.7023311  48.7262176 122.3942826  80.3736018  47.8459555 122.2117931
  81.0562682  48.6709845 123.2819215  83.8165135  49.0135146 122.7618303
  84.1561207  49.5421067 122.0396912  84.2637255  49.3515552 123.5376870
  85.8033282  47.5109767 120.9611596  86.5241644  47.8891020 120.4575313
  85.1798586  48.2298644 121.0646574  89.9464405  48.2154916 121.8969928
  90.1628019  49.0979554 121.5958756  89.4658472  47.8241130 121.1675570
  84.6863626  51.1740630 128.4740673  84.5408207  51.4880933 129.3664954
  84.2088830  51.7925530 127.9211572  86.5460009  48.1643178 128.5221562
  86.5321578  47.2684271 128.1853860  87.2632437  48.1713841 129.1559849
  88.3986140  48.5980518 130.5674690  88.1403917  49.5197588 130.5659020
  87.8671180  48.2010952 131.2575154  79.1609288  53.7145974 131.4128334
  78.6162756  54.4905782 131.5448608  80.0388638  54.0616778 131.2547456
  85.9496905  47.0457558 123.7909133  86.0712816  46.1174204 123.9900020
  85.6598947  47.0596244 122.8787448  88.8188095  44.7312468 126.9275852
  88.8409792  44.7951801 125.9727832  89.2356154  43.8916977 127.1216359
  94.3307501  61.0198069 120.4461674  95.0258405  61.6404762 120.6648988
  94.6730651  60.1693421 120.7214051  96.2298924  58.4697775 121.9749004
  96.7550248  58.8085048 121.2498324  96.1421276  57.5344790 121.7912139
  80.3931924  60.7281299 126.3368886  81.2189944  60.4285071 125.9567529
  80.0425976  59.9588921 126.7858674  78.5940529  58.6467625 127.2957819
  77.7572437  58.2189800 127.1141820  78.5664174  58.8400069 128.2328610
  84.9226964  58.6311691 121.8825020  85.0715084  59.3147155 121.2291692
  85.7293407  58.6116781 122.3974475  82.6779597  54.6576868 122.8886089
  82.4325639  53.7539198 123.0866299  82.8475511  54.6594019 121.9465567
  81.9475244  50.3905226 120.3872250  81.2544489  50.4649581 119.7312286
  81.7026996  49.6265569 120.9093767  88.4222369  61.1259821 119.3536767
  87.8496336  61.7450008 118.9007239  88.9955163  61.6759183 119.8876689
  91.6419629  61.4096971 120.4845349  92.5750302  61.3442533 120.6878225
  91.5542842  62.2453238 120.0259882  94.2707646  60.7262841 117.4449297
  94.1921277  60.3922705 118.3385055  95.0917313  61.2184609 117.4440769
  88.8069168  52.4620634 116.6952820  89.7528272  52.3326842 116.7641238
  88.4283413  51.7235296 117.1722248  86.9912085  50.3870610 116.6307705
  86.0843540  50.0903723 116.7070418  87.2688066  50.0900428 115.7641991
  77.9090025  51.7076974 127.0806751  77.5892810  50.8542282 126.7881125
  77.3623453  51.9225552 127.8364719  81.6869933  54.4239415 130.7976258
  81.9055943  55.3556522 130.8164292  82.0995707  54.0647389 131.5831062
  88.6074151  44.9307500 122.7851946  87.7974879  44.5854585 123.1607192
  89.2958568  44.6215044 123.3739558  90.5364699  44.0085547 124.4076243
  91.0895738  44.4281000 125.0666266  90.7734785  43.0821295 124.4499199
  85.7610870  47.2457545 116.7719684  86.6230034  47.5712444 117.0315501
  85.9461214  46.4589041 116.2592750  77.7778285  55.3279885 129.0499873
  77.0841757  54.9133838 128.5369827  78.5251276  55.3700422 128.4533292
  93.9143506  46.1186072 123.9154907  93.3342175  46.7770876 123.5332959
  93.6479439  45.2963416 123.5042325  79.6915028  55.2598139 126.9265888
  79.6685716  55.3585826 125.9747771  80.0015664  56.1063290 127.2483054
  92.6968384  48.2786162 122.9711255  91.8094239  48.5635813 122.7531450
  93.1122373  48.1179926 122.1238532  91.8411597  58.0430837 117.0659275
  92.5447448  58.2480839 117.6816931  91.1174246  58.6107599 117.3308359
  92.6709408  53.7940698 123.1861545  92.6144609  54.2509250 122.3469178
  93.2237750  53.0331383 123.0084388  96.4814214  49.5830430 124.0111665
  96.2251148  49.1827066 124.8419873  95.8567082  50.2974224 123.8861804
  93.7498295  58.4813366 119.1157735  94.5843899  58.0494565 118.9335210
  93.5882638  58.3095380 120.0434630  93.4044187  54.9845479 120.4814075
  93.3492991  54.8189751 119.5402519  92.7790242  55.6921512 120.6376264
  78.1936702  50.2213544 134.3075497  78.8395566  49.7112498 134.7962722
  77.9853853  50.9582225 134.8818922  86.7140313  44.4853588 120.0599393
  86.7018982  45.4295428 120.2167664  87.6063734  44.3023734 119.7658854
  90.5292432  41.0796365 124.3145330  89.7624828  40.5254852 124.4602012
  90.9403137  41.1518234 125.1759481  95.2112150  64.9350913 119.6292688
  94.3749462  65.2725600 119.9501963  95.0716920  64.7999893 118.6919825
  95.0850530  64.7798141 116.8290595  94.2079997  64.6586942 116.4652841
  95.5608284  63.9884219 116.5769483  92.7868999  65.7197143 120.3872250
  92.0938244  65.7941498 119.7312286  92.5420751  64.9557487 120.9093767
  97.8305839  65.7162528 116.6307705  96.9237295  65.4195640 116.7070418
  98.1081820  65.4192346 115.7641991  96.6004624  62.5749463 116.7719684
  97.4623788  62.9004361 117.0315501  96.7854968  61.7880959 116.2592750
  97.5534067  59.8145506 120.0599393  97.5412737  60.7587346 120.2167664
  98.4457489  59.6315651 119.7658854  68.6863252   9.7890873 105.8967157
  68.0124951  10.0922570 106.5052115  69.0729074  10.5919953 105.5472614
  70.7770722   1.5799086 104.4314597  70.1599893   0.8545914 104.3347650
  70.3087211   2.3408446 104.0881671  72.6519993   7.3676357 107.1706980
  73.3470898   7.9883049 107.3894295  72.9943143   6.5171708 107.4459358
  66.7434862   7.4738108 106.0782074  66.1708829   8.0928295 105.6252546
  67.3167655   8.0237470 106.6121996  69.9632121   7.7575258 107.2090656
  70.8962794   7.6920820 107.4123532  69.8755334   8.5931525 106.7505189
  72.5920138   7.0741129 104.1694604  72.5133770   6.7400992 105.0630362
  73.4129805   7.5662897 104.1686076  70.1624090   4.3909124 103.7904582
  70.8659940   4.5959127 104.4062238  69.4386739   4.9585886 104.0553665
  72.0710787   4.8291653 105.8403042  72.9056391   4.3972852 105.6580517
  71.9095130   4.6573667 106.7679936  80.6995062  15.3461304 115.9358219
  81.3373472  15.2268052 115.2321559  80.5815905  16.2942148 115.9946171
  77.5084769  15.2988733 115.8719743  77.1703280  15.1829797 114.9840278
  78.3774537  14.8979898 115.8520750  73.3671584  17.1524209 111.8616634
  72.8036449  17.0614146 111.0932922  73.2523979  16.3324113 112.3419127
  78.9471143  20.8195177 107.1731099  78.2959123  21.4049257 106.7865113
  79.7415506  21.3501372 107.2326137  72.8726770  17.9084314 107.5718234
  73.6457646  17.3613301 107.4331109  73.2252169  18.7728563 107.7832695
  75.2093048  14.0676980 105.2036684  75.4618569  13.5458501 104.4420147
  74.2717607  13.9043125 105.3063367  80.2536331  13.0712758 113.0111427
  81.0399420  12.6532181 112.6601844  80.5175035  13.9758850 113.1793075
  80.4246408  18.5085609 107.7100084  79.7892241  18.5820235 108.4220988
  80.0943815  19.0979207 107.0319163  74.9289337  15.9705086 107.4061059
  74.8125595  15.2949989 108.0742143  75.0391597  15.4837460 106.5893212
  77.2720878  15.4315233 111.1107748  76.9079085  14.9045854 111.8220669
  78.1287994  15.0413702 110.9374233  76.9126365  10.4605133 106.1069096
  77.0800767  11.3285369 106.4739567  76.7223534  10.6232414 105.1830386
  79.6701698  18.9222112 117.7734927  79.3702421  19.8247150 117.6650734
  79.3252757  18.6554295 118.6256080  76.8915585  12.9162790 107.0915763
  76.7715211  13.3619841 107.9301243  76.1968174  13.2648108 106.5329301
  74.6522478  25.6866432 110.7405894  74.5746507  26.6374257 110.8194375
  74.0484121  25.3412304 111.3980821  82.5900652  13.3884263 107.9196097
  83.5018508  13.6211650 107.7443795  82.0810299  13.9721308 107.3571176
  81.1970234  18.3710082 115.3109679  80.5679096  18.5355796 114.6085746
  80.8095896  18.7851691 116.0820643  85.0759466  19.3064520 112.6654042
  84.3910504  19.6863421 112.1151076  85.1603315  19.9159846 113.3985990
  76.7498196  18.1084490 112.5759764  77.2136541  18.3872193 111.7864386
  76.4854994  17.2067934 112.3932854  75.6867082  14.2307642 109.3849329
  76.3891125  14.6828686 109.8523255  75.3547710  13.5891461 110.0129222
  83.4456225  19.8296434 117.4371743  84.2673669  19.4276621 117.1554425
  83.4418628  19.7264668 118.3887859  76.9260846  21.0448585 109.4611434
  76.7906521  21.8900121 109.8896282  77.4670659  21.2467862 108.6977368
  70.3790244  18.5624023 110.0339359  70.8914764  19.3567273 110.1844924
  71.0312957  17.8650313 109.9672961  72.1885129  21.6789779 112.1162112
  72.3651757  22.6007744 111.9283096  72.9841962  21.3648198 112.5456492
  73.3116444  23.1967953 118.1172455  73.8623869  23.0685016 117.3449449
  72.4727920  23.4962842 117.7667347  68.3439161  16.8912677 110.8098930
  69.1814383  17.3009686 110.5932637  68.5217428  15.9512119 110.7799124
  80.2403593  14.5587758 106.4982763  79.7250216  15.3292362 106.7371150
  79.9680901  13.8852894 107.1215824  77.8250704   9.4037459 111.5568001
  76.9692300   9.0144309 111.3773640  78.2377656   9.4829419 110.6967787
  85.2137867  17.3120112 108.4335936  84.4367310  16.9731272 107.9891098
  85.8929348  17.3172736 107.7590901  80.0289896  12.4314850 108.3242544
  79.7240032  12.7460999 109.1752687  80.9820338  12.5096270 108.3669877
  78.4736328  18.5905073 109.9735498  77.9457689  17.8557833 109.6608735
  77.9723831  19.3679750 109.7275466  83.4529174  16.7854094 115.0902544
  82.7952848  17.4753355 115.1782673  84.2569573  17.1750526 115.4336530
  82.2634633  15.1398466 113.1406486  82.7766514  15.7728458 113.6428196
  82.9135856  14.5399662 112.7749846  73.5324643  11.2829201 106.3537995
  72.6961955  11.6203887 106.6747269  73.3929412  11.1478180 105.4165132
  76.6188928  16.4085284 102.9770471  75.7115990  16.1774537 103.1761620
  77.1159960  15.6122903 103.1644452  79.5257007  25.1182791 105.8967157
  78.8518706  25.4214487 106.5052115  79.9122829  25.9211871 105.5472614
  79.5250511  14.0139338 110.5167507  80.2722330  14.5260735 110.2074629
  79.7942101  13.6923390 111.3771900  77.7977161  16.5097878 107.4994461
  76.8888381  16.2256911 107.5966931  77.8272245  16.9296957 106.6397768
  83.0296429  20.1204468 111.2685628  82.5758756  19.2795378 111.3250819
  82.3990396  20.7565866 111.6060409  81.9729348  11.0496454 112.4986296
  81.2352105  10.5373840 112.8296539  82.2256122  10.6096836 111.6869573
  81.4729368  21.9580965 112.2035447  81.7652342  22.5186022 111.4847812
  81.9827989  22.2509526 112.9588606  76.3462055  14.1226499 113.6004256
  76.4010665  13.1700335 113.5246733  75.5353257  14.2785938 114.0845555
  77.4953249  18.0506622 104.8382540  77.0572679  17.3342481 104.3788177
  78.2363690  18.2782737 104.2767631  74.2854415  12.7403559 111.3594635
  73.4722281  13.0397729 111.7659827  74.7813410  12.3459248 112.0769117
  76.4362993  22.7361316 113.2928900  76.3939172  22.9622162 112.3637432
  77.3525692  22.5024690 113.4414701  85.6126364  16.3263819 110.8958858
  85.4744263  16.5165415 109.9680047  85.2562583  17.0883202 111.3526909
  74.5528794  19.6124345 113.0890863  75.3469393  19.1174665 112.8873438
  73.8420486  19.0842208 112.7258568  79.3723639  21.9942440 117.4403230
  79.4260661  22.5633377 118.2080946  78.5038420  22.1644325 117.0757267
  70.8611557  13.7567426 109.1650615  69.9309146  13.6951882 109.3820577
  70.9569029  13.2343379 108.3687256  77.1300070  20.1853367 116.7688700
  76.9911156  19.8172151 117.6414638  76.3414666  20.7001006 116.5972657
  77.7248222  25.2862463 108.1114236  77.8999978  24.8150506 108.9259859
  77.0381010  25.9128229 108.3395497  78.6805285  19.5634969 114.1577537
  78.3455118  19.5235739 115.0535187  78.1809231  18.8979685 113.6847948
  81.6164477  16.9091004 104.4314597  80.9993647  16.1837832 104.3347650
  81.1480965  17.6700364 104.0881671  72.2909307  28.4351826 114.8854096
  72.5305906  29.0670350 115.5633115  71.4478504  28.0839866 115.1719456
  73.4063023  11.1276428 103.5535901  72.5292489  11.0065229 103.1898148
  73.8820776  10.3362506 103.3014790  76.8037169  24.2430948 117.2895600
  76.7307341  25.0485920 117.8014905  76.3614562  24.4422914 116.4643622
  76.5926949  23.4802718 110.7998422  75.8094471  24.0224399 110.8936646
  77.2919694  23.9976698 111.1992663  79.9023599   9.2897348 113.4432627
  80.3992298   8.5367310 113.1233697  79.1310580   9.3261664 112.8775837
  79.2635853  24.1417782 119.4453759  79.9763825  24.7765247 119.3729660
  78.7725881  24.2381648 118.6293761  80.9853380  18.0469035 111.0171051
  80.0509658  18.1670498 110.8475755  81.1630048  17.1441502 110.7531060
  84.3725931  13.8886354 111.5521085  84.8386383  14.7214346 111.4781387
  84.8233431  13.4231336 112.2566343  82.4402162  20.2330176 108.5507237
  82.7162006  20.1186770 109.4601111  81.5706661  19.8347660 108.5119410
  79.0756226  24.4816526 112.1940050  79.2578621  23.6638182 112.6567803
  79.8989212  24.6984219 111.7564940  79.4098392  23.4084712 109.4555099
  79.9386158  22.8977166 108.8425261  79.6726611  23.0927242 110.3200632
  72.7654139  24.4599828 112.2152875  72.0964515  24.9445956 111.7316915
  72.6267009  24.7069049 113.1296253  76.9059408  26.4943572 118.8135533
  77.4577716  26.6575193 119.5784618  77.2465602  27.0848010 118.1415558
  68.1341717  12.7218283 108.9948807  68.4295158  11.8128962 108.9415861
  67.2329752  12.7006023 108.6729809  80.0427795  24.4425547 115.7999215
  79.9178935  23.6415287 115.2910161  80.7006886  24.9371741 115.3113185
  82.1062704  22.2434567 117.4278765  81.1593039  22.1239919 117.3557092
  82.4545477  21.3557065 117.5105027  69.8629558  10.4032381 109.1188132
  69.5342264   9.5229760 108.9363238  70.2168929  10.3480050 110.0064521
  79.1109137  22.0387284 113.6283118  78.9634099  21.1103991 113.8090688
  79.9362631  22.0607374 113.1440193  72.9771381  10.6905351 109.4863610
  73.3167454  11.2191272 108.7642218  73.4243502  11.0285757 110.2622176
  82.7143259  22.8615842 114.7147990  83.6389806  22.6558704 114.5772442
  82.5458562  22.6132244 115.6237332  74.9639528   9.1879972 107.6856903
  75.6847891   9.5661225 107.1820619  74.3404833   9.9068849 107.7891881
  79.1070651   9.8925121 108.6215235  79.3234266  10.7749759 108.3204063
  78.6264718   9.5011335 107.8920877  82.5038575  23.3801510 110.0710082
  82.6775453  22.8147932 109.3183934  82.9967466  24.1802405 109.8889572
  75.1103152   8.7227763 110.5154439  75.2319063   7.7944409 110.7145327
  74.8205194   8.7366449 109.6032755  88.3577966  16.1437933 111.6900382
  88.8009112  15.3945258 111.2919505  87.4804477  16.1348069 111.3074114
  83.4913748  22.6968274 107.1706980  84.1864652  23.3174967 107.3894295
  83.8336898  21.8463625 107.4459358  85.3905171  20.1467980 108.6994311
  85.9156495  20.4855252 107.9743631  85.3027523  19.2114995 108.5157446
  77.0745831  26.2139963 113.0589564  76.6350822  25.7216342 113.7522421
  77.8253948  25.6712931 112.8181639  69.5538170  22.4051504 113.0614192
  70.3796190  22.1055276 112.6812836  69.2032222  21.6359126 113.5103981
  74.5219704  21.7577972 115.1311866  73.8999713  21.0948677 114.8314094
  75.1924570  21.7839104 114.4485514  67.7546775  20.3237830 114.0203126
  66.9178684  19.8960005 113.8387127  67.7270421  20.5170274 114.9573917
  74.0833210  20.3081895 108.6070326  74.2321331  20.9917360 107.9536999
  74.8899654  20.2886985 109.1219782  71.8385843  16.3347073 109.6131395
  71.5931885  15.4309403 109.8111605  72.0081758  16.3364224 108.6710873
  71.1081491  12.0675431 107.1117557  70.4150736  12.1419786 106.4557593
  70.8633243  11.3035774 107.6339074  77.5828616  22.8030026 106.0782074
  77.0102583  23.4220213 105.6252546  78.1561410  23.3529388 106.6121996
  80.8025876  23.0867176 107.2090656  81.7356549  23.0212738 107.4123532
  80.7149089  23.9223443 106.7505189  83.4313892  22.4033046 104.1694604
  83.3527524  22.0692910 105.0630362  84.2523559  22.8954814 104.1686076
  77.9675415  14.1390839 103.4198126  78.9134519  14.0097047 103.4886544
  77.5889659  13.4005501 103.8967554  76.1518332  12.0640815 103.3553012
  75.2449787  11.7673928 103.4315725  76.4294313  11.7670633 102.4887298
  77.7680397   6.6077705 109.5097253  76.9581126   6.2624790 109.8852499
  78.4564814   6.2985248 110.0984864  74.9217116   8.9227750 103.4964991
  75.7836280   9.2482649 103.7560808  75.1067460   8.1359246 102.9838056
  83.0749753   7.7956277 110.6400214  82.4948422   8.4541081 110.2578266
  82.8085685   6.9733621 110.2287631  81.8574631   9.9556367 109.6956562
  80.9700486  10.2406018 109.4776757  82.2728620   9.7950130 108.8483839
  69.8658881  24.5364118 114.7828007  69.7313349  23.7764519 114.2166005
  69.4490944  25.2605018 114.3156796  81.0017844  19.7201042 103.7904582
  81.7053694  19.9251044 104.4062238  80.2780493  20.2877804 104.0553665
  81.8315655  15.4710903 109.9106852  81.7750856  15.9279454 109.0714485
  82.3843997  14.7101588 109.7329695  85.6420460  11.2600635 110.7356972
  85.3857395  10.8597271 111.5665179  85.0173328  11.9744429 110.6107111
  73.0228007  25.4333435 114.9946449  72.9060391  26.3778868 114.8925140
  72.2020453  25.1306997 115.3832249  82.9104542  20.1583571 105.8403042
  83.7450146  19.7264769 105.6580517  82.7488885  19.9865585 106.7679936
  82.5650434  16.6615684 107.2059381  82.5099238  16.4959956 106.2647825
  81.9396489  17.3691717 107.3621571  75.8746559   6.1623793 106.7844700
  75.8625229   7.1065633 106.9412971  76.7669981   5.9793939 106.4904161
  74.0482521  26.0861697 118.2102378  74.9509768  26.1185307 118.5268873
  73.8219891  25.1562148 118.2248714  75.8036123  24.8392684 114.8712456
  74.8531754  24.8394545 114.7576829  76.1068609  24.0925418 114.3548491
  91.5388817  30.6753222 115.9358219  92.1767227  30.5559969 115.2321559
  91.4209660  31.6234066 115.9946171  88.3478523  30.6280650 115.8719743
  88.0097035  30.5121715 114.9840278  89.2168291  30.2271815 115.8520750
  84.2065339  32.4816127 111.8616634  83.6430204  32.3906064 111.0932922
  84.0917734  31.6616031 112.3419127  81.7529771  33.9767318 114.7000855
  82.5451063  33.6358143 114.2847154  81.9926421  34.0862293 115.6203008
  89.7864897  36.1487094 107.1731099  89.1352877  36.7341175 106.7865113
  90.5809260  36.6793289 107.2326137  83.7120525  33.2376231 107.5718234
  84.4851401  32.6905219 107.4331109  84.0645923  34.1020481 107.7832695
  85.5505567  34.5652614 120.7785133  85.2595433  35.4698245 120.6631799
  86.1862552  34.6069141 121.4929203  86.4761774  31.9429462 117.3686493
  87.0725346  31.7185485 116.6543456  86.5336746  31.2014208 117.9711940
  86.0486802  29.3968898 105.2036684  86.3012323  28.8750419 104.4420147
  85.1111362  29.2335043 105.3063367  91.0930085  28.4004676 113.0111427
  91.8793174  27.9824099 112.6601844  91.3568790  29.3050768 113.1793075
  91.2640163  33.8377526 107.7100084  90.6285996  33.9112153 108.4220988
  90.9337569  34.4271125 107.0319163  85.7683091  31.2997004 107.4061059
  85.6519349  30.6241907 108.0742143  85.8785351  30.8129377 106.5893212
  88.1114632  30.7607151 111.1107748  87.7472839  30.2337772 111.8220669
  88.9681748  30.3705620 110.9374233  87.7520119  25.7897050 106.1069096
  87.9194521  26.6577287 106.4739567  87.5617288  25.9524332 105.1830386
  90.5095452  34.2514029 117.7734927  90.2096175  35.1539068 117.6650734
  90.1646512  33.9846212 118.6256080  83.9607934  30.7027826 113.8071631
  83.0358430  30.5704040 114.0149323  84.2092347  31.4822045 114.3041573
  87.7309340  28.2454708 107.0915763  87.6108965  28.6911759 107.9301243
  87.0361928  28.5940025 106.5329301  81.3216745  30.3461100 114.6415420
  81.4509126  30.5995579 115.5554832  80.6414196  30.9388808 114.3220075
  85.4916232  41.0158350 110.7405894  85.4140262  41.9666175 110.8194375
  84.8877876  40.6704222 111.3980821  93.4294406  28.7176181 107.9196097
  94.3412262  28.9503568 107.7443795  92.9204053  29.3013225 107.3571176
  86.2379834  30.9971668 122.9585228  86.9794519  31.5356712 122.6820052
  85.5316820  31.6237957 123.1156780  88.0666244  28.0773416 118.9290947
  88.9127439  28.5012829 119.0725596  88.0064881  27.4207040 119.6229510
  92.0363988  33.7001999 115.3109679  91.4072851  33.8647714 114.6085746
  91.6489650  34.1143609 116.0820643  95.9153220  34.6356437 112.6654042
  95.2304258  35.0155339 112.1151076  95.9997070  35.2451764 113.3985990
  87.5891950  33.4376408 112.5759764  88.0530296  33.7164111 111.7864386
  87.3248748  32.5359852 112.3932854  84.4816031  32.9847889 115.5139527
  85.0517388  33.4135157 114.8757011  85.0724143  32.7030474 116.2123713
  86.5260836  29.5599560 109.3849329  87.2284880  30.0120604 109.8523255
  86.1941465  28.9183379 110.0129222  80.2686170  27.8183113 114.6866462
  79.4785224  28.0740641 114.2106573  80.7597418  28.6331450 114.7918503
  94.2849980  35.1588352 117.4371743  95.1067424  34.7568539 117.1554425
  94.2812383  35.0556586 118.3887859  82.2200916  28.1827692 111.6449939
  81.4232079  28.2946386 112.1633435  81.9926508  28.5214344 110.7790830
  88.0506583  34.7072395 119.5932454  88.1151016  35.1692802 120.4290626
  87.3417507  34.0769760 119.7214764  78.5523873  28.0713603 117.1181453
  78.8031912  28.9560613 117.3839029  79.0883422  27.8918205 116.3456545
  87.7654601  36.3740503 109.4611434  87.6300276  37.2192038 109.8896282
  88.3064413  36.5759780 108.6977368  81.2183998  33.8915941 110.0339359
  81.7308519  34.6859191 110.1844924  81.8706711  33.1942231 109.9672961
  83.0278883  37.0081697 112.1162112  83.2045511  37.9299662 111.9283096
  83.8235717  36.6940116 112.5456492  82.3131240  29.0546329 121.9924276
  82.1984755  28.1531586 122.2931374  81.4575757  29.3010025 121.6409092
  89.3923077  36.9964069 123.5911776  88.9486932  36.2100448 123.2732681
  90.0540291  37.1843220 122.9255667  84.1510199  38.5259871 118.1172455
  84.7017624  38.3976934 117.3449449  83.3121674  38.8254760 117.7667347
  87.9477370  34.7910998 122.4616686  88.4805706  34.0299287 122.2315994
  87.4191451  34.4984650 123.2040840  79.1832915  32.2204595 110.8098930
  80.0208137  32.6301603 110.5932637  79.3611183  31.2804037 110.7799124
  91.0797347  29.8879676 106.4982763  90.5643971  30.6584280 106.7371150
  90.8074656  29.2144812 107.1215824  88.6644458  24.7329376 111.5568001
  87.8086055  24.3436227 111.3773640  89.0771410  24.8121337 110.6967787
  86.4386491  22.3514449 114.9625743  87.3039488  22.1557258 114.6031632
  86.5064000  22.1224801 115.8895099  96.0531621  32.6412030 108.4335936
  95.2761064  32.3023190 107.9891098  96.7323102  32.6464653 107.7590901
  90.8683650  27.7606768 108.3242544  90.5633786  28.0752917 109.1752687
  91.8214093  27.8388188 108.3669877  89.3130082  33.9196991 109.9735498
  88.7851444  33.1849751 109.6608735  88.8117585  34.6971667 109.7275466
  94.2922928  32.1146011 115.0902544  93.6346603  32.8045273 115.1782673
  95.0963328  32.5042443 115.4336530  84.0448810  24.5816657 112.3342109
  84.6192562  24.3591839 111.6015302  84.6319792  24.6505352 113.0870711
  93.1028387  30.4690384 113.1406486  93.6160269  31.1020376 113.6428196
  93.7529611  29.8691580 112.7749846  84.3718397  26.6121118 106.3537995
  83.5355709  26.9495805 106.6747269  84.2323167  26.4770098 105.4165132
  86.3471478  21.4557906 111.0617179  85.6935890  21.1406923 110.4373794
  86.3051952  20.8333647 111.7877002  87.4582682  31.7377201 102.9770471
  86.5509744  31.5066455 103.1761620  87.9553714  30.9414820 103.1644452
  90.3650761  40.4474708 105.8967157  89.6912460  40.7506405 106.5052115
  90.7516583  41.2503789 105.5472614  89.5809218  27.9439840 115.3864826
  88.6631779  28.1654787 115.2286514  89.9969362  28.0186150 114.5276534
  90.3644266  29.3431255 110.5167507  91.1116085  29.8552653 110.2074629
  90.6335855  29.0215308 111.3771900  88.6370916  31.8389796 107.4994461
  87.7282135  31.5548829 107.5966931  88.6666000  32.2588875 106.6397768
  93.8690183  35.4496386 111.2685628  93.4152510  34.6087295 111.3250819
  93.2384150  36.0857784 111.6060409  92.8123103  26.3788372 112.4986296
  92.0745860  25.8665758 112.8296539  93.0649876  25.9388753 111.6869573
  92.3123123  37.2872882 112.2035447  92.6046097  37.8477939 111.4847812
  92.8221743  37.5801443 112.9588606  79.2059086  29.5595310 111.4809663
  79.0083486  28.9664671 110.7560730  78.6505750  29.2547520 112.1985602
  87.1855810  29.4518417 113.6004256  87.2404420  28.4992253 113.5246733
  86.3747012  29.6077856 114.0845555  88.3347004  33.3798540 104.8382540
  87.8966434  32.6634399 104.3788177  89.0757445  33.6074655 104.2767631
  85.1248170  28.0695476 111.3594635  84.3116035  28.3689647 111.7659827
  85.6207164  27.6751165 112.0769117  87.2756748  38.0653233 113.2928900
  87.2332927  38.2914080 112.3637432  88.1919447  37.8316608 113.4414701
  96.4520118  31.6555737 110.8958858  96.3138017  31.8457333 109.9680047
  96.0956337  32.4175120 111.3526909  84.6162245  25.6413832 116.9755870
  85.2561624  25.5002591 116.2778833  83.7839775  25.3548345 116.5994472
  85.3922549  34.9416262 113.0890863  86.1863147  34.4466582 112.8873438
  84.6814241  34.4134125 112.7258568  90.2117393  37.3234358 117.4403230
  90.2654415  37.8925294 118.2080946  89.3432174  37.4936243 117.0757267
  81.7005312  29.0859344 109.1650615  80.7702900  29.0243800 109.3820577
  81.7962784  28.5635297 108.3687256  81.6190861  25.6114157 111.7528857
  81.8797678  26.5259490 111.6438017  82.4408033  25.1438599 111.9025470
  83.0915786  27.0251914 118.9227681  83.7638840  26.8169276 118.2740330
  82.2645573  26.8274000 118.4832914  89.1705493  31.4894620 118.9990162
  90.0997553  31.6405780 118.8259129  88.7496523  31.5778641 118.1438809
  87.9693825  35.5145284 116.7688700  87.8304910  35.1464069 117.6414638
  87.1808421  36.0292924 116.5972657  88.5641976  40.6154381 108.1114236
  88.7393732  40.1442424 108.9259859  87.8774765  41.2420147 108.3395497
  89.5199040  34.8926887 114.1577537  89.1848872  34.8527657 115.0535187
  89.0202985  34.2271603 113.6847948  83.4943284  30.2994517 119.6830119
  83.3563082  29.5674756 120.2841658  84.4048207  30.2103417 119.4014306
  92.4558231  32.2382921 104.4314597  91.8387402  31.5129750 104.3347650
  91.9874720  32.9992282 104.0881671  86.1225584  30.0114476 119.1713798
  86.8325203  29.3707669 119.1300417  86.0794892  30.2627371 120.0939979
  84.8354518  26.9979694 120.9909438  84.2991875  26.5470433 121.6431034
  84.2471227  27.1325603 120.2479902  83.1303062  43.7643744 114.8854096
  83.3699660  44.3962268 115.5633115  82.2872258  43.4131784 115.1719456
  84.2456777  26.4568346 103.5535901  83.3686244  26.3357146 103.1898148
  84.7214530  25.6654424 103.3014790  75.7658917  31.2445505 113.6477409
  76.4529957  30.9307235 113.0598424  75.6107046  32.1486870 113.3744660
  80.5693639  26.1335702 118.0762432  80.4851828  25.5261372 117.3412842
  79.7476346  26.6244720 118.0771929  87.6430924  39.5722866 117.2895600
  87.5701095  40.3777838 117.8014905  87.2008317  39.7714832 116.4643622
  87.4320703  38.8094636 110.7998422  86.6488225  39.3516316 110.8936646
  88.1313448  39.3268616 111.1992663  90.7417353  24.6189266 113.4432627
  91.2386053  23.8659228 113.1233697  89.9704335  24.6553582 112.8775837
  90.1029607  39.4709700 119.4453759  90.8157579  40.1057165 119.3729660
  89.6119636  39.5673566 118.6293761  91.8247134  33.3760953 111.0171051
  90.8903413  33.4962415 110.8475755  92.0023803  32.4733419 110.7531060
  87.3252322  26.7606648 113.1704312  86.9550110  26.2077689 113.8585217
  87.8211415  26.1564782 112.6179312  95.2119685  29.2178272 111.5521085
  95.6780138  30.0506264 111.4781387  95.6627186  28.7523254 112.2566343
  85.1541521  37.2204144 120.2659330  85.8550980  37.8540626 120.4188724
  84.6836636  37.5618875 119.5054969  93.2795917  35.5622093 108.5507237
  93.5555760  35.4478688 109.4601111  92.4100415  35.1639578 108.5119410
  89.9149981  39.8108444 112.1940050  90.0972375  38.9930100 112.6567803
  90.7382967  40.0276136 111.7564940  90.2492146  38.7376629 109.4555099
  90.7779912  38.2269084 108.8425261  90.5120366  38.4219159 110.3200632
  80.7509239  36.7540499 117.1990432  81.3362676  36.0084186 117.3318337
  80.5534077  37.0644455 118.0827096  83.6047894  39.7891746 112.2152875
  82.9358269  40.2737874 111.7316915  83.4660764  40.0360966 113.1296253
  75.3426893  29.3246099 115.9194876  75.3810993  28.7909689 116.7131994
  74.8367186  28.7981304 115.3005853  87.7453163  41.8235489 118.8135533
  88.2971471  41.9867111 119.5784618  88.0859356  42.4139927 118.1415558
  82.7217656  24.1710639 119.4157418  82.7858982  25.0325470 119.0034816
  82.6584776  23.5584641 118.6829776  78.9735471  28.0510201 108.9948807
  79.2688912  27.1420879 108.9415861  78.0723507  28.0297940 108.6729809
  90.8821550  39.7717465 115.7999215  90.7572689  38.9707205 115.2910161
  91.5400641  40.2663658 115.3113185  82.5029718  26.1266197 114.9776356
  81.7816304  26.7402165 114.8383829  83.2922974  26.6623962 114.8993002
  92.9456458  37.5726485 117.4278765  91.9986794  37.4531836 117.3557092
  93.2939231  36.6848983 117.5105027  80.7023313  25.7324299 109.1188132
  80.3736019  24.8521677 108.9363238  81.0562683  25.6771967 110.0064521
  89.9502892  37.3679201 113.6283118  89.8027854  36.4395909 113.8090688
  90.7756385  37.3899292 113.1440193  83.8165136  26.0197268 109.4863610
  84.1561208  26.5483190 108.7642218  84.2637256  26.3577674 110.2622176
  93.5537013  38.1907760 114.7147990  94.4783561  37.9850621 114.5772442
  93.3852317  37.9424161 115.6237332  85.8033283  24.5171890 107.6856903
  86.5241645  24.8953143 107.1820619  85.1798587  25.2360767 107.7891881
  89.9464406  25.2217039 108.6215235  90.1628020  26.1041677 108.3204063
  89.4658473  24.8303252 107.8920877  84.6863627  28.1802752 115.1985980
  84.5408208  28.4943055 116.0910261  84.2088831  28.7987652 114.6456878
  86.5460010  25.1705300 115.2466869  86.5321579  24.2746393 114.9099167
  87.2632438  25.1775964 115.8805155  88.3986141  25.6042640 117.2919997
  88.1403919  26.5259711 117.2904327  87.8671181  25.2073075 117.9820461
  93.3432330  38.7093427 110.0710082  93.5169207  38.1439850 109.3183934
  93.8361221  39.5094322 109.8889572  79.1609289  30.7208097 118.1373641
  78.6162757  31.4967905 118.2693915  80.0388639  31.0678901 117.9792762
  85.9496906  24.0519680 110.5154439  86.0712817  23.1236327 110.7145327
  85.6598948  24.0658366 109.6032755  88.8188096  21.7374591 113.6521159
  88.8409793  21.8013924 112.6973139  89.2356155  20.8979100 113.8461665
  99.1971721  31.4729850 111.6900382  99.6402867  30.7237176 111.2919505
  98.3198231  31.4639987 111.3074114  94.3307502  38.0260192 107.1706980
  95.0258407  38.6466885 107.3894295  94.6730652  37.1755543 107.4459358
  79.9475311  29.8477993 121.0303798  79.2057047  29.9960628 121.6168428
  79.6268056  30.1086258 120.1670547  96.2298925  35.4759897 108.6994311
  96.7550249  35.8147170 107.9743631  96.1421278  34.5406913 108.5157446
  87.8918974  39.3893971 120.8284188  88.2006100  39.1443118 121.7006887
  88.6894456  39.5940610 120.3403058  87.9139586  41.5431881 113.0589564
  87.4744576  41.0508259 113.7522421  88.6647703  41.0004848 112.8181639
  80.3931925  37.7343422 113.0614192  81.2189945  37.4347193 112.6812836
  80.0425977  36.9651044 113.5103981  85.3613458  37.0869890 115.1311866
  84.7393467  36.4240595 114.8314094  86.0318325  37.1131022 114.4485514
  78.5940530  35.6529748 114.0203126  77.7572438  35.2251922 113.8387127
  78.5664175  35.8462191 114.9573917  84.9226965  35.6373813 108.6070326
  85.0715085  36.3209278 107.9536999  85.7293408  35.6178903 109.1219782
  82.6779598  31.6638991 109.6131395  82.4325640  30.7601321 109.8111605
  82.8475513  31.6656141 108.6710873  81.9475245  27.3967348 107.1117557
  81.2544490  27.4711703 106.4557593  81.7026997  26.6327692 107.6339074
  88.4222371  38.1321944 106.0782074  87.8496338  38.7512131 105.6252546
  88.9955164  38.6821305 106.6121996  91.6419630  38.4159094 107.2090656
  92.5750303  38.3504655 107.4123532  91.5542843  39.2515361 106.7505189
  94.2707647  37.7324964 104.1694604  94.1921278  37.3984828 105.0630362
  95.0917314  38.2246732 104.1686076  88.8069169  29.4682756 103.4198126
  89.7528274  29.3388964 103.4886544  88.4283414  28.7297418 103.8967554
  86.9912086  27.3932733 103.3553012  86.0843542  27.0965845 103.4315725
  87.2688067  27.0962551 102.4887298  77.9090027  28.7139096 113.8052058
  77.5892811  27.8604404 113.5126432  77.3623455  28.9287674 114.5610025
  81.6869934  31.4301537 117.5221564  81.9055944  32.3618645 117.5409598
  82.0995708  31.0709512 118.3076368  88.6074152  21.9369622 109.5097253
  87.7974880  21.5916707 109.8852499  89.2958569  21.6277166 110.0984864
  90.5364700  21.0147669 111.1321549  91.0895739  21.4343123 111.7911573
  90.7734787  20.0883417 111.1744505  85.7610871  24.2519668 103.4964991
  86.6230035  24.5774566 103.7560808  85.9461215  23.4651164 102.9838056
  77.7778287  32.3342008 115.7745179  77.0841758  31.9195960 115.2615134
  78.5251278  32.3762544 115.1778598  93.9143507  23.1248194 110.6400214
  93.3342176  23.7832998 110.2578266  93.6479440  22.3025539 110.2287631
  79.6915029  32.2660261 113.6511194  79.6685717  32.3647949 112.6993077
  80.0015666  33.1125412 113.9728360  82.3502407  34.3236416 117.7657809
  83.3045660  34.2920359 117.6987740  82.1514931  33.8627040 118.5808035
  82.9401789  32.8937532 120.3328606  83.7594678  33.3881611 120.3563444
  83.2138597  31.9769501 120.3046174  92.6968385  25.2848285 109.6956562
  91.8094240  25.5697935 109.4776757  93.1122374  25.1242048 108.8483839
  80.7052636  39.8656036 114.7828007  80.5707104  39.1056437 114.2166005
  80.2884698  40.5896936 114.3156796  91.8411599  35.0492959 103.7904582
  92.5447449  35.2542962 104.4062238  91.1174248  35.6169721 104.0553665
  92.6709409  30.8002821 109.9106852  92.6144610  31.2571372 109.0714485
  93.2237751  30.0393505 109.7329695  96.4814215  26.5892553 110.7356972
  96.2251149  26.1889188 111.5665179  95.8567083  27.3036347 110.6107111
  83.8621762  40.7625353 114.9946449  83.7454146  41.7070785 114.8925140
  83.0414208  40.4598914 115.3832249  93.7498296  35.4875489 105.8403042
  94.5843900  35.0556687 105.6580517  93.5882639  35.3157502 106.7679936
  93.4044188  31.9907602 107.2059381  93.3492992  31.8251873 106.2647825
  92.7790244  32.6983635 107.3621571  78.1936703  27.2275666 121.0320804
  78.8395567  26.7174620 121.5208029  77.9853854  27.9644348 121.6064229
  86.7140314  21.4915711 106.7844700  86.7018984  22.4357551 106.9412971
  87.6063736  21.3085856 106.4904161  84.8876276  41.4153615 118.2102378
  85.7903522  41.4477225 118.5268873  84.6613646  40.4854066 118.2248714
  86.6429878  40.1684601 114.8712456  85.6925509  40.1686463 114.7576829
  86.9462364  39.4217336 114.3548491  90.5292433  18.0858488 111.0390636
  89.7624829  17.5316974 111.1847319  90.9403138  18.1580356 111.9004788
 102.3782571  46.0045140 115.9358219 103.0160981  45.8851887 115.2321559
 102.2603414  46.9525984 115.9946171  99.1872278  45.9572568 115.8719743
  98.8490789  45.8413633 114.9840278 100.0562046  45.5563733 115.8520750
  95.0459093  47.8108044 111.8616634  94.4823958  47.7197981 111.0932922
  94.9311488  46.9907949 112.3419127  92.5923525  49.3059236 114.7000855
  93.3844817  48.9650061 114.2847154  92.8320175  49.4154211 115.6203008
 100.6258652  51.4779012 107.1731099  99.9746632  52.0633092 106.7865113
 101.4203015  52.0085207 107.2326137  94.5514279  48.5668149 107.5718234
  95.3245155  48.0197136 107.4331109  94.9039678  49.4312398 107.7832695
  96.3899322  49.8944531 120.7785133  96.0989188  50.7990162 120.6631799
  97.0256306  49.9361059 121.4929203  97.3155529  47.2721380 117.3686493
  97.9119101  47.0477402 116.6543456  97.3730500  46.5306125 117.9711940
  96.8880557  44.7260815 105.2036684  97.1406078  44.2042337 104.4420147
  95.9505116  44.5626961 105.3063367 101.9323840  43.7296594 113.0111427
 102.7186929  43.3116017 112.6601844 102.1962544  44.6342686 113.1793075
 102.1033917  49.1669444 107.7100084 101.4679750  49.2404070 108.4220988
 101.7731324  49.7563043 107.0319163  96.6076846  46.6288921 107.4061059
  96.4913104  45.9533825 108.0742143  96.7179106  46.1421295 106.5893212
  98.9508387  46.0899068 111.1107748  98.5866594  45.5629689 111.8220669
  99.8075502  45.6997537 110.9374233  98.5913874  41.1188968 106.1069096
  98.7588276  41.9869204 106.4739567  98.4011043  41.2816250 105.1830386
 101.3489207  49.5805947 117.7734927 101.0489930  50.4830986 117.6650734
 101.0040266  49.3138130 118.6256080  94.8001688  46.0319744 113.8071631
  93.8752185  45.8995958 114.0149323  95.0486101  46.8113963 114.3041573
  98.5703094  43.5746625 107.0915763  98.4502720  44.0203676 107.9301243
  97.8755683  43.9231943 106.5329301  92.1610499  45.6753017 114.6415420
  92.2902880  45.9287496 115.5554832  91.4807951  46.2680725 114.3220075
  96.3309987  56.3450267 110.7405894  96.2534016  57.2958092 110.8194375
  95.7271630  55.9996140 111.3980821 104.2688161  44.0468099 107.9196097
 105.1806017  44.2795485 107.7443795 103.7597808  44.6305143 107.3571176
  97.0773589  46.3263586 122.9585228  97.8188273  46.8648630 122.6820052
  96.3710574  46.9529875 123.1156780  98.9059998  43.4065333 118.9290947
  99.7521194  43.8304747 119.0725596  98.8458636  42.7498958 119.6229510
 102.8757743  49.0293917 115.3109679 102.2466605  49.1939631 114.6085746
 102.4883405  49.4435527 116.0820643 106.7546975  49.9648355 112.6654042
 106.0698013  50.3447256 112.1151076 106.8390824  50.5743682 113.3985990
  98.4285705  48.7668325 112.5759764  98.8924050  49.0456028 111.7864386
  98.1642503  47.8651770 112.3932854  95.3209786  48.3139807 115.5139527
  95.8911143  48.7427075 114.8757011  95.9117898  48.0322391 116.2123713
  97.3654591  44.8891478 109.3849329  98.0678634  45.3412521 109.8523255
  97.0335219  44.2475296 110.0129222  91.1079925  43.1475030 114.6866462
  90.3178979  43.4032559 114.2106573  91.5991172  43.9623368 114.7918503
 105.1243734  50.4880269 117.4371743 105.9461178  50.0860457 117.1554425
 105.1206137  50.3848504 118.3887859  93.0594670  43.5119609 111.6449939
  92.2625833  43.6238304 112.1633435  92.8320262  43.8506262 110.7790830
  98.8900338  50.0364313 119.5932454  98.9544770  50.4984720 120.4290626
  98.1811262  49.4061678 119.7214764  89.3917628  43.4005521 117.1181453
  89.6425666  44.2852531 117.3839029  89.9277176  43.2210122 116.3456545
  98.6048355  51.7032420 109.4611434  98.4694030  52.5483956 109.8896282
  99.1458168  51.9051698 108.6977368  92.0577753  49.2207858 110.0339359
  92.5702273  50.0151108 110.1844924  92.7100466  48.5234149 109.9672961
  93.8672638  52.3373615 112.1162112  94.0439266  53.2591579 111.9283096
  94.6629471  52.0232034 112.5456492  93.1524994  44.3838246 121.9924276
  93.0378509  43.4823504 122.2931374  92.2969512  44.6301943 121.6409092
 100.2316832  52.3255987 123.5911776  99.7880686  51.5392365 123.2732681
 100.8934045  52.5135137 122.9255667  94.9903953  53.8551788 118.1172455
  95.5411378  53.7268852 117.3449449  94.1515429  54.1546677 117.7667347
  98.7871124  50.1202916 122.4616686  99.3199461  49.3591204 122.2315994
  98.2585205  49.8276568 123.2040840  90.0226670  47.5496513 110.8098930
  90.8601892  47.9593521 110.5932637  90.2004937  46.6095955 110.7799124
 101.9191102  45.2171593 106.4982763 101.4037725  45.9876198 106.7371150
 101.6468410  44.5436729 107.1215824  99.5038213  40.0621294 111.5568001
  98.6479809  39.6728144 111.3773640  99.9165165  40.1413255 110.6967787
  97.2780245  37.6806367 114.9625743  98.1433242  37.4849176 114.6031632
  97.3457754  37.4516719 115.8895099 106.8925376  47.9703948 108.4335936
 106.1154819  47.6315107 107.9891098 107.5716857  47.9756571 107.7590901
 101.7077405  43.0898685 108.3242544 101.4027540  43.4044834 109.1752687
 102.6607847  43.1680105 108.3669877 100.1523837  49.2488909 109.9735498
  99.6245198  48.5141668 109.6608735  99.6511339  50.0263585 109.7275466
 105.1316683  47.4437929 115.0902544 104.4740357  48.1337190 115.1782673
 105.9357082  47.8334361 115.4336530  94.8842564  39.9108575 112.3342109
  95.4586316  39.6883756 111.6015302  95.4713547  39.9797269 113.0870711
 103.9422142  45.7982302 113.1406486 104.4554023  46.4312294 113.6428196
 104.5923365  45.1983497 112.7749846  95.2112151  41.9413036 106.3537995
  94.3749464  42.2787722 106.6747269  95.0716921  41.8062016 105.4165132
  97.1865232  36.7849824 111.0617179  96.5329644  36.4698841 110.4373794
  97.1445706  36.1625564 111.7877002  98.2976437  47.0669119 102.9770471
  97.3903499  46.8358372 103.1761620  98.7947469  46.2706738 103.1644452
 101.2044516  55.7766626 105.8967157 100.5306215  56.0798323 106.5052115
 101.5910338  56.5795706 105.5472614 100.4202972  43.2731757 115.3864826
  99.5025534  43.4946704 115.2286514 100.8363116  43.3478068 114.5276534
 101.2038020  44.6723173 110.5167507 101.9509839  45.1844570 110.2074629
 101.4729610  44.3507226 111.3771900  99.4764670  47.1681714 107.4994461
  98.5675890  46.8840747 107.5966931  99.5059754  47.5880792 106.6397768
 104.7083938  50.7788303 111.2685628 104.2546265  49.9379213 111.3250819
 104.0777905  51.4149702 111.6060409 103.6516857  41.7080289 112.4986296
 102.9139614  41.1957675 112.8296539 103.9043631  41.2680671 111.6869573
 103.1516877  52.6164800 112.2035447 103.4439851  53.1769857 111.4847812
 103.6615498  52.9093361 112.9588606  90.0452841  44.8887228 111.4809663
  89.8477241  44.2956589 110.7560730  89.4899505  44.5839438 112.1985602
  98.0249564  44.7810334 113.6004256  98.0798174  43.8284171 113.5246733
  97.2140766  44.9369773 114.0845555  99.1740758  48.7090457 104.8382540
  98.7360188  47.9926316 104.3788177  99.9151199  48.9366572 104.2767631
  95.9641924  43.3987394 111.3594635  95.1509790  43.6981565 111.7659827
  96.4600919  43.0043083 112.0769117  98.1150502  53.3945151 113.2928900
  98.0726681  53.6205997 112.3637432  99.0313201  53.1608526 113.4414701
 107.2913873  46.9847654 110.8958858 107.1531772  47.1749250 109.9680047
 106.9350092  47.7467037 111.3526909  95.4555999  40.9705750 116.9755870
  96.0955378  40.8294509 116.2778833  94.6233530  40.6840263 116.5994472
  96.2316303  50.2708180 113.0890863  97.0256902  49.7758500 112.8873438
  95.5207995  49.7426043 112.7258568 101.0511147  52.6526276 117.4403230
 101.1048170  53.2217212 118.2080946 100.1825929  52.8228161 117.0757267
  92.5399066  44.4151262 109.1650615  91.6096655  44.3535717 109.3820577
  92.6356538  43.8927215 108.3687256  92.4584616  40.9406075 111.7528857
  92.7191433  41.8551408 111.6438017  93.2801788  40.4730517 111.9025470
  93.9309541  42.3543832 118.9227681  94.6032594  42.1461194 118.2740330
  93.1039327  42.1565918 118.4832914 100.0099247  46.8186538 118.9990162
 100.9391307  46.9697697 118.8259129  99.5890277  46.9070558 118.1438809
  98.8087579  50.8437202 116.7688700  98.6698665  50.4755986 117.6414638
  98.0202175  51.3584841 116.5972657  99.4035731  55.9446298 108.1114236
  99.5787487  55.4734342 108.9259859  98.7168519  56.5712065 108.3395497
 100.3592794  50.2218805 114.1577537 100.0242627  50.1819575 115.0535187
  99.8596740  49.5563521 113.6847948  94.3337038  45.6286435 119.6830119
  94.1956836  44.8966674 120.2841658  95.2441962  45.5395335 119.4014306
 103.2951986  47.5674839 104.4314597 102.6781156  46.8421667 104.3347650
 102.8268474  48.3284199 104.0881671  96.9619339  45.3406394 119.1713798
  97.6718957  44.6999586 119.1300417  96.9188647  45.5919289 120.0939979
  95.6748273  42.3271612 120.9909438  95.1385630  41.8762350 121.6431034
  95.0864981  42.4617521 120.2479902  93.9696816  59.0935661 114.8854096
  94.2093414  59.7254185 115.5633115  93.1266013  58.7423701 115.1719456
  95.0850532  41.7860263 103.5535901  94.2079998  41.6649064 103.1898148
  95.5608285  40.9946342 103.3014790  86.6052672  46.5737423 113.6477409
  87.2923712  46.2599153 113.0598424  86.4500801  47.4778788 113.3744660
  91.4087394  41.4627620 118.0762432  91.3245583  40.8553289 117.3412842
  90.5870100  41.9536638 118.0771929  98.4824678  54.9014784 117.2895600
  98.4094850  55.7069755 117.8014905  98.0402071  55.1006750 116.4643622
  98.2714458  54.1386554 110.7998422  97.4881980  54.6808234 110.8936646
  98.9707203  54.6560533 111.1992663 101.5811108  39.9481183 113.4432627
 102.0779807  39.1951146 113.1233697 100.8098089  39.9845500 112.8775837
 100.9423362  54.8001618 119.4453759 101.6551334  55.4349083 119.3729660
 100.4513390  54.8965484 118.6293761 102.6640889  48.7052870 111.0171051
 101.7297167  48.8254333 110.8475755 102.8417557  47.8025337 110.7531060
  98.1646077  42.0898566 113.1704312  97.7943864  41.5369607 113.8585217
  98.6605169  41.4856700 112.6179312 106.0513440  44.5470190 111.5521085
 106.5173892  45.3798181 111.4781387 106.5020940  44.0815171 112.2566343
  95.9935275  52.5496061 120.2659330  96.6944735  53.1832544 120.4188724
  95.5230390  52.8910793 119.5054969 104.1189671  50.8914011 108.5507237
 104.3949515  50.7770606 109.4601111 103.2494170  50.4931496 108.5119410
 100.7543735  55.1400362 112.1940050 100.9366130  54.3222018 112.6567803
 101.5776721  55.3568054 111.7564940 101.0885901  54.0668547 109.4555099
 101.6173667  53.5561002 108.8425261 101.3514120  53.7511077 110.3200632
  91.5902993  52.0832416 117.1990432  92.1756430  51.3376104 117.3318337
  91.3927832  52.3936373 118.0827096  94.4441648  55.1183664 112.2152875
  93.7752024  55.6029791 111.7316915  94.3054518  55.3652884 113.1296253
  86.1820648  44.6538016 115.9194876  86.2204747  44.1201607 116.7131994
  85.6760941  44.1273222 115.3005853  98.5846917  57.1527407 118.8135533
  99.1365225  57.3159029 119.5784618  98.9253111  57.7431845 118.1415558
  93.5611410  39.5002557 119.4157418  93.6252737  40.3617388 119.0034816
  93.4978531  38.8876559 118.6829776  89.8129226  43.3802119 108.9948807
  90.1082667  42.4712797 108.9415861  88.9117261  43.3589858 108.6729809
 101.7215304  55.1009383 115.7999215 101.5966444  54.2999123 115.2910161
 102.3794395  55.5955576 115.3113185  93.3423473  41.4558115 114.9776356
  92.6210058  42.0694083 114.8383829  94.1316728  41.9915880 114.8993002
 103.7850213  52.9018403 117.4278765 102.8380548  52.7823754 117.3557092
 104.1332986  52.0140901 117.5105027  91.5417067  41.0616216 109.1188132
  91.2129773  40.1813595 108.9363238  91.8956438  41.0063885 110.0064521
 100.7896646  52.6971119 113.6283118 100.6421608  51.7687826 113.8090688
 101.6150140  52.7191210 113.1440193  94.6558890  41.3489186 109.4863610
  94.9954963  41.8775107 108.7642218  95.1031011  41.6869592 110.2622176
 104.3930768  53.5199678 114.7147990 105.3177315  53.3142539 114.5772442
 104.2246071  53.2716079 115.6237332  96.6427037  39.8463808 107.6856903
  97.3635400  40.2245060 107.1820619  96.0192342  40.5652684 107.7891881
 100.7858160  40.5508957 108.6215235 101.0021775  41.4333594 108.3204063
 100.3052227  40.1595170 107.8920877  95.5257382  43.5094670 115.1985980
  95.3801962  43.8234973 116.0910261  95.0482585  44.1279570 114.6456878
  97.3853765  40.4997218 115.2466869  97.3715333  39.6038311 114.9099167
  98.1026193  40.5067882 115.8805155  99.2379895  40.9334558 117.2919997
  98.9797673  41.8551629 117.2904327  98.7064936  40.5364993 117.9820461
 104.1826084  54.0385345 110.0710082 104.3562962  53.4731768 109.3183934
 104.6754975  54.8386240 109.8889572  90.0003044  46.0500014 118.1373641
  89.4556512  46.8259822 118.2693915  90.8782394  46.3970819 117.9792762
  96.7890661  39.3811598 110.5154439  96.9106572  38.4528244 110.7145327
  96.4992703  39.3950284 109.6032755  99.6581851  37.0666509 113.6521159
  99.6803548  37.1305842 112.6973139 100.0749910  36.2271017 113.8461665
 110.0365475  46.8021768 111.6900382 110.4796621  46.0529093 111.2919505
 109.1591986  46.7931904 111.3074114 105.1701257  53.3552110 107.1706980
 105.8652161  53.9758802 107.3894295 105.5124407  52.5047461 107.4459358
  90.7869066  45.1769911 121.0303798  90.0450802  45.3252546 121.6168428
  90.4661810  45.4378176 120.1670547 107.0692680  50.8051815 108.6994311
 107.5944004  51.1439088 107.9743631 106.9815032  49.8698830 108.5157446
  98.7312728  54.7185889 120.8284188  99.0399855  54.4735035 121.7006887
  99.5288210  54.9232527 120.3403058  98.7533340  56.8723798 113.0589564
  98.3138331  56.3800177 113.7522421  99.5041457  56.3296766 112.8181639
  91.2325679  53.0635339 113.0614192  92.0583699  52.7639111 112.6812836
  90.8819731  52.2942962 113.5103981  96.2007213  52.4161807 115.1311866
  95.5787222  51.7532512 114.8314094  96.8712079  52.4422939 114.4485514
  89.4334284  50.9821666 114.0203126  88.5966193  50.5543840 113.8387127
  89.4057930  51.1754109 114.9573917  95.7620719  50.9665731 108.6070326
  95.9108840  51.6501195 107.9536999  96.5687163  50.9470821 109.1219782
  93.5173352  46.9930908 109.6131395  93.2719394  46.0893238 109.8111605
  93.6869267  46.9948059 108.6710873  92.7869000  42.7259266 107.1117557
  92.0938245  42.8003621 106.4557593  92.5420752  41.9619610 107.6339074
  99.2616125  53.4613861 106.0782074  98.6890092  54.0804048 105.6252546
  99.8348919  54.0113223 106.6121996 102.4813385  53.7451011 107.2090656
 103.4144058  53.6796573 107.4123532 102.3936598  54.5807278 106.7505189
 105.1101401  53.0616882 104.1694604 105.0315033  52.7276745 105.0630362
 105.9311068  53.5538650 104.1686076  99.6462923  44.7974674 103.4198126
 100.5922028  44.6680882 103.4886544  99.2677168  44.0589336 103.8967554
  97.8305841  42.7224650 103.3553012  96.9237296  42.4257763 103.4315725
  98.1081822  42.4254468 102.4887298  88.7483781  44.0431014 113.8052058
  88.4286565  43.1896322 113.5126432  88.2017209  44.2579592 114.5610025
  92.5263689  46.7593455 117.5221564  92.7449698  47.6910563 117.5409598
  92.9389462  46.4001429 118.3076368  99.4467906  37.2661540 109.5097253
  98.6368635  36.9208625 109.8852499 100.1352323  36.9569084 110.0984864
 101.3758455  36.3439587 111.1321549 101.9289493  36.7635040 111.7911573
 101.6128541  35.4175335 111.1744505  96.6004625  39.5811586 103.4964991
  97.4623789  39.9066484 103.7560808  96.7854969  38.7943081 102.9838056
  88.6172041  47.6633925 115.7745179  87.9235512  47.2487878 115.2615134
  89.3645032  47.7054462 115.1778598 104.7537262  38.4540112 110.6400214
 104.1735931  39.1124916 110.2578266 104.4873194  37.6317457 110.2287631
  90.5308784  47.5952179 113.6511194  90.5079472  47.6939866 112.6993077
  90.8409420  48.4417330 113.9728360  93.1896161  49.6528334 117.7657809
  94.1439415  49.6212276 117.6987740  92.9908685  49.1918958 118.5808035
  93.7795544  48.2229450 120.3328606  94.5988433  48.7173529 120.3563444
  94.0532351  47.3061418 120.3046174 103.5362140  40.6140202 109.6956562
 102.6487995  40.8989853 109.4776757 103.9516129  40.4533966 108.8483839
  91.5446390  55.1947954 114.7828007  91.4100858  54.4348354 114.2166005
  91.1278452  55.9188853 114.3156796 102.6805353  50.3784877 103.7904582
 103.3841203  50.5834880 104.4062238 101.9568002  50.9461639 104.0553665
 103.5103164  46.1294738 109.9106852 103.4538365  46.5863290 109.0714485
 104.0631506  45.3685423 109.7329695 107.3207969  41.9184470 110.7356972
 107.0644904  41.5181106 111.5665179 106.6960837  42.6328264 110.6107111
  94.7015516  56.0917271 114.9946449  94.5847900  57.0362703 114.8925140
  93.8807962  55.7890832 115.3832249 104.5892051  50.8167406 105.8403042
 105.4237655  50.3848605 105.6580517 104.4276394  50.6449420 106.7679936
 104.2437943  47.3199520 107.2059381 104.1886747  47.1543791 106.2647825
 103.6183998  48.0275553 107.3621571  89.0330458  42.5567584 121.0320804
  89.6789321  42.0466538 121.5208029  88.8247609  43.2936266 121.6064229
  97.5534068  36.8207629 106.7844700  97.5412738  37.7649469 106.9412971
  98.4457490  36.6377774 106.4904161  95.7270030  56.7445532 118.2102378
  96.6297277  56.7769143 118.5268873  95.5007400  55.8145983 118.2248714
  97.4823632  55.4976519 114.8712456  96.5319263  55.4978381 114.7576829
  97.7856118  54.7509254 114.3548491 101.3686188  33.4150405 111.0390636
 100.6018584  32.8608892 111.1847319 101.7796893  33.4872274 111.9004788
 110.0266032  61.2864486 115.8719743 109.6884544  61.1705550 114.9840278
 110.8955800  60.8855651 115.8520750 105.8852848  63.1399962 111.8616634
 105.3217713  63.0489899 111.0932922 105.7705243  62.3199866 112.3419127
 103.4317280  64.6351154 114.7000855 104.2238572  64.2941978 114.2847154
 103.6713930  64.7446129 115.6203008 111.4652406  66.8070930 107.1731099
 110.8140386  67.3925010 106.7865113 112.2596769  67.3377125 107.2326137
 105.3908034  63.8960067 107.5718234 106.1638910  63.3489054 107.4331109
 105.7433432  64.7604316 107.7832695 107.7274311  60.0552733 105.2036684
 107.9799832  59.5334254 104.4420147 106.7898870  59.8918878 105.3063367
 112.7717594  59.0588511 113.0111427 113.5580683  58.6407934 112.6601844
 113.0356299  59.9634603 113.1793075 112.9427672  64.4961362 107.7100084
 112.3073505  64.5695988 108.4220988 112.6125078  65.0854960 107.0319163
 107.4470600  61.9580839 107.4061059 107.3306858  61.2825742 108.0742143
 107.5572860  61.4713213 106.5893212 109.7902141  61.4190986 111.1107748
 109.4260348  60.8921607 111.8220669 110.6469257  61.0289455 110.9374233
 109.4307628  56.4480886 106.1069096 109.5982030  57.3161122 106.4739567
 109.2404797  56.6108167 105.1830386 105.6395443  61.3611661 113.8071631
 104.7145939  61.2287876 114.0149323 105.8879856  62.1405881 114.3041573
 109.4096849  58.9038543 107.0915763 109.2896474  59.3495594 107.9301243
 108.7149437  59.2523861 106.5329301 103.0004254  61.0044935 114.6415420
 103.1296635  61.2579414 115.5554832 102.3201705  61.5972643 114.3220075
 107.1703741  71.6742185 110.7405894 107.0927771  72.6250010 110.8194375
 106.5665385  71.3288057 111.3980821 115.1081915  59.3760016 107.9196097
 116.0199771  59.6087403 107.7443795 114.5991562  59.9597061 107.3571176
 109.2679459  64.0960243 112.5759764 109.7317805  64.3747946 111.7864386
 109.0036257  63.1943687 112.3932854 106.1603540  63.6431724 115.5139527
 106.7304897  64.0718993 114.8757011 106.7511652  63.3614309 116.2123713
 108.2048345  60.2183395 109.3849329 108.9072389  60.6704439 109.8523255
 107.8728974  59.5767214 110.0129222 101.9473679  58.4766948 114.6866462
 101.1572733  58.7324476 114.2106573 102.4384927  59.2915286 114.7918503
 103.8988425  58.8411527 111.6449939 103.1019588  58.9530221 112.1633435
 103.6714017  59.1798179 110.7790830 100.2311382  58.7297438 117.1181453
 100.4819421  59.6144448 117.3839029 100.7670931  58.5502040 116.3456545
 109.4442110  67.0324338 109.4611434 109.3087785  67.8775874 109.8896282
 109.9851922  67.2343616 108.6977368 102.8971507  64.5499776 110.0339359
 103.4096028  65.3443026 110.1844924 103.5494220  63.8526066 109.9672961
 104.7066392  67.6665532 112.1162112 104.8833020  68.5883497 111.9283096
 105.5023226  67.3523951 112.5456492 100.8620424  62.8788430 110.8098930
 101.6995646  63.2885439 110.5932637 101.0398692  61.9387872 110.7799124
 112.7584856  60.5463511 106.4982763 112.2431480  61.3168116 106.7371150
 112.4862165  59.8728647 107.1215824 110.3431967  55.3913212 111.5568001
 109.4873564  55.0020062 111.3773640 110.7558919  55.4705172 110.6967787
 108.1174000  53.0098285 114.9625743 108.9826997  52.8141093 114.6031632
 108.1851509  52.7808636 115.8895099 117.7319130  63.2995866 108.4335936
 116.9548573  62.9607025 107.9891098 118.4110611  63.3048489 107.7590901
 112.5471159  58.4190603 108.3242544 112.2421295  58.7336752 109.1752687
 113.5001602  58.4972023 108.3669877 110.9917591  64.5780826 109.9735498
 110.4638953  63.8433586 109.6608735 110.4905094  65.3555503 109.7275466
 105.7236319  55.2400493 112.3342109 106.2980071  55.0175674 111.6015302
 106.3107301  55.3089187 113.0870711 114.7815896  61.1274219 113.1406486
 115.2947778  61.7604211 113.6428196 115.4317120  60.5275415 112.7749846
 106.0505906  57.2704954 106.3537995 105.2143218  57.6079640 106.6747269
 105.9110676  57.1353933 105.4165132 108.0258987  52.1141741 111.0617179
 107.3723399  51.7990759 110.4373794 107.9839461  51.4917482 111.7877002
 109.1370191  62.3961037 102.9770471 108.2297253  62.1650290 103.1761620
 109.6341223  61.5998656 103.1644452 112.0438270  71.1058544 105.8967157
 111.3699969  71.4090240 106.5052115 112.4304092  71.9087624 105.5472614
 111.2596727  58.6023675 115.3864826 110.3419288  58.8238622 115.2286514
 111.6756871  58.6769985 114.5276534 112.0431775  60.0015091 110.5167507
 112.7903594  60.5136488 110.2074629 112.3123364  59.6799143 111.3771900
 110.3158425  62.4973631 107.4994461 109.4069644  62.2132664 107.5966931
 110.3453509  62.9172710 106.6397768 114.4910612  57.0372207 112.4986296
 113.7533369  56.5249593 112.8296539 114.7437385  56.5972589 111.6869573
 100.8846595  60.2179146 111.4809663 100.6870995  59.6248506 110.7560730
 100.3293259  59.9131356 112.1985602 108.8643319  60.1102252 113.6004256
 108.9191929  59.1576088 113.5246733 108.0534521  60.2661691 114.0845555
 110.0134513  64.0382375 104.8382540 109.5753943  63.3218234 104.3788177
 110.7544954  64.2658490 104.2767631 106.8035679  58.7279312 111.3594635
 105.9903544  59.0273482 111.7659827 107.2994673  58.3335001 112.0769117
 118.1307627  62.3139572 110.8958858 117.9925526  62.5041168 109.9680047
 117.7743846  63.0758955 111.3526909 106.2949754  56.2997667 116.9755870
 106.9349133  56.1586426 116.2778833 105.4627284  56.0132181 116.5994472
 107.0710058  65.6000098 113.0890863 107.8650656  65.1050418 112.8873438
 106.3601750  65.0717961 112.7258568 103.3792821  59.7443179 109.1650615
 102.4490409  59.6827635 109.3820577 103.4750293  59.2219132 108.3687256
 103.2978370  56.2697992 111.7528857 103.5585187  57.1843326 111.6438017
 104.1195542  55.8022435 111.9025470 104.7703295  57.6835749 118.9227681
 105.4426349  57.4753112 118.2740330 103.9433082  57.4857835 118.4832914
 110.2429485  71.2738216 108.1114236 110.4181241  70.8026259 108.9259859
 109.5562273  71.9003982 108.3395497 114.1345740  62.8966757 104.4314597
 113.5174911  62.1713585 104.3347650 113.6662229  63.6576117 104.0881671
 105.9244286  57.1152181 103.5535901 105.0473753  56.9940982 103.1898148
 106.4002039  56.3238259 103.3014790  97.4446426  61.9029341 113.6477409
  98.1317466  61.5891071 113.0598424  97.2894555  62.8070705 113.3744660
 102.2481148  56.7919537 118.0762432 102.1639337  56.1845207 117.3412842
 101.4263855  57.2828556 118.0771929 109.1108212  69.4678471 110.7998422
 108.3275734  70.0100152 110.8936646 109.8100957  69.9852451 111.1992663
 112.4204862  55.2773101 113.4432627 112.9173562  54.5243063 113.1233697
 111.6491844  55.3137418 112.8775837 113.5034643  64.0344788 111.0171051
 112.5690922  64.1546251 110.8475755 113.6811312  63.1317255 110.7531060
 109.0039831  57.4190484 113.1704312 108.6337619  56.8661524 113.8585217
 109.4998924  56.8148617 112.6179312 116.8907194  59.8762107 111.5521085
 117.3567647  60.7090099 111.4781387 117.3414695  59.4107089 112.2566343
 114.9583426  66.2205929 108.5507237 115.2343269  66.1062523 109.4601111
 114.0887924  65.8223413 108.5119410 111.9279655  69.3960465 109.4555099
 112.4567421  68.8852919 108.8425261 112.1907875  69.0802995 110.3200632
  97.0214402  59.9829934 115.9194876  97.0598502  59.4493525 116.7131994
  96.5154695  59.4565140 115.3005853 104.4005165  54.8294475 119.4157418
 104.4646491  55.6909306 119.0034816 104.3372285  54.2168476 118.6829776
 100.6522980  58.7094036 108.9948807 100.9476421  57.8004715 108.9415861
  99.7511016  58.6881776 108.6729809 104.1817227  56.7850033 114.9776356
 103.4603813  57.3986001 114.8383829 104.9710483  57.3207798 114.8993002
 102.3810822  56.3908134 109.1188132 102.0523528  55.5105513 108.9363238
 102.7350192  56.3355803 110.0064521 105.4952645  56.6781104 109.4863610
 105.8348717  57.2067025 108.7642218 105.9424765  57.0161510 110.2622176
 107.4820792  55.1755725 107.6856903 108.2029154  55.5536978 107.1820619
 106.8586096  55.8944602 107.7891881 111.6251915  55.8800874 108.6215235
 111.8415529  56.7625512 108.3204063 111.1445982  55.4887088 107.8920877
 106.3651136  58.8386588 115.1985980 106.2195717  59.1526891 116.0910261
 105.8876340  59.4571488 114.6456878 108.2247519  55.8289136 115.2466869
 108.2109088  54.9330229 114.9099167 108.9419947  55.8359799 115.8805155
 110.0773650  56.2626476 117.2919997 109.8191428  57.1843546 117.2904327
 109.5458690  55.8656910 117.9820461 100.8396798  61.3791932 118.1373641
 100.2950266  62.1551740 118.2693915 101.7176148  61.7262736 117.9792762
 107.6284415  54.7103516 110.5154439 107.7500326  53.7820162 110.7145327
 107.3386457  54.7242202 109.6032755 110.4975605  52.3958426 113.6521159
 110.5197302  52.4597759 112.6973139 110.9143664  51.5562935 113.8461665
 116.0095011  68.6844027 107.1706980 116.7045916  69.3050720 107.3894295
 116.3518161  67.8339378 107.4459358 117.9086434  66.1343733 108.6994311
 118.4337758  66.4731006 107.9743631 117.8208787  65.1990748 108.5157446
 102.0719434  68.3927257 113.0614192 102.8977454  68.0931029 112.6812836
 101.7213486  67.6234879 113.5103981 100.2728039  66.3113583 114.0203126
  99.4359947  65.8835758 113.8387127 100.2451684  66.5046027 114.9573917
 106.6014474  66.2957648 108.6070326 106.7502594  66.9793113 107.9536999
 107.4080917  66.2762739 109.1219782 104.3567107  62.3222826 109.6131395
 104.1113149  61.4185156 109.8111605 104.5263021  62.3239977 108.6710873
 103.6262754  58.0551184 107.1117557 102.9331999  58.1295539 106.4557593
 103.3814506  57.2911527 107.6339074 110.1009879  68.7905779 106.0782074
 109.5283847  69.4095966 105.6252546 110.6742673  69.3405141 106.6121996
 113.3207139  69.0742929 107.2090656 114.2537812  69.0088491 107.4123532
 113.2330352  69.9099196 106.7505189 115.9495156  68.3908799 104.1694604
 115.8708787  68.0568663 105.0630362 116.7704823  68.8830567 104.1686076
 110.4856678  60.1266592 103.4198126 111.4315783  59.9972800 103.4886544
 110.1070923  59.3881254 103.8967554 108.6699595  58.0516568 103.3553012
 107.7631051  57.7549681 103.4315725 108.9475576  57.7546386 102.4887298
  99.5877536  59.3722931 113.8052058  99.2680320  58.5188240 113.5126432
  99.0410964  59.5871510 114.5610025 103.3657443  62.0885372 117.5221564
 103.5843453  63.0202480 117.5409598 103.7783217  61.7293347 118.3076368
 110.2861661  52.5953458 109.5097253 109.4762389  52.2500543 109.8852499
 110.9746078  52.2861002 110.0984864 112.2152209  51.6731505 111.1321549
 112.7683248  52.0926958 111.7911573 112.4522296  50.7467253 111.1744505
 107.4398380  54.9103503 103.4964991 108.3017544  55.2358402 103.7560808
 107.6248724  54.1234999 102.9838056  99.4565796  62.9925843 115.7745179
  98.7629267  62.5779796 115.2615134 100.2038787  63.0346379 115.1778598
 115.5931016  53.7832030 110.6400214 115.0129685  54.4416834 110.2578266
 115.3266949  52.9609374 110.2287631 101.3702538  62.9244097 113.6511194
 101.3473226  63.0231784 112.6993077 101.6803175  63.7709248 113.9728360
 114.3755894  55.9432120 109.6956562 113.4881749  56.2281771 109.4776757
 114.7909883  55.7825883 108.8483839 113.5199108  65.7076795 103.7904582
 114.2234958  65.9126797 104.4062238 112.7961756  66.2753557 104.0553665
 114.3496918  61.4586656 109.9106852 114.2932119  61.9155207 109.0714485
 114.9025260  60.6977341 109.7329695 118.1601724  57.2476388 110.7356972
 117.9038658  56.8473024 111.5665179 117.5354592  57.9620182 110.6107111
 115.4285805  66.1459324 105.8403042 116.2631409  65.7140522 105.6580517
 115.2670148  65.9741338 106.7679936 115.0831697  62.6491437 107.2059381
 115.0280501  62.4835709 106.2647825 114.4577753  63.3567470 107.3621571
  99.8724212  57.8859502 121.0320804 100.5183076  57.3758456 121.5208029
  99.6641363  58.6228183 121.6064229 108.3927823  52.1499546 106.7844700
 108.3806493  53.0941386 106.9412971 109.2851245  51.9669692 106.4904161
 112.2079942  48.7442323 111.0390636 111.4412338  48.1900810 111.1847319
 112.6190647  48.8164192 111.9004788 116.8899660  72.5996871 106.3537995
 116.0536973  72.9371558 106.6747269 116.7504430  72.4645851 105.4165132
 116.7638041  72.4444099 103.5535901 115.8867507  72.3232899 103.1898148
 117.2395794  71.6530177 103.3014790 114.4656509  73.3843101 107.1117557
 113.7725754  73.4587456 106.4557593 114.2208261  72.6203445 107.6339074
 119.5093350  73.3808486 103.3553012 118.6024805  73.0841598 103.4315725
 119.7869331  73.0838304 102.4887298 118.2792134  70.2395421 103.4964991
 119.1411298  70.5650319 103.7560808 118.4642478  69.4526917 102.9838056
 119.2321577  67.4791464 106.7844700 119.2200247  68.4233304 106.9412971
 120.1244999  67.2961609 106.4904161  74.6522479   2.6928554  97.4651201
  74.5746509   3.6436380  97.5439682  74.0484122   2.3474427  98.1226127
  72.2909309   5.4413948 101.6099403  72.5305907   6.0732473 102.2878422
  71.4478505   5.0901989 101.8964762  72.7654141   1.4661951  98.9398181
  72.0964516   1.9508078  98.4562222  72.6267010   1.7131171  99.8541560
  76.9059409   3.5005694 105.5380840  77.4577717   3.6637316 106.3029925
  77.2465603   4.0910132 104.8660865  77.0745833   3.2202086  99.7834871
  76.6350823   2.7278464 100.4767727  77.8253950   2.6775053  99.5426946
  69.8658883   1.5426241 101.5073313  69.7313350   0.7826642 100.9411311
  69.4490945   2.2667141 101.0402102  73.0228008   2.4395558 101.7191756
  72.9060393   3.3840990 101.6170446  72.2020455   2.1369119 102.1077555
  74.0482523   3.0923820 104.9347684  74.9509769   3.1247430 105.2514179
  73.8219893   2.1624271 104.9494020  88.3478524   7.6342773 102.5965050
  88.0097036   7.5183837 101.7085585  89.2168292   7.2333938 102.5766056
  84.2065340   9.4878249  98.5861941  83.6430205   9.3968186  97.8178229
  84.0917735   8.6678154  99.0664434  81.7529772  10.9829441 101.4246161
  82.5451064  10.6420265 101.0092461  81.9926422  11.0924416 102.3448315
  89.7864899  13.1549217  93.8976406  89.1352878  13.7403297  93.5110420
  90.5809262  13.6855412  93.9571443  83.7120526  10.2438354  94.2963540
  84.4851402   9.6967341  94.1576416  84.0645925  11.1082603  94.5078002
  85.5505568  11.5714736 107.5030440  85.2595434  12.4760367 107.3877106
  86.1862553  11.6131264 108.2174509  86.4761775   8.9491585 104.0931799
  87.0725348   8.7247607 103.3788762  86.5336747   8.2076330 104.6957247
  86.0486804   6.4031020  91.9281990  86.3012324   5.8812541  91.1665453
  85.1111363   6.2397166  92.0308674  91.2640164  10.8439649  94.4345390
  90.6285997  10.9174275  95.1466295  90.9337570  11.4333248  93.7564469
  85.7683092   8.3059126  94.1306365  85.6519351   7.6304029  94.7987449
  85.8785352   7.8191500  93.3138518  88.1114633   7.7669273  97.8353054
  87.7472841   7.2399894  98.5465976  88.9681749   7.3767742  97.6619540
  90.5095454  11.2576152 104.4980233  90.2096177  12.1601191 104.3896041
  90.1646513  10.9908335 105.3501386  83.9607935   7.7089949 100.5316938
  83.0358431   7.5766163 100.7394629  84.2092348   8.4884168 101.0286880
  81.3216746   7.3523222 101.3660727  81.4509127   7.6057701 102.2800138
  80.6414197   7.9450930 101.0465382  85.4916233  18.0220472  97.4651201
  85.4140263  18.9728297  97.5439682  84.8877877  17.6766345  98.1226127
  86.2379835   8.0033791 109.6830535  86.9794520   8.5418835 109.4065358
  85.5316821   8.6300080 109.8402087  92.0363990  10.7064122 102.0354985
  91.4072852  10.8709836 101.3331053  91.6489652  11.1205732 102.8065949
  95.9153222  11.6418560  99.3899349  95.2304260  12.0217461  98.8396382
  95.9997071  12.2513887 100.1231297  87.5891952  10.4438530  99.3005070
  88.0530297  10.7226233  98.5109693  87.3248750   9.5421975  99.1178161
  84.4816033   9.9910012 102.2384834  85.0517390  10.4197280 101.6002318
  85.0724144   9.7092596 102.9369019  86.5260838   6.5661683  96.1094635
  87.2284881   7.0182726  96.5768562  86.1941466   5.9245501  96.7374529
  80.2686172   4.8245235 101.4111769  79.4785226   5.0802764 100.9351880
  80.7597419   5.6393573 101.5163810  94.2849981  12.1650474 104.1617050
  95.1067425  11.7630662 103.8799732  94.2812384  12.0618709 105.1133166
  82.2200917   5.1889814  98.3695246  81.4232080   5.3008509  98.8878741
  81.9926509   5.5276467  97.5036136  88.0506585  11.7134518 106.3177760
  88.1151017  12.1754925 107.1535932  87.3417508  11.0831883 106.4460070
  78.5523875   5.0775726 103.8426760  78.8031913   5.9622736 104.1084336
  79.0883423   4.8980327 103.0701852  87.7654602  13.3802625  96.1856741
  87.6300277  14.2254161  96.6141589  88.3064415  13.5821903  95.4222674
  81.2184000  10.8978063  96.7584666  81.7308520  11.6921313  96.9090230
  81.8706712  10.2004354  96.6918267  83.0278884  14.0143819  98.8407419
  83.2045513  14.9361784  98.6528403  83.8235718  13.7002239  99.2701799
  82.3131241   6.0608451 108.7169582  82.1984756   5.1593709 109.0176681
  81.4575759   6.3072148 108.3654399  89.3923079  14.0026192 110.3157083
  88.9486933  13.2162570 109.9977987  90.0540292  14.1905342 109.6500974
  84.1510200  15.5321993 104.8417761  84.7017625  15.4039057 104.0694755
  83.3121676  15.8316882 104.4912654  87.9477371  11.7973121 109.1861992
  88.4805708  11.0361409 108.9561300  87.4191452  11.5046773 109.9286147
  79.1832916   9.2266717  97.5344236  80.0208138   9.6363726  97.3177944
  79.3611184   8.2866160  97.5044430  96.0531623   9.6474153  95.1581243
  95.2761065   9.3085312  94.7136405  96.7323104   9.6526776  94.4836208
  89.3130084  10.9259114  96.6980804  88.7851445  10.1911873  96.3854042
  88.8117586  11.7033790  96.4520773  94.2922930   9.1208134 101.8147851
  93.6346604   9.8107395 101.9027979  95.0963329   9.5104566 102.1581837
  87.4582684   8.7439324  89.7015777  86.5509745   8.5128577  89.9006926
  87.9553716   7.9476943  89.8889759  90.3650763  17.4536831  92.6212464
  89.6912461  17.7568528  93.2297421  90.7516585  18.2565911  92.2717921
  88.6370917   8.8451919  94.2239768  87.7282136   8.5610951  94.3212237
  88.6666001   9.2650997  93.3643074  93.8690185  12.4558508  97.9930935
  93.4152512  11.6149418  98.0496126  93.2384151  13.0919907  98.3305715
  92.3123124  14.2935005  98.9280753  92.6046098  14.8540062  98.2093119
  92.8221744  14.5863566  99.6833912  79.2059088   6.5657433  98.2054970
  79.0083487   5.9726793  97.4806036  78.6505752   6.2609643  98.9230909
  88.3347005  10.3860662  91.5627846  87.8966435   9.6696521  91.1033483
  89.0757446  10.6136777  91.0012938  87.2756749  15.0715356 100.0174206
  87.2332928  15.2976202  99.0882738  88.1919448  14.8378731 100.1660008
  85.3922550  11.9478385  99.8136169  86.1863148  11.4528705  99.6118744
  84.6814242  11.4196248  99.4503875  90.2117394  14.3296480 104.1648537
  90.2654417  14.8987417 104.9326253  89.3432176  14.4998366 103.8002574
  81.7005313   6.0921467  95.8895922  80.7702901   6.0305922  96.1065884
  81.7962785   5.5697419  95.0932563  89.1705494   8.4956743 105.7235469
  90.0997554   8.6467902 105.5504436  88.7496524   8.5840763 104.8684115
  87.9693826  12.5207407 103.4934006  87.8304911  12.1526191 104.3659944
  87.1808422  13.0355046 103.3217964  88.5641978  17.6216503  94.8359543
  88.7393733  17.1504547  95.6505165  87.8774766  18.2482270  95.0640804
  89.5199041  11.8989010 100.8822844  89.1848874  11.8589780 101.7780494
  89.0202987  11.2333726 100.4093254  83.4943285   7.3056640 106.4075425
  83.3563083   6.5736878 107.0086964  84.4048208   7.2165540 106.1259613
  92.4558233   9.2445044  91.1559904  91.8387403   8.5191872  91.0592956
  91.9874721  10.0054404  90.8126978  86.1225586   7.0176599 105.8959105
  86.8325204   6.3769791 105.8545723  86.0794894   7.2689494 106.8185286
  83.1303063  20.7705866 101.6099403  83.3699661  21.4024390 102.2878422
  82.2872260  20.4193906 101.8964762  75.7658919   8.2507628 100.3722715
  76.4529958   7.9369358  99.7843730  75.6107047   9.1548993 100.0989967
  87.6430925  16.5784989 104.0140907  87.5701096  17.3839960 104.5260212
  87.2008318  16.7776954 103.1888928  87.4320705  15.8156759  97.5243729
  86.6488226  16.3578439  97.6181953  88.1313450  16.3330738  97.9237970
  90.1029608  16.4771823 106.1699066  90.8157581  17.1119287 106.0974967
  89.6119637  16.5735689 105.3539067  91.8247135  10.3823075  97.7416357
  90.8903414  10.5024538  97.5721062  92.0023804   9.4795542  97.4776367
  85.1541522  14.2266266 106.9904636  85.8550981  14.8602749 107.1434031
  84.6836637  14.5680998 106.2300276  93.2795918  12.5684216  95.2752543
  93.5555762  12.4540810  96.1846418  92.4100417  12.1701701  95.2364717
  89.9149982  16.8170567  98.9185357  90.0972376  15.9992223  99.3813109
  90.7382968  17.0338259  98.4810247  90.2492147  15.7438752  96.1800406
  90.7779914  15.2331206  95.5670568  90.5120367  15.4281282  97.0445939
  80.7509240  13.7602621 103.9235739  81.3362677  13.0146309 104.0563643
  80.5534078  14.0706578 104.8072403  83.6047895  16.7953869  98.9398181
  82.9358270  17.2799996  98.4562222  83.4660765  17.0423089  99.8541560
  75.3426895   6.3308221 102.6440182  75.3810994   5.7971812 103.4377300
  74.8367188   5.8043427 102.0251159  87.7453164  18.8297612 105.5380840
  88.2971472  18.9929234 106.3029925  88.0859357  19.4202050 104.8660865
  78.9735472   5.0572324  95.7194114  79.2688913   4.1483002  95.6661167
  78.0723508   5.0360063  95.3975116  90.8821551  16.7779588 102.5244522
  90.7572691  15.9769327 102.0155468  91.5400642  17.2725781 102.0358492
  92.9456459  14.5788608 104.1524072  91.9986795  14.4593959 104.0802399
  93.2939233  13.6911106 104.2350334  89.9502893  14.3741324 100.3528424
  89.8027855  13.4458031 100.5335994  90.7756386  14.3961415  99.8685500
  93.5537015  15.1969883 101.4393297  94.4783562  14.9912744 101.3017748
  93.3852318  14.9486284 102.3482639  84.6863628   5.1864875 101.9231286
  84.5408209   5.5005178 102.8155568  84.2088832   5.8049775 101.3702185
  93.3432331  15.7155550  96.7955389  93.5169208  15.1501973  96.0429241
  93.8361222  16.5156445  96.6134879  79.1609291   7.7270219 104.8618947
  78.6162759   8.5030027 104.9939222  80.0388640   8.0741024 104.7038069
  94.3307503  15.0322314  93.8952287  95.0258408  15.6529007  94.1139601
  94.6730653  14.1817666  94.1704665  79.9475312   6.8540115 107.7549104
  79.2057049   7.0022751 108.3413735  79.6268057   7.1148381 106.8915854
  96.2298926  12.4822020  95.4239618  96.7550251  12.8209293  94.6988938
  96.1421279  11.5469035  95.2402752  87.8918975  16.3956094 107.5529494
  88.2006102  16.1505240 108.4252194  88.6894457  16.6002732 107.0648364
  87.9139587  18.5494003  99.7834871  87.4744577  18.0570382 100.4767727
  88.6647704  18.0066971  99.5426946  80.3931926  14.7405544  99.7859499
  81.2189946  14.4409316  99.4058142  80.0425978  13.9713167 100.2349288
  85.3613459  14.0932012 101.8557172  84.7393469  13.4302717 101.5559400
  86.0318326  14.1193144 101.1730820  78.5940531  12.6591871 100.7448432
  77.7572440  12.2314045 100.5632434  78.5664177  12.8524314 101.6819224
  84.9226966  12.6435936  95.3315633  85.0715087  13.3271400  94.6782306
  85.7293410  12.6241026  95.8465089  82.6779599   8.6701113  96.3376702
  82.4325641   7.7663443  96.5356912  82.8475514   8.6718264  95.3956180
  88.4222372  15.1384066  92.8027380  87.8496339  15.7574253  92.3497852
  88.9955165  15.6883428  93.3367302  91.6419632  15.4221216  93.9335963
  92.5750305  15.3566778  94.1368838  91.5542844  16.2577483  93.4750495
  94.2707648  14.7387087  90.8939910  94.1921280  14.4046950  91.7875668
  95.0917315  15.2308855  90.8931383  77.9090028   5.7201219 100.5297365
  77.5892812   4.8666527 100.2371739  77.3623456   5.9349797 101.2855332
  81.6869935   8.4363660 104.2466871  81.9055945   9.3680768 104.2654905
  82.0995709   8.0771634 105.0321675  77.7778288   9.3404130 102.4990486
  77.0841759   8.9258083 101.9860441  78.5251279   9.3824667 101.9023905
  79.6915030   9.2722384 100.3756501  79.6685718   9.3710071  99.4238384
  80.0015667  10.1187535 100.6973667  82.3502408  11.3298539 104.4903115
  83.3045662  11.2982481 104.4233047  82.1514932  10.8689163 105.3053341
  82.9401790   9.8999655 107.0573913  83.7594679  10.3943734 107.0808750
  83.2138598   8.9831623 107.0291481  80.7052637  16.8718159 101.5073313
  80.5707105  16.1118559 100.9411311  80.2884699  17.5959058 101.0402102
  91.8411600  12.0555082  90.5149889  92.5447450  12.2605085  91.1307544
  91.1174249  12.6231844  90.7798972  83.8621763  17.7687476 101.7191756
  83.7454147  18.7132908 101.6170446  83.0414209  17.4661037 102.1077555
  93.7498297  12.4937611  92.5648349  94.5843901  12.0618810  92.3825823
  93.5882640  12.3219625  93.4925243  93.4044190   8.9969725  93.9304688
  93.3492993   8.8313996  92.9893132  92.7790245   9.7045757  94.0866878
  78.1936705   4.2337789 107.7566110  78.8395568   3.7236743 108.2453335
  77.9853856   4.9706471 108.3309535  84.8876277  18.4215737 104.9347684
  85.7903524  18.4539348 105.2514179  84.6613647  17.4916188 104.9494020
  86.6429879  17.1746724 101.5957763  85.6925510  17.1748586 101.4822135
  86.9462365  16.4279459 101.0793798 102.3782573  23.0107262 102.6603525
 103.0160982  22.8914010 101.9566865 102.2603415  23.9588106 102.7191478
  99.1872279  22.9634690 102.5965050  98.8490790  22.8475755 101.7085585
 100.0562047  22.5625856 102.5766056  95.0459094  24.8170167  98.5861941
  94.4823960  24.7260104  97.8178229  94.9311490  23.9970071  99.0664434
  92.5923526  26.3121358 101.4246161  93.3844818  25.9712183 101.0092461
  92.8320177  26.4216334 102.3448315 100.6258653  28.4841135  93.8976406
  99.9746633  29.0695215  93.5110420 101.4203016  29.0147329  93.9571443
  94.5514280  25.5730272  94.2963540  95.3245156  25.0259259  94.1576416
  94.9039679  26.4374521  94.5078002  96.3899323  26.9006654 107.5030440
  96.0989189  27.8052285 107.3877106  97.0256307  26.9423182 108.2174509
  97.3155530  24.2783503 104.0931799  97.9119102  24.0539525 103.3788762
  97.3730501  23.5368248 104.6957247  96.8880558  21.7322938  91.9281990
  97.1406079  21.2104459  91.1665453  95.9505117  21.5689083  92.0308674
 101.9323841  20.7358716  99.7356733 102.7186930  20.3178139  99.3847150
 102.1962545  21.6404808  99.9038382 102.1033918  26.1731567  94.4345390
 101.4679751  26.2466193  95.1466295 101.7731325  26.7625165  93.7564469
  96.6076847  23.6351044  94.1306365  96.4913105  22.9595947  94.7987449
  96.7179107  23.1483418  93.3138518  98.9508388  23.0961191  97.8353054
  98.5866595  22.5691812  98.5465976  99.8075504  22.7059660  97.6619540
  98.5913875  18.1251091  92.8314403  98.7588277  18.9931327  93.1984874
  98.4011044  18.2878372  91.9075692 101.3489208  26.5868069 104.4980233
 101.0489931  27.4893108 104.3896041 101.0040268  26.3200253 105.3501386
  94.8001689  23.0381866 100.5316938  93.8752186  22.9058080 100.7394629
  95.0486103  23.8176086 101.0286880  98.5703096  20.5808748  93.8161070
  98.4502721  21.0265799  94.6546550  97.8755684  20.9294066  93.2574608
  92.1610501  22.6815140 101.3660727  92.2902882  22.9349619 102.2800138
  91.4807952  23.2742848 101.0465382  96.3309988  33.3512390  97.4651201
  96.2534017  34.3020215  97.5439682  95.7271631  33.0058262  98.1226127
 104.2688162  21.0530221  94.6441404 105.1806018  21.2857608  94.4689101
 103.7597809  21.6367265  94.0816482  97.0773590  23.3325709 109.6830535
  97.8188274  23.8710753 109.4065358  96.3710575  23.9591997 109.8402087
  98.9060000  20.4127456 105.6536253  99.7521195  20.8366869 105.7970902
  98.8458637  19.7561080 106.3474816 102.8757744  26.0356040 102.0354985
 102.2466607  26.2001754 101.3331053 102.4883406  26.4497649 102.8065949
 106.7546976  26.9710478  99.3899349 106.0698014  27.3509379  98.8396382
 106.8390825  27.5805804 100.1231297  98.4285706  25.7730448  99.3005070
  98.8924052  26.0518151  98.5109693  98.1642504  24.8713892  99.1178161
  95.3209787  25.3201929 102.2384834  95.8911144  25.7489198 101.6002318
  95.9117899  25.0384514 102.9369019  97.3654592  21.8953600  96.1094635
  98.0678635  22.3474644  96.5768562  97.0335221  21.2537419  96.7374529
  91.1079926  20.1537153 101.4111769  90.3178980  20.4094681 100.9351880
  91.5991173  20.9685491 101.5163810 105.1243736  27.4942392 104.1617050
 105.9461179  27.0922579 103.8799732 105.1206138  27.3910626 105.1133166
  93.0594671  20.5181732  98.3695246  92.2625835  20.6300426  98.8878741
  92.8320264  20.8568384  97.5036136  98.8900339  27.0426435 106.3177760
  98.9544772  27.5046843 107.1535932  98.1811263  26.4123800 106.4460070
  89.3917629  20.4067643 103.8426760  89.6425667  21.2914653 104.1084336
  89.9277177  20.2272245 103.0701852  98.6048357  28.7094543  96.1856741
  98.4694032  29.5546079  96.6141589  99.1458169  28.9113820  95.4222674
  92.0577754  26.2269981  96.7584666  92.5702275  27.0213231  96.9090230
  92.7100467  25.5296271  96.6918267  93.8672639  29.3435737  98.8407419
  94.0439267  30.2653702  98.6528403  94.6629472  29.0294156  99.2701799
  93.1524995  21.3900369 108.7169582  93.0378510  20.4885626 109.0176681
  92.2969513  21.6364066 108.3654399 100.2316833  29.3318109 110.3157083
  99.7880687  28.5454488 109.9977987 100.8934047  29.5197260 109.6500974
  94.9903954  30.8613911 104.8417761  95.5411379  30.7330974 104.0694755
  94.1515430  31.1608800 104.4912654  98.7871125  27.1265039 109.1861992
  99.3199462  26.3653327 108.9561300  98.2585206  26.8338691 109.9286147
  90.0226671  24.5558635  97.5344236  90.8601893  24.9655644  97.3177944
  90.2004939  23.6158077  97.5044430 101.9191103  22.2233716  93.2228069
 101.4037726  22.9938320  93.4616457 101.6468411  21.5498852  93.8461131
  99.5038214  17.0683417  98.2813308  98.6479810  16.6790267  98.1018946
  99.9165166  17.1475377  97.4213093  97.2780247  14.6868490 101.6871049
  98.1433243  14.4911298 101.3276939  97.3457755  14.4578841 102.6140406
 106.8925377  24.9766070  95.1581243 106.1154820  24.6377230  94.7136405
 107.5716858  24.9818694  94.4836208 101.7077406  20.0960808  95.0487850
 101.4027542  20.4106957  95.8997994 102.6607848  20.1742228  95.0915183
 100.1523838  26.2551031  96.6980804  99.6245200  25.5203791  96.3854042
  99.6511341  27.0325708  96.4520773 105.1316684  24.4500052 101.8147851
 104.4740358  25.1399313 101.9027979 105.9357083  24.8396484 102.1581837
  94.8842566  16.9170697  99.0587416  95.4586318  16.6945879  98.3260609
  95.4713548  16.9859392  99.8116017 103.9422143  22.8044424  99.8651792
 104.4554025  23.4374416 100.3673502 104.5923367  22.2045620  99.4995152
  95.2112153  18.9475159  93.0783301  94.3749465  19.2849845  93.3992576
  95.0716922  18.8124138  92.1410438  97.1865233  13.7911946  97.7862485
  96.5329646  13.4760964  97.1619100  97.1445707  13.1687687  98.5122308
  98.2976438  24.0731241  89.7015777  97.3903500  23.8420495  89.9006926
  98.7947470  23.2768861  89.8889759 101.2044517  32.7828749  92.6212464
 100.5306216  33.0860445  93.2297421 101.5910339  33.5857829  92.2717921
 100.4202974  20.2793880 102.1110133  99.5025535  20.5008827 101.9531821
 100.8363117  20.3540190 101.2521840 101.2038021  21.6785296  97.2412813
 101.9509840  22.1906693  96.9319935 101.4729611  21.3569348  98.1017207
  99.4764672  24.1743836  94.2239768  98.5675891  23.8902869  94.3212237
  99.5059755  24.5942915  93.3643074 104.7083939  27.7850426  97.9930935
 104.2546266  26.9441336  98.0496126 104.0777906  28.4211824  98.3305715
 103.6516859  18.7142412  99.2231603 102.9139615  18.2019798  99.5541845
 103.9043632  18.2742793  98.4114879 103.1516878  29.6226923  98.9280753
 103.4439853  30.1831980  98.2093119 103.6615499  29.9155484  99.6833912
  90.0452842  21.8949350  98.2054970  89.8477242  21.3018711  97.4806036
  89.4899506  21.5901561  98.9230909  98.0249566  21.7872457 100.3249563
  98.0798175  20.8346293 100.2492039  97.2140768  21.9431896 100.8090861
  99.1740759  25.7152580  91.5627846  98.7360189  24.9988439  91.1033483
  99.9151200  25.9428695  91.0012938  95.9641926  20.4049517  98.0839942
  95.1509791  20.7043687  98.4905134  96.4600920  20.0105205  98.8014424
  98.1150503  30.4007274 100.0174206  98.0726682  30.6268120  99.0882738
  99.0313202  30.1670648 100.1660008 107.2913874  23.9909777  97.6204165
 107.1531773  24.1811373  96.6925354 106.9350093  24.7529160  98.0772216
  95.4556000  17.9767872 103.7001177  96.0955380  17.8356631 103.0024140
  94.6233531  17.6902386 103.3239779  96.2316304  27.2770303  99.8136169
  97.0256903  26.7820623  99.6118744  95.5207997  26.7488166  99.4503875
 101.0511149  29.6588398 104.1648537 101.1048171  30.2279334 104.9326253
 100.1825930  29.8290283 103.8002574  92.5399068  21.4213384  95.8895922
  91.6096656  21.3597840  96.1065884  92.6356540  20.8989337  95.0932563
  92.4584617  17.9468197  98.4774164  92.7191434  18.8613530  98.3683324
  93.2801789  17.4792640  98.6270776  93.9309542  19.3605954 105.6472988
  94.6032596  19.1523316 104.9985637  93.1039329  19.1628040 105.2078220
 100.0099248  23.8248660 105.7235469 100.9391308  23.9759820 105.5504436
  99.5890278  23.9132681 104.8684115  98.8087580  27.8499325 103.4934006
  98.6698666  27.4818109 104.3659944  98.0202176  28.3646964 103.3217964
  99.4035732  32.9508421  94.8359543  99.5787488  32.4796464  95.6505165
  98.7168520  33.5774187  95.0640804 100.3592795  27.2280927 100.8822844
 100.0242628  27.1881697 101.7780494  99.8596741  26.5625643 100.4093254
  94.3337039  22.6348557 106.4075425  94.1956837  21.9028796 107.0086964
  95.2441963  22.5457457 106.1259613 103.2951987  24.5736962  91.1559904
 102.6781158  23.8483790  91.0592956 102.8268476  25.3346322  90.8126978
  96.9619340  22.3468517 105.8959105  97.6718959  21.7061709 105.8545723
  96.9188648  22.5981412 106.8185286  95.6748274  19.3333735 107.7154744
  95.1385631  18.8824473 108.3676341  95.0864982  19.4679643 106.9725209
  93.9696818  36.0997784 101.6099403  94.2093416  36.7316308 102.2878422
  93.1266014  35.7485824 101.8964762  95.0850533  18.7922386  90.2781208
  94.2079999  18.6711187  89.9143455  95.5608286  18.0008464  90.0260097
  86.6052673  23.5799546 100.3722715  87.2923713  23.2661276  99.7843730
  86.4500802  24.4840910 100.0989967  91.4087395  18.4689742 104.8007739
  91.3245584  17.8615412 104.0658149  90.5870102  18.9598761 104.8017235
  98.4824679  31.9076906 104.0140907  98.4094851  32.7131878 104.5260212
  98.0402072  32.1068872 103.1888928  98.2714459  31.1448676  97.5243729
  97.4881981  31.6870356  97.6181953  98.9707204  31.6622656  97.9237970
 101.5811109  16.9543306 100.1677934 102.0779809  16.2013268  99.8479004
 100.8098091  16.9907622  99.6021143 100.9423363  31.8063740 106.1699066
 101.6551335  32.4411205 106.0974967 100.4513392  31.9027606 105.3539067
 102.6640890  25.7114993  97.7416357 101.7297169  25.8316455  97.5721062
 102.8417558  24.8087460  97.4776367  98.1646078  19.0960689  99.8949618
  97.7943865  18.5431729 100.5830524  98.6605170  18.4918822  99.3424619
 106.0513441  21.5532312  98.2766391 106.5173893  22.3860304  98.2026694
 106.5020942  21.0877294  98.9811650  95.9935276  29.5558184 106.9904636
  96.6944736  30.1894667 107.1434031  95.5230391  29.8972915 106.2300276
 104.1189672  27.8976134  95.2752543 104.3949516  27.7832728  96.1846418
 103.2494171  27.4993618  95.2364717 100.7543736  32.1462484  98.9185357
 100.9366131  31.3284140  99.3813109 101.5776722  32.3630177  98.4810247
 101.0885902  31.0730670  96.1800406 101.6173668  30.5623124  95.5670568
 101.3514121  30.7573200  97.0445939  91.5902994  29.0894539 103.9235739
  92.1756431  28.3438227 104.0563643  91.3927833  29.3998496 104.8072403
  94.4441650  32.1245786  98.9398181  93.7752025  32.6091914  98.4562222
  94.3054519  32.3715007  99.8541560  86.1820649  21.6600139 102.6440182
  86.2204749  21.1263730 103.4377300  85.6760942  21.1335345 102.0251159
  98.5846918  34.1589530 105.5380840  99.1365226  34.3221151 106.3029925
  98.9253112  34.7493968 104.8660865  93.5611412  16.5064680 106.1402725
  93.6252738  17.3679510 105.7280122  93.4978532  15.8938681 105.4075083
  89.8129227  20.3864241  95.7194114  90.1082668  19.4774920  95.6661167
  88.9117263  20.3651981  95.3975116 101.7215306  32.1071505 102.5244522
 101.5966445  31.3061245 102.0155468 102.3794397  32.6017699 102.0358492
  93.3423474  18.4620238 101.7021662  92.6210060  19.0756205 101.5629136
  94.1316730  18.9978003 101.6238308 103.7850214  29.9080525 104.1524072
 102.8380549  29.7885877 104.0802399 104.1332987  29.0203023 104.2350334
  91.5417068  18.0678339  95.8433439  91.2129775  17.1875718  95.6608545
  91.8956439  18.0126008  96.7309828 100.7896647  29.7033242 100.3528424
 100.6421610  28.7749949 100.5335994 101.6150141  29.7253332  99.8685500
  94.6558892  18.3551309  96.2108916  94.9954964  18.8837230  95.4887525
  95.1031012  18.6931715  96.9867483 104.3930769  30.5261800 101.4393297
 105.3177317  30.3204662 101.3017748 104.2246072  30.2778201 102.3482639
  96.6427039  16.8525930  94.4102209  97.3635401  17.2307183  93.9065926
  96.0192343  17.5714807  94.5137187 100.7858162  17.5571079  95.3460542
 101.0021776  18.4395717  95.0449370 100.3052229  17.1657293  94.6166184
  95.5257383  20.5156792 101.9231286  95.3801964  20.8297096 102.8155568
  95.0482587  21.1341693 101.3702185  97.3853766  17.5059340 101.9712176
  97.3715335  16.6100434 101.6344474  98.1026194  17.5130004 102.6050462
  99.2379897  17.9396681 104.0165303  98.9797674  18.8613751 104.0149634
  98.7064937  17.5427115 104.7065767 104.1826085  31.0447468  96.7955389
 104.3562963  30.4793890  96.0429241 104.6754977  31.8448363  96.6134879
  90.0003045  23.0562137 104.8618947  89.4556513  23.8321945 104.9939222
  90.8782395  23.4032941 104.7038069  96.7890662  16.3873721  97.2399746
  96.9106573  15.4590367  97.4390633  96.4992704  16.4012407  96.3278061
  99.6581852  14.0728631 100.3766466  99.6803549  14.1367964  99.4218445
 100.0749911  13.2333140 100.5706972 110.0365476  23.8083891  98.4145688
 110.4796623  23.0591216  98.0164812 109.1591987  23.7994027  98.0319420
 105.1701258  30.3614232  93.8952287 105.8652162  30.9820925  94.1139601
 105.5124408  29.5109583  94.1704665  90.7869067  22.1832033 107.7549104
  90.0450803  22.3314668 108.3413735  90.4661811  22.4440299 106.8915854
 107.0692681  27.8113938  95.4239618 107.5944005  28.1501210  94.6988938
 106.9815033  26.8760953  95.2402752  98.7312730  31.7248011 107.5529494
  99.0399856  31.4797158 108.4252194  99.5288212  31.9294650 107.0648364
  98.7533342  33.8785921  99.7834871  98.3138332  33.3862300 100.4767727
  99.5041459  33.3358889  99.5426946  91.2325681  30.0697462  99.7859499
  92.0583701  29.7701234  99.4058142  90.8819733  29.3005084 100.2349288
  96.2007214  29.4223930 101.8557172  95.5787223  28.7594635 101.5559400
  96.8712081  29.4485062 101.1730820  89.4334286  27.9883788 100.7448432
  88.5966194  27.5605963 100.5632434  89.4057931  28.1816232 101.6819224
  95.7620721  27.9727853  95.3315633  95.9108841  28.6563318  94.6782306
  96.5687164  27.9532943  95.8465089  93.5173354  23.9993031  96.3376702
  93.2719396  23.0955361  96.5356912  93.6869268  24.0010181  95.3956180
  92.7869001  19.7321389  93.8362863  92.0938246  19.8065744  93.1802899
  92.5420753  18.9681732  94.3584380  99.2616126  30.4675984  92.8027380
  98.6890093  31.0866171  92.3497852  99.8348920  31.0175346  93.3367302
 102.4813386  30.7513134  93.9335963 103.4144059  30.6858696  94.1368838
 102.3936599  31.5869401  93.4750495 105.1101403  30.0679004  90.8939910
 105.0315034  29.7338868  91.7875668 105.9311070  30.5600772  90.8931383
  99.6462925  21.8036797  90.1443433 100.5922029  21.6743005  90.2131851
  99.2677170  21.0651458  90.6212861  97.8305842  19.7286773  90.0798318
  96.9237297  19.4319886  90.1561032  98.1081823  19.4316591  89.2132604
  88.7483782  21.0493136 100.5297365  88.4286567  20.1958445 100.2371739
  88.2017210  21.2641715 101.2855332  92.5263690  23.7655577 104.2466871
  92.7449700  24.6972685 104.2654905  92.9389464  23.4063552 105.0321675
  99.4467908  14.2723663  96.2342559  98.6368636  13.9270748  96.6097806
 100.1352325  13.9631206  96.8230171 101.3758456  13.3501710  97.8566856
 101.9289495  13.7697163  98.5156879 101.6128542  12.4237458  97.8989812
  96.6004627  16.5873708  90.2210297  97.4623791  16.9128607  90.4806115
  96.7854971  15.8005204  89.7083363  88.6172042  24.6696048 102.4990486
  87.9235514  24.2550001 101.9860441  89.3645033  24.7116584 101.9023905
 104.7537263  15.4602235  97.3645520 104.1735932  16.1187039  96.9823573
 104.4873196  14.6379579  96.9532938  90.5308785  24.6014302 100.3756501
  90.5079473  24.7001989  99.4238384  90.8409421  25.4479452 100.6973667
  93.1896163  26.6590457 104.4903115  94.1439416  26.6274399 104.4233047
  92.9908686  26.1981080 105.3053341  93.7795545  25.2291573 107.0573913
  94.5988434  25.7235651 107.0808750  94.0532353  24.3123541 107.0291481
 103.5362141  17.6202325  96.4201869 102.6487996  17.9051976  96.2022063
 103.9516130  17.4596088  95.5729146  91.5446391  32.2010076 101.5073313
  91.4100859  31.4410477 100.9411311  91.1278454  32.9250976 101.0402102
 102.6805354  27.3847000  90.5149889 103.3841205  27.5897002  91.1307544
 101.9568003  27.9523762  90.7798972 103.5103165  23.1356861  96.6352159
 103.4538366  23.5925412  95.7959791 104.0631507  22.3747546  96.4575002
 107.3207971  18.9246593  97.4602278 107.0644905  18.5243229  98.2910486
 106.6960839  19.6390387  97.3352417  94.7015517  33.0979393 101.7191756
  94.5847902  34.0424826 101.6170446  93.8807964  32.7952955 102.1077555
 104.5892052  27.8229529  92.5648349 105.4237656  27.3910727  92.3825823
 104.4276395  27.6511543  93.4925243 104.2437944  24.3261642  93.9304688
 104.1886748  24.1605914  92.9893132 103.6183999  25.0337675  94.0866878
  89.0330459  19.5629707 107.7566110  89.6789323  19.0528661 108.2453335
  88.8247610  20.2998388 108.3309535  97.5534070  13.8269751  93.5090006
  97.5412739  14.7711591  93.6658277  98.4457491  13.6439897  93.2149468
  95.7270031  33.7507655 104.9347684  96.6297278  33.7831265 105.2514179
  95.5007402  32.8208106 104.9494020  97.4823634  32.5038642 101.5957763
  96.5319265  32.5040503 101.4822135  97.7856120  31.7571376 101.0793798
 113.2176327  38.3399180 102.6603525 113.8554737  38.2205927 101.9566865
 113.0997170  39.2880024 102.7191478 110.0266033  38.2926608 102.5965050
 109.6884545  38.1767673 101.7085585 110.8955801  37.8917773 102.5766056
 105.8852849  40.1462085  98.5861941 105.3217714  40.0552021  97.8178229
 105.7705244  39.3261989  99.0664434 103.4317281  41.6413276 101.4246161
 104.2238573  41.3004101 101.0092461 103.6713931  41.7508251 102.3448315
 111.4652408  43.8133052  93.8976406 110.8140387  44.3987133  93.5110420
 112.2596770  44.3439247  93.9571443 105.3908035  40.9022189  94.2963540
 106.1638911  40.3551176  94.1576416 105.7433434  41.7666439  94.5078002
 107.2293077  42.2298572 107.5030440 106.9382943  43.1344203 107.3877106
 107.8650062  42.2715099 108.2174509 108.1549284  39.6075420 104.0931799
 108.7512857  39.3831443 103.3788762 108.2124256  38.8660166 104.6957247
 107.7274313  37.0614856  91.9281990 107.9799833  36.5396377  91.1665453
 106.7898872  36.8981001  92.0308674 112.7717595  36.0650634  99.7356733
 113.5580685  35.6470057  99.3847150 113.0356300  36.9696726  99.9038382
 112.9427673  41.5023484  94.4345390 112.3073506  41.5758111  95.1466295
 112.6125079  42.0917083  93.7564469 107.4470601  38.9642961  94.1306365
 107.3306860  38.2887865  94.7987449 107.5572861  38.4775335  93.3138518
 109.7902142  38.4253109  97.8353054 109.4260350  37.8983730  98.5465976
 110.6469258  38.0351578  97.6619540 109.4307629  33.4543008  92.8314403
 109.5982032  34.3223245  93.1984874 109.2404798  33.6170290  91.9075692
 112.1882962  41.9159987 104.4980233 111.8883686  42.8185026 104.3896041
 111.8434022  41.6492170 105.3501386 105.6395444  38.3673784 100.5316938
 104.7145940  38.2349998 100.7394629 105.8879857  39.1468003 101.0286880
 109.4096850  35.9100666  93.8161070 109.2896475  36.3557717  94.6546550
 108.7149439  36.2585983  93.2574608 103.0004255  38.0107058 101.3660727
 103.1296636  38.2641536 102.2800138 102.3201706  38.6034766 101.0465382
 107.1703742  48.6804308  97.4651201 107.0927772  49.6312133  97.5439682
 106.5665386  48.3350180  98.1226127 115.1081916  36.3822139  94.6441404
 116.0199772  36.6149526  94.4689101 114.5991563  36.9659183  94.0816482
 107.9167344  38.6617626 109.6830535 108.6582029  39.2002670 109.4065358
 107.2104330  39.2883915 109.8402087 109.7453754  35.7419374 105.6536253
 110.5914949  36.1658787 105.7970902 109.6852392  35.0852998 106.3474816
 113.7151499  41.3647957 102.0354985 113.0860361  41.5293672 101.3331053
 113.3277161  41.7789567 102.8065949 117.5940731  42.3002395  99.3899349
 116.9091769  42.6801297  98.8396382 117.6784580  42.9097722 100.1231297
 109.2679461  41.1022365  99.3005070 109.7317806  41.3810068  98.5109693
 109.0036259  40.2005810  99.1178161 106.1603542  40.6493847 102.2384834
 106.7304899  41.0781115 101.6002318 106.7511653  40.3676432 102.9369019
 108.2048347  37.2245518  96.1094635 108.9072390  37.6766562  96.5768562
 107.8728975  36.5829337  96.7374529 101.9473681  35.4829071 101.4111769
 101.1572735  35.7386599 100.9351880 102.4384928  36.2977408 101.5163810
 115.9637490  42.8234310 104.1617050 116.7854934  42.4214497 103.8799732
 115.9599893  42.7202544 105.1133166 103.8988426  35.8473650  98.3695246
 103.1019589  35.9592344  98.8878741 103.6714018  36.1860302  97.5036136
 109.7294094  42.3718353 106.3177760 109.7938526  42.8338760 107.1535932
 109.0205017  41.7415718 106.4460070 100.2311384  35.7359561 103.8426760
 100.4819422  36.6206571 104.1084336 100.7670932  35.5564162 103.0701852
 109.4442111  44.0386460  96.1856741 109.3087786  44.8837996  96.6141589
 109.9851924  44.2405738  95.4222674 102.8971509  41.5561899  96.7584666
 103.4096029  42.3505149  96.9090230 103.5494221  40.8588189  96.6918267
 104.7066393  44.6727655  98.8407419 104.8833022  45.5945619  98.6528403
 105.5023227  44.3586074  99.2701799 103.9918750  36.7192287 108.7169582
 103.8772265  35.8177544 109.0176681 103.1363268  36.9655983 108.3654399
 111.0710588  44.6610027 110.3157083 110.6274442  43.8746406 109.9977987
 111.7327801  44.8489177 109.6500974 105.8297709  46.1905829 104.8417761
 106.3805134  46.0622892 104.0694755 104.9909185  46.4900718 104.4912654
 109.6264880  42.4556956 109.1861992 110.1593217  41.6945245 108.9561300
 109.0978961  42.1630608 109.9286147 100.8620425  39.8850553  97.5344236
 101.6995647  40.2947561  97.3177944 101.0398693  38.9449995  97.5044430
 112.7584857  37.5525633  93.2228069 112.2431481  38.3230238  93.4616457
 112.4862166  36.8790770  93.8461131 110.3431969  32.3975334  98.2813308
 109.4873565  32.0082185  98.1018946 110.7558920  32.4767295  97.4213093
 108.1174001  30.0160407 101.6871049 108.9826998  29.8203216 101.3276939
 108.1851510  29.7870759 102.6140406 117.7319132  40.3057988  95.1581243
 116.9548574  39.9669148  94.7136405 118.4110613  40.3110611  94.4836208
 112.5471161  35.4252726  95.0487850 112.2421296  35.7398875  95.8997994
 113.5001603  35.5034145  95.0915183 110.9917593  41.5842949  96.6980804
 110.4638954  40.8495708  96.3854042 110.4905095  42.3617625  96.4520773
 115.9710439  39.7791969 101.8147851 115.3134113  40.4691231 101.9027979
 116.7750838  40.1688401 102.1581837 105.7236320  32.2462615  99.0587416
 106.2980072  32.0237797  98.3260609 106.3107303  32.3151310  99.8116017
 114.7815897  38.1336342  99.8651792 115.2947779  38.7666334 100.3673502
 115.4317121  37.5337538  99.4995152 106.0505907  34.2767076  93.0783301
 105.2143219  34.6141763  93.3992576 105.9110677  34.1416056  92.1410438
 108.0258988  29.1203864  97.7862485 107.3723400  28.8052881  97.1619100
 107.9839462  28.4979605  98.5122308 109.1370193  39.4023159  89.7015777
 108.2297254  39.1712413  89.9006926 109.6341225  38.6060778  89.8889759
 112.0438272  48.1120666  92.6212464 111.3699970  48.4152363  93.2297421
 112.4304094  48.9149747  92.2717921 111.2596728  35.6085798 102.1110133
 110.3419290  35.8300745 101.9531821 111.6756872  35.6832108 101.2521840
 112.0431776  37.0077213  97.2412813 112.7903595  37.5198610  96.9319935
 112.3123366  36.6861266  98.1017207 110.3158426  39.5035754  94.2239768
 109.4069645  39.2194787  94.3212237 110.3453510  39.9234833  93.3643074
 115.5477694  43.1142344  97.9930935 115.0940021  42.2733253  98.0496126
 114.9171660  43.7503742  98.3305715 114.4910613  34.0434330  99.2231603
 113.7533370  33.5311716  99.5541845 114.7437387  33.6034711  98.4114879
 113.9910633  44.9518840  98.9280753 114.2833607  45.5123897  98.2093119
 114.5009253  45.2447401  99.6833912 100.8846597  37.2241268  98.2054970
 100.6870996  36.6310629  97.4806036 100.3293261  36.9193478  98.9230909
 108.8643320  37.1164375 100.3249563 108.9191930  36.1638211 100.2492039
 108.0534522  37.2723814 100.8090861 110.0134514  41.0444498  91.5627846
 109.5753944  40.3280357  91.1033483 110.7544955  41.2720612  91.0012938
 106.8035680  35.7341434  98.0839942 105.9903546  36.0335605  98.4905134
 107.2994674  35.3397123  98.8014424 108.9544258  45.7299191 100.0174206
 108.9120437  45.9560038  99.0882738 109.8706957  45.4962566 100.1660008
 118.1307629  39.3201695  97.6204165 117.9925527  39.5103291  96.6925354
 117.7743848  40.0821078  98.0772216 106.2949755  33.3059790 103.7001177
 106.9349134  33.1648549 103.0024140 105.4627285  33.0194303 103.3239779
 107.0710059  42.6062220  99.8136169 107.8650657  42.1112540  99.6118744
 106.3601751  42.0780083  99.4503875 111.8904903  44.9880316 104.1648537
 111.9441926  45.5571252 104.9326253 111.0219685  45.1582201 103.8002574
 103.3792822  36.7505302  95.8895922 102.4490410  36.6889758  96.1065884
 103.4750294  36.2281255  95.0932563 103.2978371  33.2760115  98.4774164
 103.5585189  34.1905448  98.3683324 104.1195544  32.8084557  98.6270776
 104.7703297  34.6897872 105.6472988 105.4426350  34.4815234 104.9985637
 103.9433083  34.4919958 105.2078220 110.8493003  39.1540578 105.7235469
 111.7785063  39.3051737 105.5504436 110.4284033  39.2424599 104.8684115
 109.6481335  43.1791242 103.4934006 109.5092420  42.8110027 104.3659944
 108.8595931  43.6938882 103.3217964 110.2429487  48.2800339  94.8359543
 110.4181242  47.8088382  95.6505165 109.5562275  48.9066105  95.0640804
 111.1986550  42.5572845 100.8822844 110.8636383  42.5173615 101.7780494
 110.6990496  41.8917561 100.4093254 105.1730794  37.9640475 106.4075425
 105.0350592  37.2320714 107.0086964 106.0835717  37.8749375 106.1259613
 114.1345742  39.9028879  91.1559904 113.5174912  39.1775707  91.0592956
 113.6662230  40.6638240  90.8126978 107.8013095  37.6760434 105.8959105
 108.5112713  37.0353627 105.8545723 107.7582403  37.9273329 106.8185286
 106.5142029  34.6625652 107.7154744 105.9779386  34.2116391 108.3676341
 105.9258737  34.7971561 106.9725209 104.8090572  51.4289702 101.6099403
 105.0487170  52.0608226 102.2878422 103.9659768  51.0777742 101.8964762
 105.9244287  34.1214304  90.2781208 105.0473754  34.0003104  89.9143455
 106.4002041  33.3300382  90.0260097  97.4446428  38.9091463 100.3722715
  98.1317467  38.5953193  99.7843730  97.2894556  39.8132828 100.0989967
 102.2481150  33.7981660 104.8007739 102.1639338  33.1907329 104.0658149
 101.4263856  34.2890678 104.8017235 109.3218434  47.2368824 104.0140907
 109.2488605  48.0423795 104.5260212 108.8795827  47.4360790 103.1888928
 109.1108213  46.4740594  97.5243729 108.3275735  47.0162274  97.6181953
 109.8100959  46.9914574  97.9237970 112.4204864  32.2835223 100.1677934
 112.9173563  31.5305186  99.8479004 111.6491845  32.3199540  99.6021143
 111.7817117  47.1355658 106.1699066 112.4945090  47.7703123 106.0974967
 111.2907146  47.2319524 105.3539067 113.5034644  41.0406911  97.7416357
 112.5690923  41.1608373  97.5721062 113.6811313  40.1379377  97.4776367
 109.0039832  34.4252606  99.8949618 108.6337620  33.8723647 100.5830524
 109.4998925  33.8210740  99.3424619 116.8907196  36.8824230  98.2766391
 117.3567648  37.7152222  98.2026694 117.3414696  36.4169212  98.9811650
 106.8329031  44.8850101 106.9904636 107.5338490  45.5186584 107.1434031
 106.3624146  45.2264833 106.2300276 114.9583427  43.2268051  95.2752543
 115.2343271  43.1124646  96.1846418 114.0887925  42.8285536  95.2364717
 111.5937491  47.4754402  98.9185357 111.7759885  46.6576058  99.3813109
 112.4170477  47.6922094  98.4810247 111.9279656  46.4022587  96.1800406
 112.4567423  45.8915042  95.5670568 112.1907876  46.0865117  97.0445939
 102.4296749  44.4186456 103.9235739 103.0150186  43.6730144 104.0563643
 102.2321587  44.7290413 104.8072403 105.2835404  47.4537704  98.9398181
 104.6145779  47.9383832  98.4562222 105.1448274  47.7006924  99.8541560
  97.0214404  36.9892057 102.6440182  97.0598503  36.4555647 103.4377300
  96.5154697  36.4627262 102.0251159 109.4240673  49.4881447 105.5380840
 109.9758981  49.6513069 106.3029925 109.7646866  50.0785885 104.8660865
 104.4005166  31.8356597 106.1402725 104.4646493  32.6971428 105.7280122
 104.3372286  31.2230599 105.4075083 100.6522981  35.7156159  95.7194114
 100.9476422  34.8066837  95.6661167  99.7511017  35.6943898  95.3975116
 112.5609060  47.4363423 102.5244522 112.4360200  46.6353163 102.0155468
 113.2188151  47.9309616 102.0358492 104.1817228  33.7912155 101.7021662
 103.4603814  34.4048123 101.5629136 104.9710484  34.3269920 101.6238308
 114.6243968  45.2372443 104.1524072 113.6774304  45.1177794 104.0802399
 114.9726742  44.3494941 104.2350334 102.3810823  33.3970257  95.8433439
 102.0523529  32.5167635  95.6608545 102.7350194  33.3417925  96.7309828
 111.6290402  45.0325159 100.3528424 111.4815364  44.1041867 100.5335994
 112.4543895  45.0545250  99.8685500 105.4952646  33.6843226  96.2108916
 105.8348719  34.2129148  95.4887525 105.9424767  34.0223632  96.9867483
 115.2324524  45.8553718 101.4393297 116.1571071  45.6496579 101.3017748
 115.0639827  45.6070119 102.3482639 107.4820793  32.1817848  94.4102209
 108.2029156  32.5599101  93.9065926 106.8586097  32.9006725  94.5137187
 111.6251916  32.8862997  95.3460542 111.8415530  33.7687635  95.0449370
 111.1445983  32.4949210  94.6166184 106.3651137  35.8448710 101.9231286
 106.2195718  36.1589013 102.8155568 105.8876341  36.4633610 101.3702185
 108.2247520  32.8351258 101.9712176 108.2109089  31.9392351 101.6344474
 108.9419948  32.8421922 102.6050462 110.0773651  33.2688598 104.0165303
 109.8191429  34.1905669 104.0149634 109.5458691  32.8719033 104.7065767
 115.0219840  46.3739385  96.7955389 115.1956717  45.8085808  96.0429241
 115.5148731  47.1740280  96.6134879 100.8396800  38.3854054 104.8618947
 100.2950268  39.1613862 104.9939222 101.7176149  38.7324859 104.7038069
 107.6284416  31.7165638  97.2399746 107.7500327  30.7882285  97.4390633
 107.3386459  31.7304324  96.3278061 110.4975607  29.4020549 100.3766466
 110.5197303  29.4659882  99.4218445 110.9143666  28.5625057 100.5706972
 120.8759231  39.1375808  98.4145688 121.3190377  38.3883134  98.0164812
 119.9985741  39.1285945  98.0319420 116.0095012  45.6906150  93.8952287
 116.7045917  46.3112843  94.1139601 116.3518162  44.8401501  94.1704665
 101.6262821  37.5123951 107.7549104 100.8844558  37.6606586 108.3413735
 101.3055566  37.7732216 106.8915854 117.9086435  43.1405855  95.4239618
 118.4337760  43.4793128  94.6988938 117.8208788  42.2052871  95.2402752
 109.5706484  47.0539929 107.5529494 109.8793611  46.8089076 108.4252194
 110.3681966  47.2586567 107.0648364 109.5927096  49.2077839  99.7834871
 109.1532086  48.7154217 100.4767727 110.3435213  48.6650806  99.5426946
 102.0719435  45.3989379  99.7859499 102.8977455  45.0993151  99.4058142
 101.7213487  44.6297002 100.2349288 107.0400968  44.7515848 101.8557172
 106.4180978  44.0886553 101.5559400 107.7105835  44.7776980 101.1730820
 100.2728040  43.3175706 100.7448432  99.4359949  42.8897880 100.5632434
 100.2451686  43.5108149 101.6819224 106.6014475  43.3019771  95.3315633
 106.7502596  43.9855235  94.6782306 107.4080919  43.2824861  95.8465089
 104.3567108  39.3284949  96.3376702 104.1113150  38.4247279  96.5356912
 104.5263023  39.3302099  95.3956180 103.6262756  35.0613306  93.8362863
 102.9332001  35.1357661  93.1802899 103.3814508  34.2973650  94.3584380
 110.1009881  45.7967901  92.8027380 109.5283848  46.4158089  92.3497852
 110.6742674  46.3467263  93.3367302 113.3207141  46.0805052  93.9335963
 114.2537814  46.0150613  94.1368838 113.2330353  46.9161318  93.4750495
 115.9495157  45.3970922  90.8939910 115.8708789  45.0630786  91.7875668
 116.7704824  45.8892690  90.8931383 110.4856679  37.1328714  90.1443433
 111.4315784  37.0034922  90.2131851 110.1070924  36.3943376  90.6212861
 108.6699596  35.0578691  90.0798318 107.7631052  34.7611803  90.1561032
 108.9475577  34.7608509  89.2132604  99.5877537  36.3785054 100.5297365
  99.2680321  35.5250362 100.2371739  99.0410965  36.5933632 101.2855332
 103.3657444  39.0947495 104.2466871 103.5843454  40.0264603 104.2654905
 103.7783218  38.7355469 105.0321675 110.2861662  29.6015580  96.2342559
 109.4762390  29.2562665  96.6097806 110.9746079  29.2923124  96.8230171
 112.2152210  28.6793627  97.8566856 112.7683249  29.0989081  98.5156879
 112.4522297  27.7529375  97.8989812 107.4398381  31.9165626  90.2210297
 108.3017545  32.2420524  90.4806115 107.6248725  31.1297122  89.7083363
  99.4565797  39.9987966 102.4990486  98.7629268  39.5841918 101.9860441
 100.2038788  40.0408502 101.9023905 115.5931017  30.7894152  97.3645520
 115.0129687  31.4478956  96.9823573 115.3266950  29.9671497  96.9532938
 101.3702539  39.9306219 100.3756501 101.3473227  40.0293907  99.4238384
 101.6803176  40.7771370 100.6973667 104.0289917  41.9882374 104.4903115
 104.9833171  41.9566317 104.4233047 103.8302441  41.5272998 105.3053341
 104.6189299  40.5583490 107.0573913 105.4382188  41.0527569 107.0808750
 104.8926107  39.6415459 107.0291481 114.3755896  32.9494243  96.4201869
 113.4881751  33.2343893  96.2022063 114.7909885  32.7888006  95.5729146
 102.3840146  47.5301994 101.5073313 102.2494614  46.7702395 100.9411311
 101.9672208  48.2542894 101.0402102 113.5199109  42.7138917  90.5149889
 114.2234959  42.9188920  91.1307544 112.7961758  43.2815679  90.7798972
 114.3496919  38.4648779  96.6352159 114.2932121  38.9217330  95.7959791
 114.9025262  37.7039463  96.4575002 118.1601725  34.2538511  97.4602278
 117.9038659  33.8535146  98.2910486 117.5354593  34.9682304  97.3352417
 105.5409272  48.4271311 101.7191756 105.4241656  49.3716743 101.6170446
 104.7201718  48.1244872 102.1077555 115.4285806  43.1521447  92.5648349
 116.2631410  42.7202645  92.3825823 115.2670149  42.9803460  93.4925243
 115.0831699  39.6553560  93.9304688 115.0280502  39.4897831  92.9893132
 114.4577754  40.3629593  94.0866878  99.8724214  34.8921624 107.7566110
 100.5183077  34.3820578 108.2453335  99.6641365  35.6290306 108.3309535
 108.3927824  29.1561669  93.5090006 108.3806494  30.1003509  93.6658277
 109.2851246  28.9731814  93.2149468 106.5663786  49.0799573 104.9347684
 107.4691033  49.1123183 105.2514179 106.3401156  48.1500024 104.9494020
 108.3217388  47.8330559 101.5957763 107.3713019  47.8332421 101.4822135
 108.6249874  47.0863294 101.0793798 112.2079943  25.7504446  97.7635943
 111.4412339  25.1962932  97.9092625 112.6190648  25.8226314  98.6250095
 120.8659788  53.6218526 102.5965050 120.5278299  53.5059590 101.7085585
 121.7349556  53.2209691 102.5766056 116.7246603  55.4754002  98.5861941
 116.1611469  55.3843939  97.8178229 116.6098999  54.6553907  99.0664434
 114.2711035  56.9705194 101.4246161 115.0632327  56.6296018 101.0092461
 114.5107686  57.0800169 102.3448315 116.2301789  56.2314107  94.2963540
 117.0032665  55.6843094  94.1576416 116.5827188  57.0958356  94.5078002
 118.0686832  57.5590489 107.5030440 117.7776698  58.4636120 107.3877106
 118.7043816  57.6007017 108.2174509 118.9943039  54.9367338 104.0931799
 119.5906611  54.7123360 103.3788762 119.0518010  54.1952083 104.6957247
 118.5668067  52.3906773  91.9281990 118.8193588  51.8688294  91.1665453
 117.6292626  52.2272919  92.0308674 118.2864356  54.2934879  94.1306365
 118.1700614  53.6179783  94.7987449 118.3966616  53.8067253  93.3138518
 120.6295897  53.7545026  97.8353054 120.2654104  53.2275647  98.5465976
 121.4863013  53.3643495  97.6619540 120.2701384  48.7834926  92.8314403
 120.4375786  49.6515162  93.1984874 120.0798553  48.9462208  91.9075692
 116.4789198  53.6965702 100.5316938 115.5539695  53.5641916 100.7394629
 116.7273612  54.4759921 101.0286880 120.2490605  51.2392583  93.8161070
 120.1290230  51.6849634  94.6546550 119.5543193  51.5877901  93.2574608
 113.8398010  53.3398975 101.3660727 113.9690391  53.5933454 102.2800138
 113.1595461  53.9326683 101.0465382 118.0097497  64.0096225  97.4651201
 117.9321526  64.9604050  97.5439682 117.4059140  63.6642098  98.1226127
 118.7561099  53.9909544 109.6830535 119.4975783  54.5294588 109.4065358
 118.0498084  54.6175833 109.8402087 120.5847509  51.0711291 105.6536253
 121.4308704  51.4950705 105.7970902 120.5246146  50.4144916 106.3474816
 120.1073215  56.4314283  99.3005070 120.5711561  56.7101986  98.5109693
 119.8430013  55.5297728  99.1178161 116.9997296  55.9785765 102.2384834
 117.5698653  56.4073033 101.6002318 117.5905408  55.6968349 102.9369019
 119.0442101  52.5537436  96.1094635 119.7466144  53.0058479  96.5768562
 118.7122730  51.9121254  96.7374529 112.7867435  50.8120988 101.4111769
 111.9966489  51.0678517 100.9351880 113.2778682  51.6269326 101.5163810
 114.7382180  51.1765567  98.3695246 113.9413344  51.2884262  98.8878741
 114.5107773  51.5152220  97.5036136 120.5687848  57.7010271 106.3177760
 120.6332281  58.1630678 107.1535932 119.8598772  57.0707636 106.4460070
 111.0705138  51.0651479 103.8426760 111.3213176  51.9498489 104.1084336
 111.6064686  50.8856080 103.0701852 120.2835866  59.3678378  96.1856741
 120.1481540  60.2129914  96.6141589 120.8245678  59.5697656  95.4222674
 113.7365263  56.8853816  96.7584666 114.2489784  57.6797066  96.9090230
 114.3887976  56.1880107  96.6918267 115.5460148  60.0019572  98.8407419
 115.7226776  60.9237537  98.6528403 116.3416981  59.6877992  99.2701799
 114.8312504  52.0484204 108.7169582 114.7166019  51.1469462 109.0176681
 113.9757022  52.2947901 108.3654399 116.6691463  61.5197746 104.8417761
 117.2198888  61.3914810 104.0694755 115.8302939  61.8192635 104.4912654
 120.4658634  57.7848874 109.1861992 120.9986971  57.0237162 108.9561300
 119.9372715  57.4922526 109.9286147 111.7014180  55.2142470  97.5344236
 112.5389402  55.6239479  97.3177944 111.8792448  54.2741913  97.5044430
 121.1825723  47.7267252  98.2813308 120.3267319  47.3374102  98.1018946
 121.5952675  47.8059213  97.4213093 118.9567756  45.3452325 101.6871049
 119.8220752  45.1495134 101.3276939 119.0245264  45.1162677 102.6140406
 121.8311347  56.9134867  96.6980804 121.3032709  56.1787626  96.3854042
 121.3298850  57.6909543  96.4520773 116.5630075  47.5754533  99.0587416
 117.1373827  47.3529714  98.3260609 117.1501057  47.6443227  99.8116017
 116.8899662  49.6058994  93.0783301 116.0536974  49.9433680  93.3992576
 116.7504431  49.4707974  92.1410438 118.8652742  44.4495782  97.7862485
 118.2117155  44.1344799  97.1619100 118.8233216  43.8271522  98.5122308
 119.9763947  54.7315077  89.7015777 119.0691009  54.5004330  89.9006926
 120.4734979  53.9352696  89.8889759 121.1552181  54.8327672  94.2239768
 120.2463400  54.5486704  94.3212237 121.1847264  55.2526750  93.3643074
 111.7240351  52.5533186  98.2054970 111.5264751  51.9602547  97.4806036
 111.1687015  52.2485396  98.9230909 119.7037075  52.4456292 100.3249563
 119.7585684  51.4930129 100.2492039 118.8928277  52.6015731 100.8090861
 120.8528268  56.3736415  91.5627846 120.4147698  55.6572274  91.1033483
 121.5938709  56.6012530  91.0012938 117.6429435  51.0633352  98.0839942
 116.8297300  51.3627523  98.4905134 118.1388429  50.6689041  98.8014424
 119.7938012  61.0591109 100.0174206 119.7514191  61.2851955  99.0882738
 120.7100711  60.8254484 100.1660008 117.1343509  48.6351708 103.7001177
 117.7742889  48.4940467 103.0024140 116.3021040  48.3486221 103.3239779
 117.9103813  57.9354138  99.8136169 118.7044412  57.4404458  99.6118744
 117.1995506  57.4072001  99.4503875 114.2186577  52.0797220  95.8895922
 113.2884165  52.0181675  96.1065884 114.3144049  51.5573172  95.0932563
 114.1372126  48.6052033  98.4774164 114.3978943  49.5197366  98.3683324
 114.9589298  48.1376475  98.6270776 115.6097051  50.0189790 105.6472988
 116.2820105  49.8107152 104.9985637 114.7826838  49.8211876 105.2078220
 120.4875089  58.5083160 103.4934006 120.3486175  58.1401944 104.3659944
 119.6989685  59.0230799 103.3217964 121.0823241  63.6092256  94.8359543
 121.2574997  63.1380300  95.6505165 120.3956029  64.2358023  95.0640804
 122.0380304  57.8864763 100.8822844 121.7030137  57.8465533 101.7780494
 121.5384250  57.2209479 100.4093254 116.0124548  53.2932393 106.4075425
 115.8744346  52.5612632 107.0086964 116.9229472  53.2041293 106.1259613
 118.6406849  53.0052352 105.8959105 119.3506468  52.3645544 105.8545723
 118.5976157  53.2565247 106.8185286 117.3535783  49.9917570 107.7154744
 116.8173140  49.5408308 108.3676341 116.7652491  50.1263479 106.9725209
 115.6484326  66.7581619 101.6099403 115.8880925  67.3900143 102.2878422
 114.8053523  66.4069659 101.8964762 116.7638042  49.4506221  90.2781208
 115.8867508  49.3295022  89.9143455 117.2395795  48.6592300  90.0260097
 108.2840182  54.2383381 100.3722715 108.9711222  53.9245111  99.7843730
 108.1288311  55.1424746 100.0989967 113.0874904  49.1273578 104.8007739
 113.0033093  48.5199247 104.0658149 112.2657611  49.6182596 104.8017235
 120.1612188  62.5660742 104.0140907 120.0882360  63.3715713 104.5260212
 119.7189581  62.7652707 103.1888928 119.9501968  61.8032512  97.5243729
 119.1669490  62.3454192  97.6181953 120.6494713  62.3206491  97.9237970
 119.8433587  49.7544524  99.8949618 119.4731374  49.2015564 100.5830524
 120.3392679  49.1502658  99.3424619 117.6722785  60.2142019 106.9904636
 118.3732245  60.8478502 107.1434031 117.2017900  60.5556751 106.2300276
 113.2690503  59.7478374 103.9235739 113.8543940  59.0022062 104.0563643
 113.0715342  60.0582331 104.8072403 116.1229159  62.7829622  98.9398181
 115.4539534  63.2675749  98.4562222 115.9842028  63.0298842  99.8541560
 107.8608158  52.3183974 102.6440182 107.8992258  51.7847565 103.4377300
 107.3548451  51.7919180 102.0251159 120.2634427  64.8173365 105.5380840
 120.8152735  64.9804987 106.3029925 120.6040621  65.4077803 104.8660865
 115.2398921  47.1648515 106.1402725 115.3040247  48.0263346 105.7280122
 115.1766041  46.5522517 105.4075083 111.4916736  51.0448077  95.7194114
 111.7870177  50.1358755  95.6661167 110.5904772  51.0235816  95.3975116
 115.0210983  49.1204073 101.7021662 114.2997569  49.7340041 101.5629136
 115.8104239  49.6561838 101.6238308 113.2204577  48.7262174  95.8433439
 112.8917284  47.8459553  95.6608545 113.5743948  48.6709843  96.7309828
 116.3346401  49.0135144  96.2108916 116.6742473  49.5421065  95.4887525
 116.7818521  49.3515550  96.9867483 118.3214548  47.5109766  94.4102209
 119.0422910  47.8891018  93.9065926 117.6979852  48.2298642  94.5137187
 117.2044892  51.1740628 101.9231286 117.0589473  51.4880931 102.8155568
 116.7270096  51.7925528 101.3702185 119.0641275  48.1643176 101.9712176
 119.0502844  47.2684269 101.6344474 119.7813703  48.1713840 102.6050462
 120.9167406  48.5980516 104.0165303 120.6585183  49.5197587 104.0149634
 120.3852446  48.2010951 104.7065767 111.6790554  53.7145972 104.8618947
 111.1344022  54.4905780 104.9939222 112.5569904  54.0616777 104.7038069
 118.4678171  47.0457556  97.2399746 118.5894082  46.1174202  97.4390633
 118.1780213  47.0596242  96.3278061 121.3369361  44.7312466 100.3766466
 121.3591058  44.7951800  99.4218445 121.7537420  43.8916975 100.5706972
 112.4656576  52.8415868 107.7549104 111.7238312  52.9898504 108.3413735
 112.1449320  53.1024134 106.8915854 120.4100239  62.3831847 107.5529494
 120.7187365  62.1380993 108.4252194 121.2075721  62.5878485 107.0648364
 120.4320851  64.5369756  99.7834871 119.9925841  64.0446135 100.4767727
 121.1828968  63.9942724  99.5426946 112.9113190  60.7281297  99.7859499
 113.7371210  60.4285069  99.4058142 112.5607242  59.9588920 100.2349288
 117.8794723  60.0807765 101.8557172 117.2574732  59.4178470 101.5559400
 118.5499590  60.1068897 101.1730820 111.1121795  58.6467624 100.7448432
 110.2753703  58.2189798 100.5632434 111.0845440  58.8400067 101.6819224
 117.4408230  58.6311689  95.3315633 117.5896350  59.3147153  94.6782306
 118.2474673  58.6116779  95.8465089 115.1960863  54.6576866  96.3376702
 114.9506905  53.7539196  96.5356912 115.3656777  54.6594017  95.3956180
 114.4656510  50.3905224  93.8362863 113.7725755  50.4649579  93.1802899
 114.2208262  49.6265568  94.3584380 120.9403635  61.1259819  92.8027380
 120.3677602  61.7450006  92.3497852 121.5136429  61.6759181  93.3367302
 121.3250434  52.4620632  90.1443433 122.2709538  52.3326840  90.2131851
 120.9464679  51.7235294  90.6212861 119.5093351  50.3870608  90.0798318
 118.6024806  50.0903721  90.1561032 119.7869332  50.0900426  89.2132604
 110.4271291  51.7076972 100.5297365 110.1074076  50.8542280 100.2371739
 109.8804719  51.9225550 101.2855332 114.2051199  54.4239413 104.2466871
 114.4237209  55.3556521 104.2654905 114.6176973  54.0647387 105.0321675
 121.1255417  44.9307498  96.2342559 120.3156145  44.5854583  96.6097806
 121.8139834  44.6215042  96.8230171 118.2792136  47.2457544  90.2210297
 119.1411300  47.5712442  90.4806115 118.4642480  46.4589039  89.7083363
 110.2959551  55.3279883 102.4990486 109.6023023  54.9133836 101.9860441
 111.0432542  55.3700420 101.9023905 112.2096294  55.2598137 100.3756501
 112.1866982  55.3585824  99.4238384 112.5196930  56.1063288 100.6973667
 114.8683672  57.3174292 104.4903115 115.8226925  57.2858234 104.4233047
 114.6696195  56.8564916 105.3053341 115.4583054  55.8875408 107.0573913
 116.2775943  56.3819487 107.0808750 115.7319862  54.9707376 107.0291481
 113.2233900  62.8593912 101.5073313 113.0888368  62.0994312 100.9411311
 112.8065963  63.5834811 101.0402102 116.3803026  63.7563229 101.7191756
 116.2635410  64.7008661 101.6170446 115.5595473  63.4536790 102.1077555
 110.7117968  50.2213542 107.7566110 111.3576832  49.7112496 108.2453335
 110.5035119  50.9582224 108.3309535 119.2321579  44.4853587  93.5090006
 119.2200248  45.4295426  93.6658277 120.1245000  44.3023732  93.2149468
 117.4057540  64.4091490 104.9347684 118.3084787  64.4415101 105.2514179
 117.1794911  63.4791941 104.9494020 119.1611142  63.1622477 101.5957763
 118.2106773  63.1624339 101.4822135 119.4643629  62.4155212 101.0793798
 121.9098893  66.3943396 103.8426760 122.1606931  67.2790406 104.1084336
 122.4458441  66.2147998 103.0701852 119.1233937  69.5675299 100.3722715
 119.8104976  69.2537029  99.7843730 118.9682065  70.4716663 100.0989967
 118.7001913  67.6475892 102.6440182 118.7386012  67.1139483 103.4377300
 118.1942206  67.1211098 102.0251159 121.9515549  73.9759541 100.7448432
 121.1147457  73.5481716 100.5632434 121.9239195  74.1691985 101.6819224
 121.2665046  67.0368889 100.5297365 120.9467830  66.1834198 100.2371739
 120.7198474  67.2517468 101.2855332 121.1353306  70.6571801 102.4990486
 120.4416777  70.2425754 101.9860441 121.8826297  70.6992337 101.9023905
 121.5511723  65.5505460 107.7566110 122.1970586  65.0404414 108.2453335
 121.3428874  66.2874141 108.3309535  96.3309989  10.3574512  84.1896508
  96.2534019  11.3082338  84.2684988  95.7271633  10.0120385  84.8471434
  93.9696819  13.1059906  88.3344710  94.2093417  13.7378431  89.0123728
  93.1266015  12.7547946  88.6210069  94.4441651   9.1307909  85.6643488
  93.7752026   9.6154036  85.1807528  94.3054521   9.3777129  86.5786867
  98.5846920  11.1651652  92.2626147  99.1365228  11.3283274  93.0275232
  98.9253113  11.7556090  91.5906171  98.7533343  10.8848044  86.5080177
  98.3138333  10.3924422  87.2013034  99.5041460  10.3421011  86.2672253
  91.5446393   9.2072199  88.2318620  91.4100861   8.4472600  87.6656618
  91.1278455   9.9313099  87.7647409  94.7015519  10.1041516  88.4437063
  94.5847903  11.0486948  88.3415753  93.8807965   9.8015077  88.8322862
  95.7270033  10.7569778  91.6592991  96.6297279  10.7893388  91.9759486
  95.5007403   9.8270229  91.6739327 110.0266035  15.2988731  89.3210357
 109.6884546  15.1829795  88.4330892 110.8955803  14.8979896  89.3011363
 105.8852850  17.1524207  85.3107248 105.3217715  17.0614144  84.5423535
 105.7705245  16.3324112  85.7909740 103.4317282  18.6475399  88.1491468
 104.2238574  18.3066223  87.7337767 103.6713932  18.7570374  89.0693621
 111.4652409  20.8195175  80.6221713 110.8140389  21.4049255  80.2355726
 112.2596772  21.3501370  80.6816750 105.3908036  17.9084312  81.0208847
 106.1638912  17.3613299  80.8821723 105.7433435  18.7728561  81.2323308
 107.2293079  19.2360694  94.2275746 106.9382945  20.1406325  94.1122413
 107.8650063  19.2777222  94.9419816 108.1549286  16.6137543  90.8177106
 108.7512858  16.3893565  90.1034069 108.2124257  15.8722288  91.4202554
 107.7274314  14.0676978  78.6527297 107.9799835  13.5458499  77.8910760
 106.7898873  13.9043124  78.7553980 112.9427674  18.5085607  81.1590697
 112.3073507  18.5820233  81.8711602 112.6125081  19.0979206  80.4809776
 107.4470603  15.9705084  80.8551672 107.3306861  15.2949987  81.5232756
 107.5572863  15.4837458  80.0383825 109.7902144  15.4315231  84.5598361
 109.4260351  14.9045852  85.2711282 110.6469260  15.0413700  84.3864846
 112.1882964  18.9222110  91.2225540 111.8883687  19.8247149  91.1141347
 111.8434023  18.6554293  92.0746693 105.6395445  15.3735907  87.2562244
 104.7145942  15.2412121  87.4639936 105.8879858  16.1530126  87.7532187
 103.0004256  15.0169180  88.0906033 103.1296637  15.2703659  89.0045445
 102.3201708  15.6096888  87.7710688 107.1703744  25.6866430  84.1896508
 107.0927773  26.6374255  84.2684988 106.5665387  25.3412303  84.8471434
 107.9167346  15.6679749  96.4075842 108.6582030  16.2064793  96.1310665
 107.2104331  16.2946038  96.5647393 113.7151500  18.3710080  88.7600292
 113.0860362  18.5355794  88.0576360 113.3277162  18.7851690  89.5311256
 117.5940732  19.3064518  86.1144656 116.9091770  19.6863419  85.5641689
 117.6784581  19.9159844  86.8476603 109.2679462  18.1084488  86.0250377
 109.7317807  18.3872191  85.2354999 109.0036260  17.2067933  85.8423468
 106.1603543  17.6555970  88.9630140 106.7304900  18.0843238  88.3247625
 106.7511655  17.3738554  89.6614326 108.2048348  14.2307640  82.8339942
 108.9072391  14.6828684  83.3013868 107.8728976  13.5891459  83.4619835
 101.9473682  12.4891193  88.1357076 101.1572736  12.7448722  87.6597186
 102.4384929  13.3039531  88.2409116 115.9637491  19.8296432  90.8862357
 116.7854935  19.4276620  90.6045038 115.9599894  19.7264666  91.8378472
 103.8988427  12.8535772  85.0940552 103.1019590  12.9654467  85.6124048
 103.6714019  13.1922425  84.2281443 109.7294095  19.3780476  93.0423067
 109.7938527  19.8400883  93.8781239 109.0205019  18.7477841  93.1705377
 100.2311385  12.7421684  90.5672066 100.4819423  13.6268693  90.8329642
 100.7670933  12.5626285  89.7947158 109.4442112  21.0448583  82.9102047
 109.3087787  21.8900119  83.3386895 109.9851925  21.2467861  82.1467981
 102.8971510  18.5624021  83.4829972 103.4096030  19.3567271  83.6335537
 103.5494223  17.8650312  83.4163574 104.7066395  21.6789777  85.5652726
 104.8833023  22.6007742  85.3773709 105.5023228  21.3648197  85.9947105
 103.9918751  13.7254409  95.4414889 103.8772266  12.8239667  95.7421988
 103.1363269  13.9718106  95.0899705 111.0710589  21.6672150  97.0402389
 110.6274443  20.8808528  96.7223294 111.7327802  21.8551300  96.3746280
 105.8297710  23.1967951  91.5663068 106.3805135  23.0685015  90.7940062
 104.9909186  23.4962840  91.2157961 109.6264881  19.4619079  95.9107299
 110.1593218  18.7007367  95.6806607 109.0978962  19.1692731  96.6531454
 100.8620427  16.8912675  84.2589543 101.6995649  17.3009684  84.0423251
 101.0398694  15.9512118  84.2289737 117.7319133  17.3120111  81.8826549
 116.9548576  16.9731270  81.4381711 118.4110614  17.3172734  81.2081514
 110.9917594  18.5905071  83.4226111 110.4638955  17.8557831  83.1099349
 110.4905096  19.3679748  83.1766079 115.9710440  16.7854092  88.5393157
 115.3134114  17.4753353  88.6273286 116.7750839  17.1750524  88.8827144
 109.1370194  16.4085282  76.4261084 108.2297256  16.1774535  76.6252233
 109.6341226  15.6122901  76.6135066 112.0438273  25.1182789  79.3457770
 111.3699972  25.4214486  79.9542728 112.4304095  25.9211869  78.9963227
 110.3158427  16.5097877  80.9485074 109.4069647  16.2256909  81.0457544
 110.3453511  16.9296955  80.0888381 115.5477695  20.1204466  84.7176242
 115.0940022  19.2795376  84.7741432 114.9171662  20.7565864  85.0551022
 113.9910634  21.9580963  85.6526060 114.2833608  22.5186020  84.9338426
 114.5009255  22.2509524  86.4079219 100.8846598  14.2303391  84.9300276
 100.6870998  13.6372751  84.2051343 100.3293262  13.9255601  85.6476215
 110.0134515  18.0506620  78.2873153 109.5753945  17.3342479  77.8278790
 110.7544956  18.2782735  77.7258244 108.9544259  22.7361314  86.7419513
 108.9120438  22.9622160  85.8128045 109.8706958  22.5024688  86.8905314
 107.0710060  19.6124343  86.5381476 107.8650659  19.1174663  86.3364051
 106.3601752  19.0842206  86.1749181 111.8904904  21.9942438  90.8893843
 111.9441927  22.5633375  91.6571559 111.0219686  22.1644323  90.5247881
 103.3792823  13.7567425  82.6141229 102.4490412  13.6951880  82.8311191
 103.4750295  13.2343377  81.8177870 110.8493004  16.1602700  92.4480775
 111.7785064  16.3113860  92.2749743 110.4284034  16.2486721  91.5929422
 109.6481336  20.1853365  90.2179313 109.5092422  19.8172149  91.0905251
 108.8595932  20.7001004  90.0463271 110.2429488  25.2862461  81.5604849
 110.4181244  24.8150505  82.3750472 109.5562276  25.9128228  81.7886110
 111.1986551  19.5634968  87.6068151 110.8636384  19.5235738  88.5025801
 110.6990497  18.8979683  87.1338561 105.1730795  14.9702598  93.1320732
 105.0350593  14.2382836  93.7332271 106.0835719  14.8811498  92.8504920
 114.1345743  16.9091002  77.8805210 113.5174913  16.1837830  77.7838263
 113.6662231  17.6700362  77.5372285 107.8013096  14.6822557  92.6204412
 108.5112714  14.0415749  92.5791030 107.7582404  14.9335452  93.5430592
 104.8090573  28.4351824  88.3344710 105.0487171  29.0670348  89.0123728
 103.9659770  28.0839864  88.6210069  97.4446429  15.9153586  87.0968022
  98.1317469  15.6015316  86.5089037  97.2894558  16.8194951  86.8235273
 109.3218435  24.2430947  90.7386214 109.2488607  25.0485918  91.2505518
 108.8795828  24.4422912  89.9134235 109.1108215  23.4802717  84.2489035
 108.3275737  24.0224397  84.3427260 109.8100960  23.9976696  84.6483276
 111.7817119  24.1417781  92.8944372 112.4945091  24.7765245  92.8220274
 111.2907147  24.2381647  92.0784374 113.5034646  18.0469033  84.4661664
 112.5690924  18.1670496  84.2966368 113.6811314  17.1441500  84.2021674
 106.8329032  21.8912224  93.7149943 107.5338492  22.5248707  93.8679337
 106.3624147  22.2326956  92.9545582 114.9583428  20.2330174  81.9997850
 115.2343272  20.1186768  82.9091724 114.0887927  19.8347659  81.9610023
 111.5937492  24.4816525  85.6430664 111.7759887  23.6638181  86.1058416
 112.4170478  24.6984217  85.2055554 111.9279658  23.4084710  82.9045712
 112.4567424  22.8977164  82.2915874 112.1907877  23.0927240  83.7691245
 102.4296750  21.4248579  90.6481046 103.0150187  20.6792267  90.7808950
 102.2321589  21.7352536  91.5317710 105.2835405  24.4599826  85.6643488
 104.6145781  24.9445954  85.1807528 105.1448275  24.7069047  86.5786867
  97.0214405  13.9954179  89.3685489  97.0598504  13.4617770  90.1622607
  96.5154698  13.4689385  88.7496466 109.4240674  26.4943570  92.2626147
 109.9758982  26.6575192  93.0275232 109.7646868  27.0848008  91.5906171
 100.6522983  12.7218281  82.4439420 100.9476424  11.8128960  82.3906474
  99.7511018  12.7006021  82.1220423 112.5609061  24.4425546  89.2489829
 112.4360201  23.6415285  88.7400774 113.2188152  24.9371739  88.7603799
 114.6243970  22.2434566  90.8769379 113.6774305  22.1239917  90.8047705
 114.9726743  21.3557064  90.9595640 111.6290403  22.0387282  87.0773731
 111.4815365  21.1103989  87.2581301 112.4543897  22.0607373  86.5930806
 115.2324525  22.8615841  88.1638604 116.1571072  22.6558702  88.0263055
 115.0639828  22.6132242  89.0727945 106.3651139  12.8510833  88.6476593
 106.2195719  13.1651136  89.5400874 105.8876342  13.4695733  88.0947491
 115.0219841  23.3801508  83.5200695 115.1956719  22.8147931  82.7674548
 115.5148732  24.1802403  83.3380185 100.8396801  15.3916177  91.5864254
 100.2950269  16.1675985  91.7184528 101.7176151  15.7386982  91.4283375
 116.0095014  22.6968272  80.6197593 116.7045918  23.3174965  80.8384908
 116.3518164  21.8463624  80.8949971 101.6262823  14.5186073  94.4794411
 100.8844559  14.6668709  95.0659041 101.3055567  14.7794339  93.6161160
 117.9086437  20.1467978  82.1484924 118.4337761  20.4855251  81.4234244
 117.8208789  19.2114993  81.9648059 109.5706485  24.0602052  94.2774801
 109.8793612  23.8151198  95.1497500 110.3681967  24.2648690  93.7893671
 109.5927097  26.2139961  86.5080177 109.1532088  25.7216340  87.2013034
 110.3435214  25.6712929  86.2672253 102.0719436  22.4051502  86.5104805
 102.8977456  22.1055274  86.1303449 101.7213488  21.6359125  86.9594594
 107.0400970  21.7577970  88.5802479 106.4180979  21.0948675  88.2804707
 107.7105836  21.7839102  87.8976127 100.2728041  20.3237829  87.4693739
  99.4359950  19.8960003  87.2877740 100.2451687  20.5170272  88.4064530
 106.6014476  20.3081894  82.0560940 106.7502597  20.9917358  81.4027612
 107.4080920  20.2886984  82.5710395 104.3567109  16.3347071  83.0622009
 104.1113151  15.4309401  83.2602219 104.5263024  16.3364222  82.1201487
 110.1009882  22.8030024  79.5272687 109.5283849  23.4220211  79.0743159
 110.6742676  23.3529386  80.0612609 113.3207142  23.0867174  80.6581269
 114.2537815  23.0212736  80.8614145 113.2330355  23.9223441  80.1995802
 115.9495158  22.4033045  77.6185217 115.8708790  22.0692908  78.5120975
 116.7704825  22.8954812  77.6176689  99.5877538  13.3847177  87.2542671
  99.2680322  12.5312485  86.9617045  99.0410966  13.5995755  88.0100639
 103.3657446  16.1009618  90.9712178 103.5843455  17.0326725  90.9900212
 103.7783219  15.7417592  91.7566982  99.4565798  17.0050088  89.2235793
  98.7629269  16.5904041  88.7105747 100.2038789  17.0470625  88.6269212
 101.3702541  16.9368342  87.1001808 101.3473229  17.0356029  86.1483691
 101.6803177  17.7833493  87.4218974 104.0289918  18.9944497  91.2148422
 104.9833172  18.9628439  91.1478354 103.8302442  18.5335121  92.0298648
 104.6189301  17.5645613  93.7819220 105.4382190  18.0589692  93.8054057
 104.8926108  16.6477581  93.7536787 102.3840147  24.5364116  88.2318620
 102.2494615  23.7764517  87.6656618 101.9672210  25.2605016  87.7647409
 113.5199110  19.7201040  77.2395195 114.2234960  19.9251042  77.8552851
 112.7961759  20.2877802  77.5044279 105.5409273  25.4333433  88.4437063
 105.4241657  26.3778866  88.3415753 104.7201719  25.1306995  88.8322862
 115.4285808  20.1583569  79.2893655 116.2631412  19.7264768  79.1071130
 115.2670151  19.9865583  80.2170550 115.0831700  16.6615682  80.6549995
 115.0280504  16.4959954  79.7138439 114.4577755  17.3691715  80.8112184
  99.8724215  11.8983747  94.4811417 100.5183078  11.3882701  94.9698642
  99.6641366  12.6352429  95.0554842 106.5663787  26.0861695  91.6592991
 107.4691034  26.1185306  91.9759486 106.3401157  25.1562146  91.6739327
 108.3217389  24.8392682  88.3203070 107.3713020  24.8394544  88.2067442
 108.6249875  24.0925416  87.8039104 120.8659789  30.6280648  89.3210357
 120.5278301  30.5121713  88.4330892 121.7349557  30.2271813  89.3011363
 116.7246605  32.4816125  85.3107248 116.1611470  32.3906062  84.5423535
 116.6099000  31.6616029  85.7909740 114.2711037  33.9767316  88.1491468
 115.0632329  33.6358141  87.7337767 114.5107687  34.0862291  89.0693621
 116.2301791  33.2376230  81.0208847 117.0032667  32.6905217  80.8821723
 116.5827189  34.1020479  81.2323308 118.0686833  34.5652612  94.2275746
 117.7776699  35.4698243  94.1122413 118.7043818  34.6069140  94.9419816
 118.9943040  31.9429460  90.8177106 119.5906612  31.7185483  90.1034069
 119.0518012  31.2014206  91.4202554 118.5668068  29.3968896  78.6527297
 118.8193589  28.8750417  77.8910760 117.6292628  29.2335041  78.7553980
 118.2864357  31.2997002  80.8551672 118.1700615  30.6241905  81.5232756
 118.3966617  30.8129376  80.0383825 120.6295898  30.7607149  84.5598361
 120.2654105  30.2337770  85.2711282 121.4863014  30.3705618  84.3864846
 120.2701385  25.7897049  79.5559710 120.4375787  26.6577285  79.9230181
 120.0798554  25.9524330  78.6320999 116.4789200  30.7027824  87.2562244
 115.5539696  30.5704038  87.4639936 116.7273613  31.4822044  87.7532187
 120.2490606  28.2454706  80.5406376 120.1290231  28.6911757  81.3791857
 119.5543194  28.5940024  79.9819915 113.8398011  30.3461098  88.0906033
 113.9690392  30.5995577  89.0045445 113.1595462  30.9388806  87.7710688
 118.0097498  41.0158348  84.1896508 117.9321528  41.9666173  84.2684988
 117.4059142  40.6704220  84.8471434 118.7561100  30.9971667  96.4075842
 119.4975784  31.5356711  96.1310665 118.0498086  31.6237955  96.5647393
 120.5847510  28.0773414  92.3781560 121.4308705  28.5012827  92.5216209
 120.5246147  27.4207038  93.0720123 120.1073216  33.4376406  86.0250377
 120.5711562  33.7164109  85.2354999 119.8430014  32.5359850  85.8423468
 116.9997297  32.9847887  88.9630140 117.5698654  33.4135156  88.3247625
 117.5905409  32.7030472  89.6614326 119.0442102  29.5599558  82.8339942
 119.7466146  30.0120602  83.3013868 118.7122731  28.9183377  83.4619835
 112.7867436  27.8183111  88.1357076 111.9966490  28.0740639  87.6597186
 113.2778684  28.6331449  88.2409116 114.7382182  28.1827690  85.0940552
 113.9413345  28.2946384  85.6124048 114.5107774  28.5214342  84.2281443
 120.5687849  34.7072393  93.0423067 120.6332282  35.1692800  93.8781239
 119.8598773  34.0769758  93.1705377 111.0705139  28.0713601  90.5672066
 111.3213178  28.9560611  90.8329642 111.6064688  27.8918203  89.7947158
 120.2835867  36.3740501  82.9102047 120.1481542  37.2192036  83.3386895
 120.8245679  36.5759778  82.1467981 113.7365264  33.8915939  83.4829972
 114.2489785  34.6859189  83.6335537 114.3887977  33.1942229  83.4163574
 115.5460149  37.0081695  85.5652726 115.7226777  37.9299660  85.3773709
 116.3416983  36.6940114  85.9947105 114.8312506  29.0546327  95.4414889
 114.7166021  28.1531584  95.7421988 113.9757023  29.3010024  95.0899705
 116.6691465  38.5259869  91.5663068 117.2198890  38.3976932  90.7940062
 115.8302940  38.8254758  91.2157961 120.4658636  34.7910997  95.9107299
 120.9986972  34.0299285  95.6806607 119.9372717  34.4984648  96.6531454
 111.7014181  32.2204593  84.2589543 112.5389403  32.6301601  84.0423251
 111.8792449  31.2804035  84.2289737 121.1825724  24.7329375  85.0058614
 120.3267321  24.3436225  84.8264253 121.5952676  24.8121335  84.1458400
 118.9567757  22.3514448  88.4116356 119.8220754  22.1557256  88.0522245
 119.0245266  22.1224799  89.3385713 121.8311348  33.9196989  83.4226111
 121.3032710  33.1849749  83.1099349 121.3298851  34.6971665  83.1766079
 116.5630076  24.5816655  85.7832723 117.1373828  24.3591837  85.0505916
 117.1501058  24.6505350  86.5361324 116.8899663  26.6121116  79.8028608
 116.0536975  26.9495803  80.1237883 116.7504433  26.4770096  78.8655745
 118.8652744  21.4557904  84.5107792 118.2117156  21.1406922  83.8864407
 118.8233218  20.8333645  85.2367615 119.9763948  31.7377199  76.4261084
 119.0691010  31.5066453  76.6252233 120.4734980  30.9414819  76.6135066
 121.1552182  31.8389794  80.9485074 120.2463401  31.5548827  81.0457544
 121.1847266  32.2588873  80.0888381 111.7240352  29.5595308  84.9300276
 111.5264752  28.9664669  84.2051343 111.1687016  29.2547519  85.6476215
 119.7037076  29.4518415  87.0494870 119.7585686  28.4992251  86.9737346
 118.8928278  29.6077854  87.5336168 120.8528270  33.3798538  78.2873153
 120.4147700  32.6634397  77.8278790 121.5938711  33.6074653  77.7258244
 117.6429436  28.0695475  84.8085248 116.8297301  28.3689645  85.2150441
 118.1388430  27.6751163  85.5259731 119.7938014  38.0653232  86.7419513
 119.7514193  38.2914078  85.8128045 120.7100713  37.8316606  86.8905314
 117.1343511  25.6413830  90.4246483 117.7742890  25.5002589  89.7269447
 116.3021041  25.3548344  90.0485085 117.9103815  34.9416261  86.5381476
 118.7044413  34.4466581  86.3364051 117.1995507  34.4134124  86.1749181
 114.2186578  29.0859342  82.6141229 113.2884166  29.0243798  82.8311191
 114.3144050  28.5635295  81.8177870 114.1372127  25.6114155  85.2019470
 114.3978944  26.5259488  85.0928631 114.9589299  25.1438598  85.3516083
 115.6097052  27.0251912  92.3718295 116.2820106  26.8169274  91.7230944
 114.7826839  26.8273998  91.9323527 120.4875090  35.5145283  90.2179313
 120.3486176  35.1464067  91.0905251 119.6989687  36.0292922  90.0463271
 121.0823242  40.6154379  81.5604849 121.2574998  40.1442422  82.3750472
 120.3956030  41.2420145  81.7886110 122.0380306  34.8926885  87.6068151
 121.7030138  34.8527655  88.5025801 121.5384251  34.2271601  87.1338561
 116.0124550  30.2994515  93.1320732 115.8744348  29.5674754  93.7332271
 116.9229473  30.2103415  92.8504920 118.6406850  30.0114475  92.6204412
 119.3506469  29.3707667  92.5791030 118.5976158  30.2627369  93.5430592
 117.3535784  26.9979692  94.4400051 116.8173141  26.5470431  95.0921647
 116.7652493  27.1325601  93.6970515 115.6484328  43.7643742  88.3344710
 115.8880926  44.3962266  89.0123728 114.8053524  43.4131782  88.6210069
 116.7638043  26.4568344  77.0026515 115.8867510  26.3357145  76.6388761
 117.2395796  25.6654422  76.7505403 108.2840183  31.2445504  87.0968022
 108.9711223  30.9307234  86.5089037 108.1288312  32.1486868  86.8235273
 113.0874905  26.1335700  91.5253045 113.0033094  25.5261370  90.7903455
 112.2657612  26.6244718  91.5262542 120.1612190  39.5722864  90.7386214
 120.0882361  40.3777836  91.2505518 119.7189583  39.7714830  89.9134235
 119.9501969  38.8094634  84.2489035 119.1669491  39.3516314  84.3427260
 120.6494714  39.3268614  84.6483276 119.8433588  26.7606647  86.6194925
 119.4731376  26.2077687  87.3075831 120.3392681  26.1564780  86.0669925
 117.6722787  37.2204142  93.7149943 118.3732246  37.8540625  93.8679337
 117.2017902  37.5618873  92.9545582 113.2690505  36.7540497  90.6481046
 113.8543942  36.0084185  90.7808950 113.0715343  37.0644453  91.5317710
 116.1229160  39.7891744  85.6643488 115.4539535  40.2737872  85.1807528
 115.9842030  40.0360965  86.5786867 107.8608159  29.3246097  89.3685489
 107.8992259  28.7909688  90.1622607 107.3548452  28.7981302  88.7496466
 120.2634429  41.8235488  92.2626147 120.8152737  41.9867109  93.0275232
 120.6040622  42.4139926  91.5906171 115.2398922  24.1710637  92.8648031
 115.3040248  25.0325468  92.4525429 115.1766042  23.5584639  92.1320390
 111.4916737  28.0510199  82.4439420 111.7870178  27.1420878  82.3906474
 110.5904773  28.0297939  82.1220423 115.0210984  26.1266196  88.4266969
 114.2997570  26.7402163  88.2874442 115.8104240  26.6623961  88.3483615
 113.2204579  25.7324297  82.5678745 112.8917285  24.8521676  82.3853851
 113.5743949  25.6771965  83.4555135 116.3346402  26.0197267  82.9354223
 116.6742474  26.5483188  82.2132831 116.7818522  26.3577673  83.7112790
 118.3214549  24.5171888  81.1347516 119.0422911  24.8953141  80.6311233
 117.6979853  25.2360765  81.2382494 117.2044893  28.1802750  88.6476593
 117.0589474  28.4943053  89.5400874 116.7270097  28.7987651  88.0947491
 119.0641276  25.1705298  88.6957482 119.0502845  24.2746392  88.3589780
 119.7813704  25.1775962  89.3295768 120.9167407  25.6042639  90.7410610
 120.6585185  26.5259709  90.7394940 120.3852447  25.2073073  91.4311074
 111.6790555  30.7208095  91.5864254 111.1344023  31.4967903  91.7184528
 112.5569905  31.0678899  91.4283375 118.4678172  24.0519679  83.9645053
 118.5894083  23.1236325  84.1635940 118.1780214  24.0658365  83.0523368
 121.3369362  21.7374589  87.1011772 121.3591059  21.8013922  86.1463752
 121.7537421  20.8979098  87.2952279 112.4656577  29.8477991  94.4794411
 111.7238313  29.9960626  95.0659041 112.1449322  30.1086257  93.6161160
 120.4100240  39.3893969  94.2774801 120.7187366  39.1443116  95.1497500
 121.2075722  39.5940608  93.7893671 120.4320852  41.5431879  86.5080177
 119.9925842  41.0508258  87.2013034 121.1828969  41.0004847  86.2672253
 112.9113191  37.7343420  86.5104805 113.7371211  37.4347192  86.1303449
 112.5607243  36.9651042  86.9594594 117.8794724  37.0869888  88.5802479
 117.2574733  36.4240593  88.2804707 118.5499591  37.1131020  87.8976127
 111.1121796  35.6529746  87.4693739 110.2753704  35.2251921  87.2877740
 111.0845441  35.8462190  88.4064530 117.4408231  35.6373811  82.0560940
 117.5896351  36.3209276  81.4027612 118.2474674  35.6178901  82.5710395
 115.1960864  31.6638989  83.0622009 114.9506906  30.7601319  83.2602219
 115.3656778  31.6656139  82.1201487 114.4656511  27.3967347  80.5608170
 113.7725756  27.4711702  79.9048206 114.2208263  26.6327690  81.0829687
 120.9403636  38.1321942  79.5272687 120.3677604  38.7512129  79.0743159
 121.5136430  38.6821303  80.0612609 121.3250435  29.4682755  76.8688740
 122.2709540  29.3388963  76.9377158 120.9464680  28.7297416  77.3458168
 119.5093352  27.3932731  76.8043625 118.6024808  27.0965844  76.8806338
 119.7869333  27.0962549  75.9377911 110.4271293  28.7139094  87.2542671
 110.1074077  27.8604403  86.9617045 109.8804721  28.9287672  88.0100639
 114.2051200  31.4301535  90.9712178 114.4237210  32.3618643  90.9900212
 114.6176974  31.0709510  91.7566982 121.1255418  21.9369621  82.9587866
 120.3156146  21.5916706  83.3343112 121.8139835  21.6277164  83.5475478
 118.2792137  24.2519666  76.9455604 119.1411301  24.5774564  77.2051421
 118.4642481  23.4651162  76.4328670 110.2959553  32.3342006  89.2235793
 109.6023024  31.9195959  88.7105747 111.0432544  32.3762542  88.6269212
 112.2096295  32.2660260  87.1001808 112.1866983  32.3647947  86.1483691
 112.5196932  33.1125410  87.4218974 114.8683673  34.3236415  91.2148422
 115.8226926  34.2920357  91.1478354 114.6696197  33.8627038  92.0298648
 115.4583055  32.8937531  93.7819220 116.2775944  33.3881609  93.8054057
 115.7319863  31.9769499  93.7536787 113.2233902  39.8656034  88.2318620
 113.0888370  39.1056435  87.6656618 112.8065964  40.5896934  87.7647409
 116.3803028  40.7625351  88.4437063 116.2635412  41.7070784  88.3415753
 115.5595474  40.4598913  88.8322862 110.7117969  27.2275665  94.4811417
 111.3576833  26.7174619  94.9698642 110.5035120  27.9644346  95.0554842
 119.2321580  21.4915709  80.2335313 119.2200250  22.4357549  80.3903584
 120.1245002  21.3085855  79.9394774 117.4057542  41.4153613  91.6592991
 118.3084788  41.4477223  91.9759486 117.1794912  40.4854064  91.6739327
 119.1611144  40.1684600  88.3203070 118.2106775  40.1686461  88.2067442
 119.4643630  39.4217334  87.8039104 121.9098894  43.4005519  90.5672066
 122.1606932  44.2852529  90.8329642 122.4458442  43.2210120  89.7947158
 119.1233938  46.5737421  87.0968022 119.8104978  46.2599151  86.5089037
 118.9682067  47.4778786  86.8235273 118.7001914  44.6538015  89.3685489
 118.7386013  44.1201605  90.1622607 118.1942207  44.1273220  88.7496466
 121.9515550  50.9821664  87.4693739 121.1147459  50.5543838  87.2877740
 121.9239196  51.1754107  88.4064530 121.2665047  44.0431012  87.2542671
 120.9467831  43.1896320  86.9617045 120.7198475  44.2579590  88.0100639
 121.1353307  47.6633923  89.2235793 120.4416778  47.2487876  88.7105747
 121.8826298  47.7054460  88.6269212 121.5511724  42.5567582  94.4811417
 122.1970587  42.0466536  94.9698642 121.3428875  43.2936264  95.0554842
 118.0097499  18.0220470  70.9141814 117.9321529  18.9728295  70.9930295
 117.4059143  17.6766343  71.5716741 115.6484329  20.7705864  75.0590016
 115.8880927  21.4024389  75.7369035 114.8053525  20.4193904  75.3455376
 116.1229161  16.7953867  72.3888795 115.4539536  17.2799994  71.9052835
 115.9842031  17.0423087  73.3032173 120.2634430  18.8297610  78.9871453
 120.8152738  18.9929232  79.7520538 120.6040623  19.4202048  78.3151478
 120.4320853  18.5494002  73.2325484 119.9925843  18.0570380  73.9258341
 121.1828970  18.0066969  72.9917559 113.2233903  16.8718157  74.9563927
 113.0888371  16.1118558  74.3901925 112.8065965  17.5959057  74.4892715
 116.3803029  17.7687474  75.1682369 116.2635413  18.7132906  75.0661059
 115.5595475  17.4661035  75.5568168 117.4057543  18.4215736  78.3838298
 118.3084790  18.4539346  78.7004793 117.1794913  17.4916187  78.3984633
 121.9098895  20.4067642  77.2917373 122.1606933  21.2914651  77.5574949
 122.4458443  20.2272243  76.5192465 119.1233939  23.5799544  73.8213328
 119.8104979  23.2661274  73.2334344 118.9682068  24.4840909  73.5480580
 118.7001915  21.6600137  76.0930796 118.7386015  21.1263728  76.8867914
 118.1942208  21.1335343  75.4741773 121.9515552  27.9883786  74.1939046
 121.1147460  27.5605961  74.0123047 121.9239197  28.1816230  75.1309837
 121.2665048  21.0493135  73.9787978 120.9467833  20.1958443  73.6862352
 120.7198476  21.2641713  74.7345945 121.1353308  24.6696046  75.9481099
 120.4416780  24.2549999  75.4351054 121.8826299  24.7116583  75.3514518
 121.5511725  19.5629705  81.2056723 122.1970589  19.0528659  81.6943949
 121.3428876  20.2998386  81.7800149  47.0075741  71.1058546 132.4476541
  46.3337440  71.4090242 133.0561498  47.3941563  71.9087626 132.0981998
  49.0983211  62.8966759 130.9823981  48.4812381  62.1713587 130.8857033
  48.6299699  63.6576119 130.6391055  50.9732482  68.6844029 133.7216364
  51.6683386  69.3050722 133.9403678  51.3155632  67.8339380 133.9968742
  45.0647350  68.7905781 132.6291457  44.4921317  69.4095968 132.1761929
  45.6380144  69.3405142 133.1631379  48.2844610  69.0742931 133.7600040
  49.2175283  69.0088493 133.9632915  48.1967823  69.9099198 133.3014572
  50.9132626  68.3908801 130.7203987  50.8346258  68.0568665 131.6139745
  51.7342293  68.8830569 130.7195460  48.4836578  65.7076797 130.3413966
  49.1872428  65.9126799 130.9571621  47.7599227  66.2753558 130.6063049
  50.3923276  66.1459326 132.3912426  51.2268880  65.7140524 132.2089900
  50.2307619  65.9741339 133.3189320  51.8537131  72.5996873 132.9047378
  51.0174443  72.9371560 133.2256653  51.7141901  72.4645853 131.9674515
  51.7275511  72.4444100 130.1045285  50.8504978  72.3232901 129.7407532
  52.2033264  71.6530179 129.8524174  49.4293980  73.3843103 133.6626940
  48.7363224  73.4587458 133.0066976  49.1845731  72.6203447 134.1848457
  54.4730820  73.3808488 129.9062395  53.5662276  73.0841600 129.9825109
  54.7506801  73.0838306 129.0396681  53.2429605  70.2395423 130.0474374
  54.1048769  70.5650321 130.3070192  53.4279949  69.4526919 129.5347440
  54.1959048  67.4791466 133.3354083  54.1837718  68.4233306 133.4922354
  55.0882470  67.2961611 133.0413545  47.0075742  48.1120668 119.1721847
  46.3337441  48.4152365 119.7806805  47.3941564  48.9149748 118.8227304
  49.0983212  39.9028881 117.7069287  48.4812383  39.1775709 117.6102340
  48.6299701  40.6638241 117.3636362  50.9732483  45.6906152 120.4461670
  51.6683387  46.3112844 120.6648985  51.3155633  44.8401503 120.7214048
  45.0647351  45.7967903 119.3536764  44.4921318  46.4158090 118.9007236
  45.6380145  46.3467265 119.8876686  48.2844611  46.0805053 120.4845346
  49.2175284  46.0150615 120.6878222  48.1967824  46.9161320 120.0259879
  50.9132628  45.3970924 117.4449294  50.8346259  45.0630787 118.3385052
  51.7342295  45.8892692 117.4440766  48.4836580  42.7138919 117.0659272
  49.1872430  42.9188922 117.6816928  47.7599228  43.2815681 117.3308356
  50.3923277  43.1521448 119.1157732  51.2268881  42.7202647 118.9335207
  50.2307620  42.9803462 120.0434627  59.0207552  53.6691099 129.2112909
  59.6585962  53.5497847 128.5076249  58.9028395  54.6171943 129.2700861
  55.8297258  53.6218528 129.1474434  55.4915770  53.5059592 128.2594969
  56.6987027  53.2209693 129.1275440  51.6884074  55.4754004 125.1371325
  51.1248939  55.3843941 124.3687612  51.5736469  54.6553908 125.6173817
  57.2683633  59.1424972 120.4485790  56.6171612  59.7279052 120.0619803
  58.0627996  59.6731167 120.5080827  51.1939260  56.2314109 120.8472924
  51.9670136  55.6843096 120.7085800  51.5464659  57.0958358 121.0587385
  53.5305538  52.3906775 118.4791374  53.7831058  51.8688296 117.7174837
  52.5930097  52.2272920 118.5818057  58.5748821  51.3942553 126.2866117
  59.3611910  50.9761976 125.9356534  58.8387525  52.2988646 126.4547765
  58.7458898  56.8315404 120.9854774  58.1104731  56.9050030 121.6975679
  58.4156304  57.4209002 120.3073853  63.9757248  51.3317787 127.1899096
  64.7082420  50.7617003 127.4236925  63.2196603  50.9439387 127.6305601
  53.2501826  54.2934881 120.6815749  53.1338085  53.6179784 121.3496833
  53.3604086  53.8067255 119.8647902  55.5933367  53.7545028 124.3862438
  55.2291575  53.2275649 125.0975360  56.4500483  53.3643497 124.2128923
  55.2338854  48.7834928 119.3823787  55.4013257  49.6515164 119.7494258
  55.0436023  48.9462209 118.4585076  57.9914188  57.2451907 131.0489617
  57.6914911  58.1476945 130.9405424  57.6465247  56.9784090 131.9010770
  61.3911331  49.7634447 128.7287054  60.4828209  49.6949855 128.4345815
  61.3398927  50.2406392 129.5568880  55.2128075  51.2392585 120.3670453
  55.0927700  51.6849636 121.2055934  54.5180664  51.5877903 119.8083992
  52.9734967  64.0096227 124.0160585  52.8958997  64.9604052 124.0949065
  52.3696611  63.6642099 124.6735511  60.9113141  51.7114058 121.1950787
  61.8230997  51.9441445 121.0198485  60.4022788  52.2951103 120.6325866
  59.5182724  56.6939877 128.5864369  58.8891586  56.8585591 127.8840437
  59.1308386  57.1081486 129.3575333  63.3971956  57.6294315 125.9408733
  62.7122994  58.0093216 125.3905766  63.4815805  58.2389641 126.6740680
  55.0710686  56.4314285 125.8514454  55.5349031  56.7101988 125.0619076
  54.8067484  55.5297730 125.6687545  54.0079572  52.5537437 122.6604019
  54.7103615  53.0058481 123.1277945  53.6760200  51.9121256 123.2883912
  61.7668715  58.1526229 130.7126434  62.5886159  57.7506416 130.4309115
  61.7631118  58.0494463 131.6642549  69.8574708  54.4964978 127.0611405
  69.1038417  53.9272376 126.9055409  69.9922249  54.4627642 128.0082040
  55.2473336  59.3678380 122.7366124  55.1119011  60.2129916 123.1650972
  55.7883149  59.5697658 121.9732058  48.7002734  56.8853818 123.3094049
  49.2127254  57.6797068 123.4599614  49.3525446  56.1880108 123.2427651
  50.5097618  60.0019574 125.3916803  50.6864247  60.9237539 125.2037786
  51.3054452  59.6877993 125.8211182  51.6328934  61.5197748 131.3927145
  52.1836359  61.3914811 130.6204139  50.7940410  61.8192637 131.0422038
  46.6651650  55.2142472 124.0853620  47.5026872  55.6239481 123.8687328
  46.8429918  54.2741914 124.0553814  58.5616083  52.8817553 119.7737453
  58.0462706  53.6522158 120.0125840  58.2893391  52.2082689 120.3970514
  56.1463194  47.7267254 124.8322691  55.2904790  47.3374104 124.6528330
  56.5590145  47.8059214 123.9722477  63.5350357  55.6349908 121.7090626
  62.7579799  55.2961067 121.2645788  64.2141838  55.6402531 121.0345591
  58.3502386  50.7544645 121.5997234  58.0452521  51.0690794 122.4507377
  59.3032828  50.8326065 121.6424567  56.7948818  56.9134868 123.2490188
  56.2670179  56.1787628 122.9363426  56.2936320  57.6909545 123.0030156
  61.7741664  55.1083889 128.3657234  61.1165338  55.7983150 128.4537363
  62.5782063  55.4980321 128.7091221  60.5847122  53.4628262 126.4161176
  61.0979004  54.0958253 126.9182886  61.2348346  52.8629457 126.0504536
  51.8537132  49.6058996 119.6292685  51.0174445  49.9433682 119.9501960
  51.7141902  49.4707975 118.6919822  54.9401418  54.7315079 116.2525161
  54.0328479  54.5004332 116.4516310  55.4372450  53.9352698 116.4399143
  57.8469497  63.4412586 119.1721847  57.1731195  63.7444283 119.7806805
  58.2335319  64.2441666 118.8227304  57.8463001  52.3369133 123.7922197
  58.5934820  52.8490530 123.4829319  58.1154591  52.0153185 124.6526590
  56.1189651  54.8327673 120.7749151  55.2100870  54.5486706 120.8721621
  56.1484735  55.2526752 119.9152458  61.3508919  58.4434263 124.5440319
  60.8971246  57.6025173 124.6005509  60.7202885  59.0795661 124.8815099
  60.2941838  49.3726249 125.7740986  59.5564595  48.8603635 126.1051229
  60.5468612  48.9326631 124.9624263  59.7941858  60.2810760 125.4790137
  60.0864832  60.8415817 124.7602503  60.3040478  60.5739321 126.2343296
  54.6674545  52.4456294 126.8758947  54.7223155  51.4930130 126.8001423
  53.8565747  52.6015733 127.3600245  55.8165739  56.3736417 118.1137230
  55.3785169  55.6572276 117.6542867  56.5576180  56.6012532 117.5522321
  52.6066905  51.0633354 124.6349325  51.7934771  51.3627524 125.0414518
  53.1025899  50.6689043 125.3523808  54.7575483  61.0591111 126.5683590
  54.7151662  61.2851957 125.6392122  55.6738182  60.8254485 126.7169391
  63.9338854  54.6493614 124.1713548  63.7956752  54.8395210 123.2434738
  63.5775073  55.4112997 124.6281599  63.9608233  56.7170141 129.1824820
  64.3944740  56.6245430 130.0307874  64.6739814  56.6927642 128.5444836
  52.8741284  57.9354140 126.3645553  53.6681882  57.4404460 126.1628128
  52.1632976  57.4072003 126.0013258  57.6936128  60.3172235 130.7157920
  57.7473151  60.8863172 131.4835636  56.8250910  60.4874120 130.3511958
  49.1824047  52.0797221 122.4405306  48.2521635  52.0181677 122.6575268
  49.2781519  51.5573174 121.6441947  64.8223783  56.7593842 131.7157705
  65.0159673  57.6639652 131.9616980  64.7224401  56.3001261 132.5496290
  55.4512560  58.5083162 130.0443390  55.3123645  58.1401946 130.9169328
  54.6627156  59.0230801 129.8727348  56.0460712  63.6092258 121.3868926
  56.2212467  63.1380301 122.2014549  55.3593500  64.2358024 121.6150187
  57.0017775  57.8864764 127.4332228  56.6667608  57.8465534 128.3289878
  56.5021721  57.2209480 126.9602638  59.9376967  55.2320799 117.7069287
  59.3206137  54.5067627 117.6102340  59.4693455  55.9930159 117.3636362
  50.6121797  66.7581621 128.1608787  50.8518395  67.3900145 128.8387805
  49.7690994  66.4069661 128.4474146  51.7275512  49.4506223 116.8290592
  50.8504979  49.3295024 116.4652838  52.2033266  48.6592301 116.5769480
  55.1249659  62.5660743 130.5650291  55.0519830  63.3715715 131.0769595
  54.6827052  62.7652709 129.7398312  54.9139439  61.8032513 124.0753112
  54.1306960  62.3454194 124.1691337  55.6132184  62.3206493 124.4747353
  58.2236089  47.6127143 126.7187318  58.7204788  46.8597105 126.3988388
  57.4523070  47.6491460 126.1530527  66.0765846  53.3167508 128.3605609
  66.0655722  54.1992224 127.9899542  65.2083225  52.9639059 128.1660146
  57.5848342  62.4647577 132.7208449  58.2976315  63.0995042 132.6484351
  57.0938371  62.5611443 131.9048451  59.3065869  56.3698830 124.2925741
  58.3722148  56.4900293 124.1230445  59.4842538  55.4671297 124.0285751
  62.6938421  52.2116149 124.8275775  63.1598873  53.0444141 124.7536078
  63.1445921  51.7461131 125.5321034  60.7614652  58.5559971 121.8261927
  61.0374496  58.4416565 122.7355801  59.8919151  58.1577456 121.7874100
  57.3968716  62.8046322 125.4694741  57.5791110  61.9867977 125.9322493
  58.2201702  63.0214014 125.0319631  57.7310881  61.7314507 122.7309789
  58.2598648  61.2206961 122.1179951  57.9939101  61.4157037 123.5955322
  51.0866629  62.7829623 125.4907565  50.4177005  63.2675751 125.0071605
  50.9479499  63.0298844 126.4050944  55.2271898  64.8173367 132.0890224
  55.7790206  64.9804988 132.8539309  55.5678091  65.4077805 131.4170248
  46.4554206  51.0448078 122.2703497  46.7507647  50.1358757 122.2170551
  45.5542242  51.0235818 121.9484500  58.3640285  62.7655342 129.0753906
  58.2391425  61.9645082 128.5664851  59.0219376  63.2601536 128.5867876
  60.4275193  60.5664362 130.7033456  59.4805529  60.4469714 130.6311782
  60.7757967  59.6786861 130.7859717  48.1842048  48.7262176 122.3942822
  47.8554754  47.8459555 122.2117928  48.5381419  48.6709845 123.2819212
  57.4321627  60.3617079 126.9037808  57.2846589  59.4333786 127.0845378
  58.2575120  60.3837169 126.4194883  51.2983871  49.0135146 122.7618300
  51.6379944  49.5421067 122.0396908  51.7455992  49.3515552 123.5376867
  61.0355749  61.1845637 127.9902681  61.9602296  60.9788499 127.8527132
  60.8671052  60.9362039 128.8992022  53.2852018  47.5109767 120.9611593
  54.0060381  47.8891020 120.4575310  52.6617322  48.2298644 121.0646571
  57.4283141  48.2154916 121.8969925  57.6446755  49.0979554 121.5958753
  56.9477208  47.8241130 121.1675567  60.8251065  61.7031305 123.3464772
  60.9987942  61.1377727 122.5938625  61.3179956  62.5032200 123.1644262
  53.4315641  47.0457558 123.7909130  53.5531552  46.1174204 123.9900017
  53.1417684  47.0596244 122.8787445  66.6790456  54.4667728 124.9655072
  67.1221602  53.7175053 124.5674195  65.8016966  54.4577864 124.5828804
  61.8126237  61.0198069 120.4461670  62.5077142  61.6404762 120.6648985
  62.1549387  60.1693421 120.7214048  63.7117660  58.4697775 121.9749001
  64.2368985  58.8085048 121.2498321  63.6240013  57.5344790 121.7912136
  55.3958321  64.5369758 126.3344254  54.9563311  64.0446137 127.0277111
  56.1466438  63.9942726 126.0936330  47.8750660  60.7281299 126.3368882
  48.7008680  60.4285071 125.9567526  47.5244712  59.9588921 126.7858671
  52.8432193  60.0807767 128.4066556  52.2212203  59.4178472 128.1068784
  53.5137060  60.1068899 127.7240204  46.0759265  58.6467625 127.2957816
  45.2391174  58.2189800 127.1141817  46.0482911  58.8400069 128.2328607
  52.4045700  58.6311691 121.8825017  52.5533821  59.3147155 121.2291689
  53.2112144  58.6116781 122.3974472  65.0227638  58.3720086 134.8374949
  64.7312447  58.7350067 135.6738410  64.4099770  57.6587095 134.6588281
  66.2223321  55.9372966 127.3577520  67.0570212  56.3762770 127.5215080
  66.3582450  55.4611619 126.5385765  50.1598333  54.6576868 122.8886086
  49.9144375  53.7539198 123.0866296  50.3294248  54.6594019 121.9465564
  49.4293981  50.3905226 120.3872247  48.7363226  50.4649581 119.7312283
  49.1845733  49.6265569 120.9093764  55.9041106  61.1259821 119.3536764
  55.3315073  61.7450008 118.9007236  56.4773899  61.6759183 119.8876686
  59.1238366  61.4096971 120.4845346  60.0569039  61.3442533 120.6878222
  59.0361578  62.2453238 120.0259879  61.7526382  60.7262841 117.4449294
  61.6740014  60.3922705 118.3385052  62.5736049  61.2184609 117.4440766
  64.4504573  53.5924581 130.6525613  64.4180894  52.6540581 130.8385296
  65.0605197  53.6708617 129.9191437  56.2887904  52.4620634 116.6952817
  57.2347009  52.3326842 116.7641235  55.9102149  51.7235296 117.1722245
  70.2681123  54.6540588 129.7931649  70.9984512  54.3925876 130.3539353
  69.6588069  53.9169310 129.8333717  68.3496420  52.7948450 130.3906101
  67.6229584  52.6604415 129.7822592  67.9343707  53.1025279 131.1962819
  54.4730821  50.3870610 116.6307702  53.5662277  50.0903723 116.7070415
  54.7506802  50.0900428 115.7641988  56.0892887  44.9307500 122.7851943
  55.2793615  44.5854585 123.1607189  56.7777304  44.6215044 123.3739555
  53.2429606  47.2457545 116.7719681  54.1048770  47.5712444 117.0315498
  53.4279950  46.4589041 116.2592747  61.3962243  46.1186072 123.9154904
  60.8160912  46.7770876 123.5332956  61.1298175  45.2963416 123.5042321
  60.1787121  48.2786162 122.9711252  59.2912976  48.5635813 122.7531447
  60.5941110  48.1179926 122.1238529  63.5301657  48.3032683 126.6865591
  64.3062047  48.7929136 126.9590208  62.8049791  48.7290737 127.1437461
  65.9674215  49.0160302 127.7439532  66.5618706  48.7756038 127.0332840
  66.0400799  48.2967433 128.3713068  48.1871371  62.8593913 128.0582697
  48.0525839  62.0994314 127.4920695  47.7703433  63.5834813 127.5911486
  59.3230334  58.0430837 117.0659272  60.0266184  58.2480839 117.6816928
  58.5992983  58.6107599 117.3308356  60.1528144  53.7940698 123.1861542
  60.0963346  54.2509250 122.3469175  60.7056487  53.0331383 123.0084385
  63.9632950  49.5830430 124.0111662  63.7069884  49.1827066 124.8419870
  63.3385818  50.2974224 123.8861801  68.2745288  52.3226503 126.5182953
  67.7144846  52.3919693 127.2914515  67.6688791  52.1467488 125.7982450
  51.3440497  63.7563230 128.2701140  51.2272881  64.7008663 128.1679830
  50.5232943  63.4536792 128.6586939  61.2317031  58.4813366 119.1157732
  62.0662635  58.0494565 118.9335207  61.0701374  58.3095380 120.0434627
  60.8862924  54.9845479 120.4814072  60.8311727  54.8189751 119.5402516
  60.2608979  55.6921512 120.6376261  54.1959049  44.4853588 120.0599390
  54.1837719  45.4295428 120.2167661  55.0882471  44.3023734 119.7658851
  52.3695011  64.4091492 131.4857068  53.2722258  64.4415102 131.8023563
  52.1432381  63.4791943 131.5003404  54.1248613  63.1622479 128.1467147
  53.1744244  63.1624340 128.0331519  54.4281099  62.4155213 127.6303181
  66.6691013  68.9510445 129.1474434  66.3309524  68.8351510 128.2594969
  67.5380781  68.5501610 129.1275440  62.5277828  70.8045922 125.1371325
  61.9642694  70.7135859 124.3687612  62.4130224  69.9845826 125.6173817
  60.0742260  72.2997113 127.9755545  60.8663552  71.9587938 127.5601844
  60.3138911  72.4092088 128.8957698  68.1077387  74.4716889 120.4485790
  67.4565367  75.0570970 120.0619803  68.9021750  75.0023084 120.5080827
  62.0333014  71.5606027 120.8472924  62.8063890  71.0135014 120.7085800
  62.3858413  72.4250276 121.0587385  64.3699292  67.7198693 118.4791374
  64.6224813  67.1980214 117.7174837  63.4323851  67.5564838 118.5818057
  69.4142575  66.7234471 126.2866117  70.2005664  66.3053894 125.9356534
  69.6781279  67.6280563 126.4547765  69.5852652  72.1607321 120.9854774
  68.9498485  72.2341948 121.6975679  69.2550059  72.7500920 120.3073853
  74.8151002  66.6609704 127.1899096  75.5476174  66.0908921 127.4236925
  74.0590358  66.2731305 127.6305601  64.0895581  69.6226799 120.6815749
  63.9731839  68.9471702 121.3496833  64.1997841  69.1359173 119.8647902
  66.4327122  69.0836946 124.3862438  66.0685329  68.5567567 125.0975360
  67.2894238  68.6935415 124.2128923  72.3376422  60.3731278 131.6493704
  72.0059747  61.2426689 131.4254919  71.7422036  60.0567562 132.3287735
  66.0732609  64.1126845 119.3823787  66.2407011  64.9807082 119.7494258
  65.8829778  64.2754127 118.4585076  62.2820423  69.0257621 127.0826321
  61.3570920  68.8933835 127.2904013  62.5304837  69.8051840 127.5796264
  66.0521830  66.5684503 120.3670453  65.9321455  67.0141554 121.2055934
  65.3574418  66.9169821 119.8083992  59.6429235  68.6690895 127.9170110
  59.7721616  68.9225374 128.8309522  58.9626686  69.2618603 127.5974765
  63.8128722  79.3388145 124.0160585  63.7352752  80.2895970 124.0949065
  63.2090365  78.9934017 124.6735511  71.7506896  67.0405976 121.1950787
  72.6624752  67.2733363 121.0198485  71.2416543  67.6243020 120.6325866
  69.0942871  63.2164012 129.4440648  68.2327350  63.5145266 129.7357386
  69.1205305  63.4334411 128.5121681  65.9104440  71.7606203 125.8514454
  66.3742786  72.0393906 125.0619076  65.6461238  70.8589647 125.6687545
  62.8028521  71.3077684 128.7894217  63.3729878  71.7364953 128.1511702
  63.3936633  71.0260269 129.4878403  64.8473326  67.8829355 122.6604019
  65.5497369  68.3350399 123.1277945  64.5153955  67.2413174 123.2883912
  58.5898660  66.1412908 127.9621153  57.7997714  66.3970436 127.4861263
  59.0809907  66.9561246 128.0673193  60.5413405  66.5057487 124.9204629
  59.7444569  66.6176181 125.4388125  60.3138998  66.8444139 124.0545520
  56.8736363  66.3943398 130.3936143  57.1244401  67.2790408 130.6593719
  57.4095911  66.2148000 129.6211235  66.0867091  74.6970298 122.7366124
  65.9512766  75.5421833 123.1650972  66.6276903  74.8989575 121.9732058
  59.5396488  72.2145736 123.3094049  60.0521009  73.0088986 123.4599614
  60.1919201  71.5172026 123.2427651  61.3491373  75.3311492 125.3916803
  61.5258001  76.2529457 125.2037786  62.1448206  75.0169911 125.8211182
  69.4359554  58.2200859 131.2665018  69.0923824  59.1102501 131.1904128
  69.8038517  58.0302517 130.4034603  57.5045405  70.5434390 124.0853620
  58.3420627  70.9531398 123.8687328  57.6823673  69.6033832 124.0553814
  69.4009837  68.2109471 119.7737453  68.8856460  68.9814075 120.0125840
  69.1287145  67.5374607 120.3970514  66.9856948  63.0559171 124.8322691
  66.1298544  62.6666022 124.6528330  67.3983900  63.1351132 123.9722477
  68.5156095  60.5905515 129.2314251  68.0120890  60.5535650 128.4182056
  68.8086702  61.4998257 129.2910908  64.7598981  60.6744244 128.2380433
  65.6251977  60.4787053 127.8786322  64.8276489  60.4454596 129.1649790
  74.3744111  70.9641825 121.7090626  73.5973554  70.6252985 121.2645788
  75.0535592  70.9694448 121.0345591  69.1896140  66.0836563 121.5997234
  68.8846276  66.3982712 122.4507377  70.1426582  66.1617983 121.6424567
  67.6342572  72.2426786 123.2490188  67.1063934  71.5079546 122.9363426
  67.1330075  73.0201462 123.0030156  62.3661300  62.9046452 125.6096800
  62.9405052  62.6821634 124.8769993  62.9532282  62.9735147 126.3625401
  71.4240877  68.7920179 126.4161176  71.9372759  69.4250171 126.9182886
  72.0742101  68.1921375 126.0504536  62.6930887  64.9350913 119.6292685
  61.8568199  65.2725600 119.9501960  62.5535656  64.7999893 118.6919822
  64.6683967  59.7787701 124.3371869  64.0148380  59.4636718 123.7128484
  64.6264441  59.1563442 125.0631692  65.7795172  70.0606996 116.2525161
  64.8722234  69.8296250 116.4516310  66.2766204  69.2644616 116.4399143
  68.6863251  78.7704503 119.1721847  68.0124950  79.0736200 119.7806805
  69.0729073  79.5733584 118.8227304  67.9021708  66.2669635 128.6619517
  66.9844269  66.4884582 128.5041205  68.3181851  66.3415945 127.8031224
  68.6856755  67.6661050 123.7922197  69.4328574  68.1782448 123.4829319
  68.9548345  67.3445103 124.6526590  66.9583406  70.1619591 120.7749151
  66.0494625  69.8778624 120.8721621  66.9878489  70.5818670 119.9152458
  71.1335593  64.7018167 125.7740986  70.3958349  64.1895553 126.1051229
  71.3862366  64.2618548 124.9624263  71.2347220  57.4794419 126.3682755
  71.5406097  56.6191782 126.0808671  71.9599825  58.0712039 126.1681749
  57.5271576  67.8825105 124.7564353  57.3295976  67.2894466 124.0315420
  56.9718240  67.5777315 125.4740292  65.5068300  67.7748212 126.8758947
  65.5616909  66.8222048 126.8001423  64.6959502  67.9307651 127.3600245
  66.6559493  71.7028335 118.1137230  66.2178923  70.9864194 117.6542867
  67.3969934  71.9304450 117.5522321  63.4460660  66.3925271 124.6349325
  62.6328525  66.6919442 125.0414518  63.9419654  65.9980960 125.3523808
  74.7732608  69.9785532 124.1713548  74.6350507  70.1687128 123.2434738
  74.4168827  70.7404915 124.6281599  62.9374734  63.9643627 130.2510560
  63.5774114  63.8232386 129.5533524  62.1052265  63.6778140 129.8749162
  63.7135038  73.2646057 126.3645553  64.5075637  72.7696378 126.1628128
  63.0026731  72.7363921 126.0013258  60.0217802  67.4089139 122.4405306
  59.0915390  67.3473595 122.6575268  60.1175274  66.8865092 121.6441947
  59.9403351  63.9343952 125.0283547  60.2010168  64.8489285 124.9192708
  60.7620523  63.4668395 125.1780160  61.4128276  65.3481709 132.1982372
  62.0851330  65.1399071 131.5495021  60.5858063  65.1503795 131.7587604
  66.8854466  78.9384176 121.3868926  67.0606222  78.4672219 122.2014549
  66.1987254  79.5649942 121.6150187  70.7770721  70.5612716 117.7069287
  70.1599892  69.8359545 117.6102340  70.3087210  71.3222077 117.3636362
  62.5669267  64.7798141 116.8290592  61.6898733  64.6586942 116.4652838
  63.0427020  63.9884219 116.5769480  54.0871407  69.5675300 126.9232099
  54.7742447  69.2537031 126.3353114  53.9319536  70.4716665 126.6499350
  58.8906129  64.4565497 131.3517122  58.8064318  63.8491167 130.6167532
  58.0688836  64.9474515 131.3526619  65.7533193  77.1324431 124.0753112
  64.9700715  77.6746111 124.1691337  66.4525938  77.6498411 124.4747353
  69.0629843  62.9419061 126.7187318  69.5598543  62.1889023 126.3988388
  68.2916825  62.9783377 126.1530527  70.1459624  71.6990748 124.2925741
  69.2115903  71.8192210 124.1230445  70.3236292  70.7963215 124.0285751
  65.6464812  65.0836444 126.4459002  65.2762599  64.5307484 127.1339908
  66.1423904  64.4794577 125.8934002  73.5332175  67.5408067 124.8275775
  73.9992627  68.3736059 124.7536078  73.9839676  67.0753049 125.5321034
  71.6008406  73.8851888 121.8261927  71.8768250  73.7708483 122.7355801
  70.7312905  73.4869373 121.7874100  71.5048838  59.9088654 128.8666676
  70.5911918  60.1392881 129.0348883  71.9341939  59.9927098 129.7180709
  68.5704636  77.0606424 122.7309789  69.0992402  76.5498879 122.1179951
  68.8332855  76.7448955 123.5955322  53.6639383  67.6475894 129.1949566
  53.7023483  67.1139485 129.9886684  53.1579676  67.1211099 128.5760543
  61.0430146  62.4940434 132.6912108  61.1071472  63.3555265 132.2789506
  60.9797266  61.8814436 131.9584467  57.2947961  66.3739996 122.2703497
  57.5901402  65.4650674 122.2170551  56.3935997  66.3527735 121.9484500
  60.8242208  64.4495993 128.2531046  60.1028794  65.0631960 128.1138519
  61.6135464  64.9853757 128.1747692  59.0235802  64.0554094 122.3942822
  58.6948509  63.1751473 122.2117928  59.3775173  64.0001762 123.2819212
  62.1377626  64.3427063 122.7618300  62.4773698  64.8712985 122.0396908
  62.5849746  64.6807470 123.5376867  64.8321066  62.7264114 132.2121368
  64.4917887  61.9271927 132.6142048  64.1260073  63.0265825 131.6398201
  65.4837538  59.8113427 130.6648691  66.3063608  59.3373905 130.5427582
  65.7275602  60.5903910 131.1647378  64.1245773  62.8401685 120.9611593
  64.8454135  63.2182938 120.4575310  63.5011077  63.5590562 121.0646571
  68.2676896  63.5446834 121.8969925  68.4840510  64.4271472 121.5958753
  67.7870963  63.1533047 121.1675567  63.0076117  66.5032547 128.4740670
  62.8620698  66.8172850 129.3664951  62.5301321  67.1217448 127.9211568
  64.8672500  63.4935095 128.5221559  64.8534069  62.5976189 128.1853857
  65.5844928  63.5005759 129.1559845  66.7198631  63.9272435 130.5674687
  66.4616408  64.8489506 130.5659017  66.1883671  63.5302870 131.2575151
  57.4821779  69.0437892 131.4128331  56.9375247  69.8197700 131.5448605
  58.3601129  69.3908696 131.2547452  64.2709396  62.3749476 123.7909130
  64.3925307  61.4466122 123.9900017  63.9811438  62.3888161 122.8787445
  67.1400586  60.0604386 126.9275849  67.1622283  60.1243719 125.9727829
  67.5568645  59.2208895 127.1216356  72.6519992  76.3489987 120.4461670
  73.3470896  76.9696680 120.6648985  72.9943142  75.4985338 120.7214048
  74.5511415  73.7989692 121.9749001  75.0762739  74.1376965 121.2498321
  74.4633767  72.8636708 121.7912136  58.7144415  76.0573217 126.3368882
  59.5402435  75.7576988 125.9567526  58.3638467  75.2880839 126.7858671
  56.9153020  73.9759543 127.2957816  56.0784928  73.5481717 127.1141817
  56.8876665  74.1691986 128.2328607  63.2439455  73.9603608 121.8825017
  63.3927575  74.6439073 121.2291689  64.0505898  73.9408698 122.3974472
  60.9992088  69.9868786 122.8886086  60.7538130  69.0831116 123.0866296
  61.1688002  69.9885936 121.9465564  68.6888798  60.8592462 132.2710841
  69.2070741  61.5953489 131.9457330  68.3343930  61.1656456 133.1057600
  60.2687735  65.7197143 120.3872247  59.5756980  65.7941498 119.7312283
  60.0239487  64.9557487 120.9093764  68.9401392  57.2792745 127.7911738
  69.2203146  56.6115934 128.4172164  69.7251999  57.4721840 127.2786402
  66.7434860  76.4551739 119.3536764  66.1708827  77.0741926 118.9007236
  67.3167654  77.0051100 119.8876686  69.9632120  76.7388889 120.4845346
  70.8962793  76.6734450 120.6878222  69.8755333  77.5745156 120.0259879
  72.5920137  76.0554759 117.4449294  72.5133768  75.7214623 118.3385052
  73.4129804  76.5476527 117.4440766  67.1281659  67.7912551 116.6952817
  68.0740763  67.6618760 116.7641235  66.7495904  67.0527213 117.1722245
  73.1003543  59.4568557 126.6579708  72.9028364  59.1483646 127.5423040
  73.7103249  60.1830196 126.7877638  65.3124576  65.7162528 116.6307702
  64.4056031  65.4195640 116.7070415  65.5900557  65.4192346 115.7641988
  56.2302516  67.0368891 127.0806748  55.9105301  66.1834199 126.7881122
  55.6835944  67.2517469 127.8364716  60.0082424  69.7531332 130.7976255
  60.2268434  70.6848440 130.8164289  60.4208198  69.3939307 131.5831059
  66.9286642  60.2599417 122.7851943  66.1187370  59.9146502 123.1607189
  67.6171059  59.9506961 123.3739555  68.8577190  59.3377464 124.4076240
  69.4108229  59.7572918 125.0666263  69.0947276  58.4113212 124.4499196
  64.0823361  62.5749463 116.7719681  64.9442525  62.9004361 117.0315498
  64.2673705  61.7880959 116.2592747  56.0990776  70.6571803 129.0499870
  55.4054248  70.2425755 128.5369824  56.8463767  70.6992339 128.4533289
  72.2355997  61.4477989 123.9154904  71.6554666  62.1062793 123.5332956
  71.9691930  60.6255334 123.5042321  70.6859563  60.8483047 126.1176224
  71.1859342  60.9599582 125.3090543  71.3295171  60.5444100 126.7577033
  58.0127519  70.5890056 126.9265885  57.9898207  70.6877744 125.9747768
  58.3228155  71.4355207 127.2483051  71.0180875  63.6078080 122.9711252
  70.1306730  63.8927730 122.7531447  71.4334864  63.4471843 122.1238529
  74.3695411  63.6324601 126.6865591  75.1455801  64.1221053 126.9590208
  73.6443545  64.0582655 127.1437461  76.8067970  64.3452220 127.7439532
  77.4012461  64.1047956 127.0332840  76.8794554  63.6259351 128.3713068
  70.1624089  73.3722755 117.0659272  70.8659939  73.5772757 117.6816928
  69.4386737  73.9399516 117.3308356  70.9921899  69.1232616 123.1861542
  70.9357100  69.5801167 122.3469175  71.5450241  68.3623300 123.0084385
  74.8026705  64.9122348 124.0111662  74.5463639  64.5118983 124.8419870
  74.1779573  65.6266142 123.8861801  72.0710786  73.8105284 119.1157732
  72.9056390  73.3786482 118.9335207  71.9095129  73.6387297 120.0434627
  71.7256678  70.3137397 120.4814072  71.6705482  70.1481668 119.5402516
  71.1002733  71.0213430 120.6376261  56.5149193  65.5505461 134.3075494
  57.1608057  65.0404415 134.7962719  56.3066344  66.2874143 134.8818919
  65.0352804  59.8145506 120.0599390  65.0231473  60.7587346 120.2167661
  65.9276225  59.6315651 119.7658851  68.8504923  56.4088283 124.3145327
  68.0837319  55.8546769 124.4602009  69.2615628  56.4810151 125.1759478
  73.5324641  80.2642831 119.6292685  72.6961954  80.6017518 119.9501960
  73.3929411  80.1291811 118.6919822  73.4063021  80.1090058 116.8290592
  72.5292488  79.9878859 116.4652838  73.8820775  79.3176137 116.5769480
  71.1081490  81.0489061 120.3872247  70.4150735  81.1233416 119.7312283
  70.8633242  80.2849405 120.9093764  76.1518330  81.0454445 116.6307702
  75.2449786  80.7487558 116.7070415  76.4294311  80.7484264 115.7641988
  74.9217115  77.9041381 116.7719681  75.7836279  78.2296279 117.0315498
  75.1067459  77.1172877 116.2592747  75.8746558  75.1437424 120.0599390
  75.8625228  76.0879264 120.2167661  76.7669980  74.9607569 119.7658851
  47.0075743  25.1182791 105.8967154  46.3337442  25.4214487 106.5052112
  47.3941565  25.9211871 105.5472611  49.0983213  16.9091004 104.4314594
  48.4812384  16.1837832 104.3347647  48.6299702  17.6700364 104.0881668
  50.9732484  22.6968274 107.1706977  51.6683389  23.3174967 107.3894292
  51.3155634  21.8463625 107.4459355  45.0647353  22.8030026 106.0782071
  44.4921320  23.4220213 105.6252543  45.6380146  23.3529388 106.6121993
  48.2844612  23.0867176 107.2090653  49.2175285  23.0212738 107.4123528
  48.1967825  23.9223443 106.7505186  50.9132629  22.4033046 104.1694601
  50.8346261  22.0692910 105.0630358  51.7342296  22.8954814 104.1686073
  48.4836581  19.7201042 103.7904579  49.1872431  19.9251044 104.4062234
  47.7599230  20.2877804 104.0553662  50.3923278  20.1583571 105.8403039
  51.2268882  19.7264769 105.6580514  50.2307621  19.9865585 106.7679933
  59.0207553  30.6753222 115.9358216  59.6585963  30.5559969 115.2321556
  58.9028396  31.6234066 115.9946168  55.8297260  30.6280650 115.8719740
  55.4915771  30.5121715 114.9840275  56.6987028  30.2271815 115.8520746
  51.6884075  32.4816127 111.8616631  51.1248940  32.3906064 111.0932919
  51.5736470  31.6616031 112.3419124  57.2683634  36.1487094 107.1731096
  56.6171614  36.7341175 106.7865110  58.0627997  36.6793289 107.2326134
  51.1939261  33.2376231 107.5718231  51.9670137  32.6905219 107.4331106
  51.5464660  34.1020481 107.7832692  53.5305539  29.3968898 105.2036680
  53.7831060  28.8750419 104.4420143  52.5930098  29.2335043 105.3063364
  58.5748822  28.4004676 113.0111424  59.3611911  27.9824099 112.6601841
  58.8387526  29.3050768 113.1793072  58.7458899  33.8377526 107.7100081
  58.1104732  33.9112153 108.4220985  58.4156306  34.4271125 107.0319160
  63.9757249  28.3379909 113.9144402  64.7082421  27.7679126 114.1482232
  63.2196605  27.9501510 114.3550908  53.2501828  31.2997004 107.4061055
  53.1338086  30.6241907 108.0742140  53.3604088  30.8129377 106.5893208
  55.5933369  30.7607151 111.1107745  55.2291576  30.2337772 111.8220666
  56.4500485  30.3705620 110.9374230  55.2338856  25.7897050 106.1069093
  55.4013258  26.6577287 106.4739564  55.0436025  25.9524332 105.1830382
  57.9914189  34.2514029 117.7734924  57.6914912  35.1539068 117.6650731
  57.6465248  33.9846212 118.6256076  61.3911333  26.7696569 115.4532361
  60.4828210  26.7011978 115.1591122  61.3398928  27.2468514 116.2814186
  55.2128076  28.2454708 107.0915760  55.0927702  28.6911759 107.9301240
  54.5180665  28.5940025 106.5329298  52.9734969  41.0158350 110.7405891
  52.8958998  41.9666175 110.8194372  52.3696612  40.6704222 111.3980818
  60.9113143  28.7176181 107.9196094  61.8230999  28.9503568 107.7443792
  60.4022790  29.3013225 107.3571173  59.5182725  33.7001999 115.3109676
  58.8891587  33.8647714 114.6085743  59.1308387  34.1143609 116.0820640
  63.3971957  34.6356437 112.6654039  62.7122995  35.0155339 112.1151073
  63.4815806  35.2451764 113.3985987  55.0710687  33.4376408 112.5759761
  55.5349032  33.7164111 111.7864383  54.8067485  32.5359852 112.3932851
  54.0079573  29.5599560 109.3849326  54.7103616  30.0120604 109.8523252
  53.6760201  28.9183379 110.0129219  61.7668716  35.1588352 117.4371740
  62.5886160  34.7568539 117.1554422  61.7631119  35.0556586 118.3887856
  69.8574709  31.5027100 113.7856712  69.1038418  30.9334498 113.6300716
  69.9922251  31.4689765 114.7327346  55.2473337  36.3740503 109.4611431
  55.1119012  37.2192038 109.8896279  55.7883150  36.5759780 108.6977365
  48.7002735  33.8915941 110.0339356  49.2127255  34.6859191 110.1844921
  49.3525448  33.1942231 109.9672958  50.5097620  37.0081697 112.1162109
  50.6864248  37.9299662 111.9283093  51.3054453  36.6940116 112.5456489
  51.6328935  38.5259871 118.1172452  52.1836360  38.3976934 117.3449446
  50.7940411  38.8254760 117.7667344  46.6651652  32.2204595 110.8098927
  47.5026874  32.6301603 110.5932634  46.8429919  31.2804037 110.7799120
  58.5616084  29.8879676 106.4982760  58.0462707  30.6584280 106.7371147
  58.2893392  29.2144812 107.1215821  56.1463195  24.7329376 111.5567998
  55.2904791  24.3436227 111.3773637  56.5590147  24.8121337 110.6967783
  63.5350358  32.6412030 108.4335933  62.7579801  32.3023190 107.9891095
  64.2141839  32.6464653 107.7590898  58.3502387  27.7606768 108.3242541
  58.0452523  28.0752917 109.1752684  59.3032829  27.8388188 108.3669874
  56.7948819  33.9196991 109.9735495  56.2670180  33.1849751 109.6608732
  56.2936322  34.6971667 109.7275463  61.7741665  32.1146011 115.0902541
  61.1165339  32.8045273 115.1782670  62.5782064  32.5042443 115.4336527
  60.5847124  30.4690384 113.1406483  61.0979005  31.1020376 113.6428192
  61.2348348  29.8691580 112.7749843  51.8537134  26.6121118 106.3537991
  51.0174446  26.9495805 106.6747266  51.7141903  26.4770098 105.4165128
  54.9401419  31.7377201 102.9770468  54.0328481  31.5066455 103.1761617
  55.4372451  30.9414820 103.1644449  57.8469498  40.4474708 105.8967154
  57.1731197  40.7506405 106.5052112  58.2335320  41.2503789 105.5472611
  57.8463002  29.3431255 110.5167504  58.5934821  29.8552653 110.2074626
  58.1154592  29.0215308 111.3771897  56.1189652  31.8389796 107.4994458
  55.2100872  31.5548829 107.5966928  56.1484736  32.2588875 106.6397765
  61.3508920  35.4496386 111.2685625  60.8971247  34.6087295 111.3250816
  60.7202887  36.0857784 111.6060406  60.2941839  26.3788372 112.4986293
  59.5564596  25.8665758 112.8296535  60.5468613  25.9388753 111.6869570
  59.7941859  37.2872882 112.2035444  60.0864833  37.8477939 111.4847809
  60.3040480  37.5801443 112.9588603  54.6674546  29.4518417 113.6004253
  54.7223156  28.4992253 113.5246730  53.8565748  29.6077856 114.0845552
  55.8165740  33.3798540 104.8382536  55.3785170  32.6634399 104.3788174
  56.5576181  33.6074655 104.2767628  52.6066906  28.0695476 111.3594632
  51.7934772  28.3689647 111.7659824  53.1025901  27.6751165 112.0769114
  54.7575484  38.0653233 113.2928897  54.7151663  38.2914080 112.3637429
  55.6738183  37.8316608 113.4414698  63.9338855  31.6555737 110.8958855
  63.7956754  31.8457333 109.9680044  63.5775074  32.4175120 111.3526906
  63.9608235  33.7232264 115.9070126  64.3944741  33.6307553 116.7553181
  64.6739815  33.6989764 115.2690142  52.8741285  34.9416262 113.0890859
  53.6681884  34.4466582 112.8873434  52.1632977  34.4134125 112.7258565
  57.6936130  37.3234358 117.4403227  57.7473152  37.8925294 118.2080943
  56.8250911  37.4936243 117.0757264  49.1824049  29.0859344 109.1650612
  48.2521637  29.0243800 109.3820574  49.2781521  28.5635297 108.3687253
  64.8223784  33.7655964 118.4403012  65.0159674  34.6701775 118.6862287
  64.7224402  33.3063384 119.2741597  55.4512561  35.5145284 116.7688697
  55.3123647  35.1464069 117.6414635  54.6627157  36.0292924 116.5972654
  56.0460713  40.6154381 108.1114233  56.2212469  40.1442424 108.9259856
  55.3593501  41.2420147 108.3395494  57.0017776  34.8926887 114.1577534
  56.6667609  34.8527657 115.0535184  56.5021722  34.2271603 113.6847945
  59.9376968  32.2382921 104.4314594  59.3206138  31.5129750 104.3347647
  59.4693456  32.9992282 104.0881668  50.6121798  43.7643744 114.8854093
  50.8518397  44.3962268 115.5633112  49.7690995  43.4131784 115.1719453
  51.7275514  26.4568346 103.5535898  50.8504980  26.3357146 103.1898145
  52.2033267  25.6654424 103.3014787  55.1249660  39.5722866 117.2895597
  55.0519832  40.3777838 117.8014902  54.6827053  39.7714832 116.4643619
  54.9139440  38.8094636 110.7998419  54.1306962  39.3516316 110.8936643
  55.6132185  39.3268616 111.1992660  58.2236090  24.6189266 113.4432624
  58.7204789  23.8659228 113.1233694  57.4523071  24.6553582 112.8775833
  66.0765847  30.3229631 115.0850916  66.0655724  31.2054346 114.7144849
  65.2083227  29.9701182 114.8905453  57.5848344  39.4709700 119.4453756
  58.2976316  40.1057165 119.3729657  57.0938372  39.5673566 118.6293758
  59.3065871  33.3760953 111.0171048  58.3722149  33.4962415 110.8475752
  59.4842539  32.4733419 110.7531057  62.6938422  29.2178272 111.5521082
  63.1598874  30.0506264 111.4781384  63.1445922  28.7523254 112.2566340
  60.7614653  35.5622093 108.5507234  61.0374497  35.4478688 109.4601108
  59.8919152  35.1639578 108.5119407  57.3968717  39.8108444 112.1940047
  57.5791112  38.9930100 112.6567800  58.2201703  40.0276136 111.7564937
  57.7310883  38.7376629 109.4555096  58.2598649  38.2269084 108.8425258
  57.9939102  38.4219159 110.3200629  51.0866630  39.7891746 112.2152872
  50.4177006  40.2737874 111.7316912  50.9479500  40.0360966 113.1296250
  55.2271899  41.8235489 118.8135530  55.7790207  41.9867111 119.5784615
  55.5678093  42.4139927 118.1415555  46.4554208  28.0510201 108.9948804
  46.7507649  27.1420879 108.9415858  45.5542243  28.0297940 108.6729806
  58.3640286  39.7717465 115.7999212  58.2391426  38.9707205 115.2910158
  59.0219377  40.2663658 115.3113182  60.4275195  37.5726485 117.4278762
  59.4805530  37.4531836 117.3557089  60.7757968  36.6848983 117.5105024
  48.1842049  25.7324299 109.1188129  47.8554755  24.8521677 108.9363235
  48.5381420  25.6771967 110.0064518  57.4321628  37.3679201 113.6283115
  57.2846590  36.4395909 113.8090685  58.2575122  37.3899292 113.1440190
  51.2983872  26.0197268 109.4863607  51.6379945  26.5483190 108.7642215
  51.7455993  26.3577674 110.2622173  61.0355750  38.1907760 114.7147987
  61.9602297  37.9850621 114.5772439  60.8671053  37.9424161 115.6237329
  53.2852019  24.5171890 107.6856900  54.0060382  24.8953143 107.1820616
  52.6617324  25.2360767 107.7891877  57.4283142  25.2217039 108.6215232
  57.6446757  26.1041677 108.3204060  56.9477210  24.8303252 107.8920874
  60.8251066  38.7093427 110.0710079  60.9987944  38.1439850 109.3183931
  61.3179957  39.5094322 109.8889569  53.4315643  24.0519680 110.5154436
  53.5531554  23.1236327 110.7145324  53.1417685  24.0658366 109.6032752
  66.6790457  31.4729850 111.6900379  67.1221603  30.7237176 111.2919502
  65.8016968  31.4639987 111.3074111  61.8126239  38.0260192 107.1706977
  62.5077143  38.6466885 107.3894292  62.1549389  37.1755543 107.4459355
  63.7117662  35.4759897 108.6994308  64.2368986  35.8147170 107.9743628
  63.6240014  34.5406913 108.5157443  55.3958322  41.5431881 113.0589561
  54.9563313  41.0508259 113.7522418  56.1466439  41.0004848 112.8181636
  47.8750661  37.7343422 113.0614189  48.7008681  37.4347193 112.6812833
  47.5244713  36.9651044 113.5103978  52.8432195  37.0869890 115.1311863
  52.2212204  36.4240595 114.8314091  53.5137062  37.1131022 114.4485511
  46.0759266  35.6529748 114.0203123  45.2391175  35.2251922 113.8387124
  46.0482912  35.8462191 114.9573914  52.4045702  35.6373813 108.6070323
  52.5533822  36.3209278 107.9536996  53.2112145  35.6178903 109.1219779
  65.0227640  35.3782209 121.5620256  64.7312448  35.7412189 122.3983717
  64.4099771  34.6649217 121.3833588  66.2223322  32.9435089 114.0822826
  67.0570213  33.3824893 114.2460387  66.3582451  32.4673742 113.2631072
  50.1598334  31.6638991 109.6131392  49.9144376  30.7601321 109.8111602
  50.3294249  31.6656141 108.6710870  49.4293982  27.3967348 107.1117554
  48.7363227  27.4711703 106.4557590  49.1845734  26.6327692 107.6339071
  55.9041107  38.1321944 106.0782071  55.3315074  38.7512131 105.6252543
  56.4773901  38.6821305 106.6121993  59.1238367  38.4159094 107.2090653
  60.0569040  38.3504655 107.4123528  59.0361580  39.2515361 106.7505186
  61.7526383  37.7324964 104.1694601  61.6740015  37.3984828 105.0630358
  62.5736050  38.2246732 104.1686073  64.4504575  30.5986703 117.3770919
  64.4180895  29.6602704 117.5630603  65.0605198  30.6770740 116.6436744
  56.2887906  29.4682756 103.4198123  57.2347010  29.3388964 103.4886541
  55.9102150  28.7297418 103.8967551  70.2681125  31.6602710 116.5176956
  70.9984513  31.3987998 117.0784659  69.6588070  30.9231432 116.5579024
  68.3496422  29.8010573 117.1151407  67.6229585  29.6666538 116.5067899
  67.9343709  30.1087401 117.9208125  54.4730823  27.3932733 103.3553008
  53.5662278  27.0965845 103.4315722  54.7506804  27.0962551 102.4887295
  56.0892888  21.9369622 109.5097250  55.2793617  21.5916707 109.8852496
  56.7777305  21.6277166 110.0984861  53.2429607  24.2519668 103.4964988
  54.1048771  24.5774566 103.7560805  53.4279951  23.4651164 102.9838053
  61.3962244  23.1248194 110.6400211  60.8160913  23.7832998 110.2578263
  61.1298176  22.3025539 110.2287628  60.1787122  25.2848285 109.6956559
  59.2912977  25.5697935 109.4776754  60.5941111  25.1242048 108.8483836
  63.5301658  25.3094806 113.4110898  64.3062048  25.7991258 113.6835515
  62.8049792  25.7352860 113.8682768  65.9674217  26.0222425 114.4684839
  66.5618707  25.7818161 113.7578147  66.0400800  25.3029556 115.0958375
  48.1871372  39.8656036 114.7828004  48.0525840  39.1056437 114.2166002
  47.7703435  40.5896936 114.3156792  59.3230335  35.0492959 103.7904579
  60.0266185  35.2542962 104.4062234  58.5992984  35.6169721 104.0553662
  60.1528146  30.8002821 109.9106849  60.0963347  31.2571372 109.0714481
  60.7056488  30.0393505 109.7329692  63.9632951  26.5892553 110.7356969
  63.7069886  26.1889188 111.5665176  63.3385820  27.3036347 110.6107108
  68.2745289  29.3288626 113.2428260  67.7144847  29.3981815 114.0159822
  67.6688793  29.1529610 112.5227756  51.3440498  40.7625353 114.9946446
  51.2272882  41.7070785 114.8925136  50.5232944  40.4598914 115.3832245
  61.2317033  35.4875489 105.8403039  62.0662637  35.0556687 105.6580514
  61.0701376  35.3157502 106.7679933  60.8862925  31.9907602 107.2059378
  60.8311729  31.8251873 106.2647822  60.2608980  32.6983635 107.3621568
  54.1959050  21.4915711 106.7844697  54.1837720  22.4357551 106.9412967
  55.0882472  21.3085856 106.4904158  52.3695012  41.4153615 118.2102375
  53.2722259  41.4477225 118.5268870  52.1432382  40.4854066 118.2248710
  54.1248614  40.1684601 114.8712453  53.1744245  40.1686463 114.7576826
  54.4281100  39.4217336 114.3548488  69.8601308  46.0045140 115.9358216
  70.4979718  45.8851887 115.2321556  69.7422151  46.9525984 115.9946168
  66.6691014  45.9572568 115.8719740  66.3309526  45.8413633 114.9840275
  67.5380782  45.5563733 115.8520746  62.5277830  47.8108044 111.8616631
  61.9642695  47.7197981 111.0932919  62.4130225  46.9907949 112.3419124
  67.1510797  47.1107420 121.8305946  67.1399438  46.7160218 120.9586450
  67.3131437  46.3773492 122.4239717  60.0742262  49.3059236 114.7000852
  60.8663554  48.9650061 114.2847151  60.3138912  49.4154211 115.6203005
  68.1077388  51.4779012 107.1731096  67.4565368  52.0633092 106.7865110
  68.9021751  52.0085207 107.2326134  62.0333016  48.5668149 107.5718231
  62.8063892  48.0197136 107.4331106  62.3858414  49.4312398 107.7832692
  63.8718058  49.8944531 120.7785130  63.5807924  50.7990162 120.6631796
  64.5075043  49.9361059 121.4929199  64.7974265  47.2721380 117.3686490
  65.3937837  47.0477402 116.6543452  64.8549237  46.5306125 117.9711937
  64.3699293  44.7260815 105.2036680  64.6224814  44.2042337 104.4420143
  63.4323853  44.5626961 105.3063364  69.4142576  43.7296594 113.0111424
  70.2005665  43.3116017 112.6601841  69.6781281  44.6342686 113.1793072
  69.5852654  49.1669444 107.7100081  68.9498487  49.2404070 108.4220985
  69.2550060  49.7563043 107.0319160  74.8151003  43.6671827 113.9144402
  75.5476175  43.0971044 114.1482232  74.0590359  43.2793427 114.3550908
  64.0895582  46.6288921 107.4061055  63.9731840  45.9533825 108.0742140
  64.1997842  46.1421295 106.5893208  66.4327123  46.0899068 111.1107745
  66.0685330  45.5629689 111.8220666  67.2894239  45.6997537 110.9374230
  72.3376424  37.3793401 118.3739011  72.0059749  38.2488812 118.1500226
  71.7422037  37.0629685 119.0533041  66.0732610  41.1188968 106.1069093
  66.2407012  41.9869204 106.4739564  65.8829779  41.2816250 105.1830382
  68.8307943  49.5805947 117.7734924  68.5308666  50.4830986 117.6650731
  68.4859003  49.3138130 118.6256076  62.2820425  46.0319744 113.8071628
  61.3570921  45.8995958 114.0149320  62.5304838  46.8113963 114.3041570
  72.2305087  42.0988487 115.4532361  71.3221964  42.0303896 115.1591122
  72.1792683  42.5760432 116.2814186  66.0521831  43.5746625 107.0915760
  65.9321456  44.0203676 107.9301240  65.3574419  43.9231943 106.5329298
  59.6429236  45.6753017 114.6415417  59.7721617  45.9287496 115.5554829
  58.9626687  46.2680725 114.3220072  63.8128723  56.3450267 110.7405891
  63.7352753  57.2958092 110.8194372  63.2090367  55.9996140 111.3980818
  66.3045953  43.5178133 123.3967258  65.5279287  44.0772053 123.3870123
  66.9436516  44.0034916 123.9182128  74.0966733  40.3004925 117.2310235
  73.4541114  40.5937459 116.5850029  73.5921662  40.1857846 118.0363431
  71.7506897  44.0468099 107.9196094  72.6624753  44.2795485 107.7443792
  71.2416544  44.6305143 107.3571173  64.5592325  46.3263586 122.9585225
  65.3007010  46.8648630 122.6820049  63.8529311  46.9529875 123.1156777
  70.0347665  48.4692726 121.5557387  70.4431021  48.0275137 120.8112019
  69.3124926  47.8945354 121.8091580  66.3878735  43.4065333 118.9290944
  67.2339930  43.8304747 119.0725593  66.3277373  42.7498958 119.6229507
  70.3576479  49.0293917 115.3109676  69.7285342  49.1939631 114.6085743
  69.9702142  49.4435527 116.0820640  74.2365711  49.9648355 112.6654039
  73.5516749  50.3447256 112.1151073  74.3209561  50.5743682 113.3985987
  69.5378180  41.0669702 120.5872117  69.2939112  41.8211762 120.0506393
  69.8138111  41.4455049 121.4219364  71.4916643  47.6108314 119.2649383
  71.7033538  48.2540074 118.5883764  71.4446391  46.7770631 118.7971313
  69.0942872  40.2226135 116.1685955  68.2327351  40.5207388 116.4602693
  69.1205307  40.4396534 115.2366988  65.9104441  48.7668325 112.5759761
  66.3742787  49.0456028 111.7864383  65.6461239  47.8651770 112.3932851
  62.8028522  48.3139807 115.5139524  63.3729879  48.7427075 114.8757008
  63.3936634  48.0322391 116.2123710  64.8473327  44.8891478 109.3849326
  65.5497371  45.3412521 109.8523252  64.5153956  44.2475296 110.0129219
  63.2953689  43.4803234 123.7600535  62.6652349  44.1619515 123.9935932
  63.1889777  43.3686316 122.8153673  58.5898661  43.1475030 114.6866459
  57.7997715  43.4032559 114.2106570  59.0809909  43.9623368 114.7918500
  72.6062471  50.4880269 117.4371740  73.4279915  50.0860457 117.1554422
  72.6024874  50.3848504 118.3887856  60.5413407  43.5119609 111.6449936
  59.7444570  43.6238304 112.1633432  60.3138999  43.8506262 110.7790827
  66.3719074  50.0364313 119.5932451  66.4363507  50.4984720 120.4290622
  65.6629998  49.4061678 119.7214760  56.8736364  43.4005521 117.1181450
  57.1244403  44.2852531 117.3839026  57.4095913  43.2210122 116.3456542
  80.6968464  46.8319018 113.7856712  79.9432172  46.2626416 113.6300716
  80.8316005  46.7981682 114.7327346  66.0867092  51.7032420 109.4611431
  65.9512767  52.5483956 109.8896279  66.6276904  51.9051698 108.6977365
  59.5396489  49.2207858 110.0339356  60.0521010  50.0151108 110.1844921
  60.1919202  48.5234149 109.9672958  61.3491374  52.3373615 112.1162109
  61.5258002  53.2591579 111.9283093  62.1448208  52.0232034 112.5456489
  65.4902393  39.1981879 123.7146043  66.2312106  39.7989032 123.6350505
  65.7220315  38.4559517 123.1564085  60.6343731  44.3838246 121.9924272
  60.5197246  43.4823504 122.2931371  59.7788248  44.6301943 121.6409089
  67.7135568  52.3255987 123.5911773  67.2699423  51.5392365 123.2732678
  68.3752782  52.5135137 122.9255664  62.4722690  53.8551788 118.1172452
  63.0230115  53.7268852 117.3449446  61.6334165  54.1546677 117.7667344
  69.8116806  52.6058787 121.6193174  69.7935282  53.4267668 121.1273443
  70.7336726  52.4812862 121.8443315  66.2689861  50.1202916 122.4616683
  66.8018197  49.3591204 122.2315991  65.7403942  49.8276568 123.2040837
  69.4359556  35.2262982 117.9910324  69.0923825  36.1164624 117.9149435
  69.8038518  35.0364640 117.1279909  57.5045406  47.5496513 110.8098927
  58.3420628  47.9593521 110.5932634  57.6823674  46.6095955 110.7799120
  69.4009838  45.2171593 106.4982760  68.8856462  45.9876198 106.7371147
  69.1287147  44.5436729 107.1215821  66.9856949  40.0621294 111.5567998
  66.1298546  39.6728144 111.3773637  67.3983901  40.1413255 110.6967783
  68.5156096  37.5967637 115.9559558  68.0120892  37.5597772 115.1427363
  68.8086703  38.5060380 116.0156214  64.7598982  37.6806367 114.9625739
  65.6251979  37.4849176 114.6031629  64.8276491  37.4516719 115.8895096
  74.3744112  47.9703948 108.4335933  73.5973555  47.6315107 107.9891095
  75.0535593  47.9756571 107.7590898  69.1896141  43.0898685 108.3242541
  68.8846277  43.4044834 109.1752684  70.1426584  43.1680105 108.3669874
  67.6342573  49.2488909 109.9735495  67.1063935  48.5141668 109.6608732
  67.1330076  50.0263585 109.7275463  72.6135419  47.4437929 115.0902541
  71.9559094  48.1337190 115.1782670  73.4175819  47.8334361 115.4336527
  62.3661301  39.9108575 112.3342106  62.9405053  39.6883756 111.6015299
  62.9532283  39.9797269 113.0870708  71.4240878  45.7982302 113.1406483
  71.9372760  46.4312294 113.6428192  72.0742102  45.1983497 112.7749843
  62.6930888  41.9413036 106.3537991  61.8568200  42.2787722 106.6747266
  62.5535658  41.8062016 105.4165128  64.6683969  36.7849824 111.0617176
  64.0148381  36.4698841 110.4373790  64.6264443  36.1625564 111.7876999
  65.7795173  47.0669119 102.9770468  64.8722235  46.8358372 103.1761617
  66.2766205  46.2706738 103.1644449  68.6863252  55.7766626 105.8967154
  68.0124951  56.0798323 106.5052112  69.0729074  56.5795706 105.5472611
  67.9021709  43.2731757 115.3864823  66.9844270  43.4946704 115.2286511
  68.3181853  43.3478068 114.5276531  68.6856757  44.6723173 110.5167504
  69.4328576  45.1844570 110.2074626  68.9548346  44.3507226 111.3771897
  66.9583407  47.1681714 107.4994458  66.0494626  46.8840747 107.5966928
  66.9878491  47.5880792 106.6397765  72.1902674  50.7788303 111.2685625
  71.7365001  49.9379213 111.3250816  71.5596641  51.4149702 111.6060406
  71.1335594  41.7080289 112.4986293  70.3958351  41.1957675 112.8296535
  71.3862367  41.2680671 111.6869570  70.6335614  52.6164800 112.2035444
  70.9258588  53.1769857 111.4847809  71.1434234  52.9093361 112.9588603
  71.2347221  34.4856541 113.0928062  71.5406098  33.6253905 112.8053977
  71.9599826  35.0774161 112.8927056  57.5271577  44.8887228 111.4809660
  57.3295977  44.2956589 110.7560727  56.9718241  44.5839438 112.1985599
  65.5068301  44.7810334 113.6004253  65.5616911  43.8284171 113.5246730
  64.6959503  44.9369773 114.0845552  66.6559495  48.7090457 104.8382536
  66.2178925  47.9926316 104.3788174  67.3969936  48.9366572 104.2767628
  63.4460661  43.3987394 111.3594632  62.6328526  43.6981565 111.7659824
  63.9419655  43.0043083 112.0769114  65.5969239  53.3945151 113.2928897
  65.5545418  53.6205997 112.3637429  66.5131938  53.1608526 113.4414698
  69.0434873  43.8629219 120.1909526  69.3984260  44.0900692 121.0503992
  69.6907004  44.1947595 119.5686781  74.7732609  46.9847654 110.8958855
  74.6350508  47.1749250 109.9680044  74.4168828  47.7467037 111.3526906
  62.9374736  40.9705750 116.9755867  63.5774115  40.8294509 116.2778830
  62.1052266  40.6840263 116.5994469  74.8001989  49.0524181 115.9070126
  75.2338496  48.9599471 116.7553181  75.5133570  49.0281682 115.2690142
  63.7135040  50.2708180 113.0890859  64.5075638  49.7758500 112.8873434
  63.0026732  49.7426043 112.7258565  68.5329884  52.6526276 117.4403227
  68.5866906  53.2217212 118.2080943  67.6644665  52.8228161 117.0757264
  60.0217803  44.4151262 109.1650612  59.0915391  44.3535717 109.3820574
  60.1175275  43.8927215 108.3687253  59.9403352  40.9406075 111.7528854
  60.2010169  41.8551408 111.6438014  60.7620524  40.4730517 111.9025467
  61.4128277  42.3543832 118.9227678  62.0851331  42.1461194 118.2740327
  60.5858064  42.1565918 118.4832911  75.6617539  49.0947882 118.4403012
  75.8553429  49.9993693 118.6862287  75.5618157  48.6355301 119.2741597
  67.3153849  38.9805773 120.9393339  66.6681764  39.6795722 120.8457816
  68.0854865  39.4141917 121.3069587  70.7232647  49.2454625 124.0143892
  70.5718154  49.0165177 123.0973976  70.7137327  50.2025226 124.0275238
  67.4917984  46.8186538 118.9990159  68.4210044  46.9697697 118.8259126
  67.0709014  46.9070558 118.1438805  66.2906316  50.8437202 116.7688697
  66.1517401  50.4755986 117.6414635  65.5020912  51.3584841 116.5972654
  66.8854468  55.9446298 108.1114233  67.0606223  55.4734342 108.9259856
  66.1987256  56.5712065 108.3395494  67.8411531  50.2218805 114.1577534
  67.5061363  50.1819575 115.0535184  67.3415476  49.5563521 113.6847945
  61.8155775  45.6286435 119.6830116  61.6775573  44.8966674 120.2841655
  62.7260698  45.5395335 119.4014303  70.7770722  47.5674839 104.4314594
  70.1599893  46.8421667 104.3347647  70.3087211  48.3284199 104.0881668
  64.4438075  45.3406394 119.1713795  65.1537694  44.6999586 119.1300414
  64.4007383  45.5919289 120.0939976  72.4324854  52.2773747 122.0920374
  72.3737400  51.5932968 121.4250957  72.8344372  53.0192737 121.6401000
  63.1567009  42.3271612 120.9909435  62.6204366  41.8762350 121.6431031
  62.5683718  42.4617521 120.2479899  61.4515553  59.0935661 114.8854093
  61.6912151  59.7254185 115.5633112  60.6084749  58.7423701 115.1719453
  62.5669268  41.7860263 103.5535898  61.6898735  41.6649064 103.1898145
  63.0427021  40.9946342 103.3014787  72.4342261  50.2413331 120.3234354
  71.5469040  49.9039253 120.4460753  73.0040812  49.5096363 120.5603119
  54.0871408  46.5737423 113.6477405  54.7742448  46.2599153 113.0598421
  53.9319537  47.4778788 113.3744657  58.8906131  41.4627620 118.0762429
  58.8064319  40.8553289 117.3412839  58.0688837  41.9536638 118.0771925
  65.9643415  54.9014784 117.2895597  65.8913586  55.7069755 117.8014902
  65.5220808  55.1006750 116.4643619  65.7533194  54.1386554 110.7998419
  64.9700716  54.6808234 110.8936643  66.4525939  54.6560533 111.1992660
  69.0629844  39.9481183 113.4432624  69.5598544  39.1951146 113.1233694
  68.2916826  39.9845500 112.8775833  76.9159602  45.6521549 115.0850916
  76.9049478  46.5346264 114.7144849  76.0476981  45.2993100 114.8905453
  68.4242098  54.8001618 119.4453756  69.1370070  55.4349083 119.3729657
  67.9332127  54.8965484 118.6293758  70.1459625  48.7052870 111.0171048
  69.2115904  48.8254333 110.8475752  70.3236294  47.8025337 110.7531057
  65.6464813  42.0898566 113.1704309  65.2762601  41.5369607 113.8585214
  66.1423906  41.4856700 112.6179309  73.5332176  44.5470190 111.5521082
  73.9992629  45.3798181 111.4781384  73.9839677  44.0815171 112.2566340
  63.4754012  52.5496061 120.2659327  64.1763471  53.1832544 120.4188721
  63.0049127  52.8910793 119.5054966  71.6008408  50.8914011 108.5507234
  71.8768251  50.7770606 109.4601108  70.7312906  50.4931496 108.5119407
  71.5048839  36.9150777 115.5911983  70.5911919  37.1455004 115.7594190
  71.9341941  36.9989221 116.4426015  71.2755298  45.1040669 118.0911877
  70.6226748  45.3516576 117.4364330  71.6535678  44.2904807 117.7574354
  68.2362472  55.1400362 112.1940047  68.4184866  54.3222018 112.6567800
  69.0595458  55.3568054 111.7564937  68.5704637  54.0668547 109.4555096
  69.0992403  53.5561002 108.8425258  68.8332857  53.7511077 110.3200629
  67.3242871  45.8460480 124.5777914  66.6483508  45.7454609 125.2480289
  68.1470505  45.6899693 125.0413911  59.0721730  52.0832416 117.1990429
  59.6575167  51.3376104 117.3318334  58.8746568  52.3936373 118.0827093
  61.9260385  55.1183664 112.2152872  61.2570760  55.6029791 111.7316912
  61.7873255  55.3652884 113.1296250  53.6639385  44.6538016 115.9194873
  53.7023484  44.1201607 116.7131991  53.1579677  44.1273222 115.3005850
  66.0665654  57.1527407 118.8135530  66.6183962  57.3159029 119.5784615
  66.4071847  57.7431845 118.1415555  61.0430147  39.5002557 119.4157415
  61.1071473  40.3617388 119.0034813  60.9797267  38.8876559 118.6829773
  60.5182419  41.5725689 123.0630449  61.1454458  41.1902767 123.6767973
  59.6610338  41.3539891 123.4286142  70.9176528  51.9788665 124.6684185
  71.4616432  52.5918623 124.1739139  70.3363373  52.5368243 125.1851198
  57.2947962  43.3802119 108.9948804  57.5901403  42.4712797 108.9415858
  56.3935998  43.3589858 108.6729806  69.2034041  55.1009383 115.7999212
  69.0785180  54.2999123 115.2910158  69.8613132  55.5955576 115.3113182
  60.8242209  41.4558115 114.9776353  60.1028795  42.0694083 114.8383826
  61.6135465  41.9915880 114.8992998  71.2668949  52.9018403 117.4278762
  70.3199285  52.7823754 117.3557089  71.6151722  52.0140901 117.5105024
  63.6268523  38.7912542 121.2517004  64.1502924  39.0374838 122.0143314
  63.4080856  39.6232576 120.8320142  59.0235804  41.0616216 109.1188129
  58.6948510  40.1813595 108.9363235  59.3775174  41.0063885 110.0064518
  68.2715383  52.6971119 113.6283115  68.1240345  51.7687826 113.8090685
  69.0968876  52.7191210 113.1440190  62.1377627  41.3489186 109.4863607
  62.4773699  41.8775107 108.7642215  62.5849747  41.6869592 110.2622173
  71.8749504  53.5199678 114.7147987  72.7996052  53.3142539 114.5772439
  71.7064808  53.2716079 115.6237329  64.8321068  39.7326237 118.9366675
  64.4917888  38.9334050 119.3387355  64.1260074  40.0327948 118.3643508
  65.4837539  36.8175549 117.3893998  66.3063609  36.3436027 117.2672888
  65.7275603  37.5966033 117.8892684  64.1245774  39.8463808 107.6856900
  64.8454136  40.2245060 107.1820616  63.5011078  40.5652684 107.7891877
  68.2676897  40.5508957 108.6215232  68.4840511  41.4333594 108.3204060
  67.7870964  40.1595170 107.8920874  63.0076118  43.5094670 115.1985976
  62.8620699  43.8234973 116.0910258  62.5301322  44.1279570 114.6456875
  64.8672501  40.4997218 115.2466866  64.8534070  39.6038311 114.9099164
  65.5844929  40.5067882 115.8805152  66.7198632  40.9334558 117.2919993
  66.4616410  41.8551629 117.2904324  66.1883672  40.5364993 117.9820458
  71.6644821  54.0385345 110.0710079  71.8381698  53.4731768 109.3183931
  72.1573712  54.8386240 109.8889569  57.4821780  46.0500014 118.1373638
  56.9375248  46.8259822 118.2693912  58.3601130  46.3970819 117.9792759
  64.2709397  39.3811598 110.5154436  64.3925308  38.4528244 110.7145324
  63.9811439  39.3950284 109.6032752  67.1400587  37.0666509 113.6521156
  67.1622284  37.1305842 112.6973136  67.5568646  36.2271017 113.8461662
  77.5184212  46.8021768 111.6900379  77.9615358  46.0529093 111.2919502
  76.6410722  46.7931904 111.3074111  72.6519993  53.3552110 107.1706977
  73.3470898  53.9758802 107.3894292  72.9943143  52.5047461 107.4459355
  58.2687802  45.1769911 121.0303795  57.5269538  45.3252546 121.6168425
  57.9480547  45.4378176 120.1670544  74.5511416  50.8051815 108.6994308
  75.0762740  51.1439088 107.9743628  74.4633769  49.8698830 108.5157443
  66.2131465  54.7185889 120.8284185  66.5218591  54.4735035 121.7006884
  67.0106947  54.9232527 120.3403055  66.2352077  56.8723798 113.0589561
  65.7957067  56.3800177 113.7522418  66.9860194  56.3296766 112.8181636
  58.7144416  53.0635339 113.0614189  59.5402436  52.7639111 112.6812833
  58.3638468  52.2942962 113.5103978  63.6825949  52.4161807 115.1311863
  63.0605958  51.7532512 114.8314091  64.3530816  52.4422939 114.4485511
  56.9153021  50.9821666 114.0203123  56.0784929  50.5543840 113.8387124
  56.8876666  51.1754109 114.9573914  63.7550477  40.8943595 124.7244369
  63.8038632  41.7705718 124.3422138  64.2972991  40.3520989 124.1516012
  74.2405322  51.4384719 124.0045506  73.4500866  51.4208858 123.4650005
  74.0038677  51.9773012 124.7594542  74.3603197  48.2877185 121.3178234
  74.4101202  48.1227193 122.2593757  74.2517121  47.4204444 120.9276115
  63.2439456  50.9665731 108.6070323  63.3927576  51.6501195 107.9536996
  64.0505899  50.9470821 109.1219779  71.6506960  44.2708113 122.6337541
  72.5516822  44.1314578 122.3421539  71.7254934  44.4362568 123.5735719
  65.9849765  41.6474968 121.4790727  65.1153074  41.9408534 121.2073316
  66.2209245  42.2315413 122.1997991  75.8621394  50.7074127 121.5620256
  75.5706202  51.0704107 122.3983717  75.2493525  49.9941135 121.3833588
  77.0617076  48.2727006 114.0822826  77.8963968  48.7116810 114.2460387
  77.1976205  47.7965660 113.2631072  74.1108582  45.8306741 120.0300314
  74.5862704  46.0234388 119.2219165  73.1874148  45.8865927 119.7843698
  60.9992089  46.9930908 109.6131392  60.7538131  46.0893238 109.8111602
  61.1688004  46.9948059 108.6710870  68.6888799  37.8654585 118.9956148
  69.2070743  38.6015612 118.6702636  68.3343932  38.1718578 119.8302907
  60.2687737  42.7259266 107.1117554  59.5756981  42.8003621 106.4557590
  60.0239488  41.9619610 107.6339071  68.9401393  34.2854867 114.5157044
  69.2203147  33.6178056 115.1417471  69.7252000  34.4783963 114.0031708
  66.7434862  53.4613861 106.0782071  66.1708829  54.0804048 105.6252543
  67.3167655  54.0113223 106.6121993  72.8110251  42.7072501 118.2628620
  73.7627674  42.8070599 118.2840844  72.6413702  41.9150770 118.7726704
  70.8324631  39.7928085 118.4488020  70.2374563  40.0733097 117.7534509
  70.5474328  40.2821985 119.2204762  69.9632121  53.7451011 107.2090653
  70.8962794  53.6796573 107.4123528  69.8755334  54.5807278 106.7505186
  72.5920138  53.0616882 104.1694601  72.5133770  52.7276745 105.0630358
  73.4129805  53.5538650 104.1686073  75.2898329  45.9278621 117.3770919
  75.2574649  44.9894622 117.5630603  75.8998953  46.0062658 116.6436744
  67.1281660  44.7974674 103.4198123  68.0740765  44.6680882 103.4886541
  66.7495905  44.0589336 103.8967551  75.4392818  42.7189664 117.4229202
  74.9231866  41.9348121 117.2359131  76.3232766  42.3908381 117.5875722
  73.1003545  36.4630680 113.3825015  72.9028366  36.1545768 114.2668347
  73.7103250  37.1892319 113.5122945  81.1074879  46.9894628 116.5176956
  81.8378267  46.7279916 117.0784659  80.4981824  46.2523350 116.5579024
  79.1890176  45.1302490 117.1151407  78.4623340  44.9958455 116.5067899
  78.7737463  45.4379319 117.9208125  67.0120353  48.8492420 124.8798780
  67.9323362  49.0271019 125.0738827  66.9769936  47.9048465 124.7278479
  65.3124577  42.7224650 103.3553008  64.4056033  42.4257763 103.4315722
  65.5900558  42.4254468 102.4887295  56.2302518  44.0431014 113.8052055
  55.9105302  43.1896322 113.5126429  55.6835946  44.2579592 114.5610022
  60.0082425  46.7593455 117.5221561  60.2268435  47.6910563 117.5409595
  60.4208199  46.4001429 118.3076365  66.9286643  37.2661540 109.5097250
  66.1187371  36.9208625 109.8852496  67.6171060  36.9569084 110.0984861
  68.8577191  36.3439587 111.1321546  69.4108230  36.7635040 111.7911569
  69.0947278  35.4175335 111.1744502  64.0823362  39.5811586 103.4964988
  64.9442526  39.9066484 103.7560805  64.2673706  38.7943081 102.9838053
  56.0990778  47.6633925 115.7745176  55.4054249  47.2487878 115.2615131
  56.8463769  47.7054462 115.1778595  72.2355998  38.4540112 110.6400211
  71.6554667  39.1124916 110.2578263  71.9691931  37.6317457 110.2287628
  70.6859565  37.8545170 112.8421531  71.1859343  37.9661704 112.0335850
  71.3295173  37.5506223 113.4822339  64.7441560  45.7623799 125.7289372
  64.2608642  46.5624159 125.9353261  64.8302500  45.7731744 124.7756816
  58.0127520  47.5952179 113.6511191  57.9898208  47.6939866 112.6993074
  58.3228157  48.4417330 113.9728357  60.6714898  49.6528334 117.7657806
  61.6258152  49.6212276 117.6987737  60.4727422  49.1918958 118.5808032
  61.2614280  48.2229450 120.3328603  62.0807169  48.7173529 120.3563441
  61.5351088  47.3061418 120.3046171  71.0180876  40.6140202 109.6956559
  70.1306731  40.8989853 109.4776754  71.4334865  40.4533966 108.8483836
  74.3695412  40.6386723 113.4110898  75.1455803  41.1283176 113.6835515
  73.6443547  41.0644778 113.8682768  76.8067971  41.3514343 114.4684839
  77.4012462  41.1110079 113.7578147  76.8794555  40.6321473 115.0958375
  59.0265127  55.1947954 114.7828004  58.8919595  54.4348354 114.2166002
  58.6097189  55.9188853 114.3156792  70.1624090  50.3784877 103.7904579
  70.8659940  50.5834880 104.4062234  69.4386739  50.9461639 104.0553662
  70.9921900  46.1294738 109.9106849  70.9357101  46.5863290 109.0714481
  71.5450243  45.3685423 109.7329692  74.8026706  41.9184470 110.7356969
  74.5463640  41.5181106 111.5665176  74.1779574  42.6328264 110.6107108
  79.1139044  44.6580543 113.2428260  78.5538602  44.7273733 114.0159822
  78.5082547  44.4821528 112.5227756  62.1834253  56.0917271 114.9946446
  62.0666637  57.0362703 114.8925136  61.3626699  55.7890832 115.3832245
  72.0710787  50.8167406 105.8403039  72.9056391  50.3848605 105.6580514
  71.9095130  50.6449420 106.7679933  71.7256679  47.3199520 107.2059378
  71.6705483  47.1543791 106.2647822  71.1002735  48.0275553 107.3621568
  56.5149194  42.5567584 121.0320800  57.1608058  42.0466538 121.5208026
  56.3066345  43.2936266 121.6064226  69.0402587  49.6248431 126.5312941
  69.9093746  49.7989084 126.1699576  68.5609338  50.4442848 126.4088670
  65.0352805  36.8207629 106.7844697  65.0231475  37.7649469 106.9412967
  65.9276227  36.6377774 106.4904158  63.2088767  56.7445532 118.2102375
  64.1116013  56.7769143 118.5268870  62.9826137  55.8145983 118.2248710
  64.9642369  55.4976519 114.8712453  64.0138000  55.4978381 114.7576826
  65.2674855  54.7509254 114.3548488  68.8504924  33.4150405 111.0390633
  68.0837320  32.8608892 111.1847316  69.2615629  33.4872274 111.9004785
  80.6995062  61.3337057 115.9358216  81.3373472  61.2143805 115.2321556
  80.5815905  62.2817901 115.9946168  77.5084769  61.2864486 115.8719740
  77.1703280  61.1705550 114.9840275  78.3774537  60.8855651 115.8520746
  73.3671584  63.1399962 111.8616631  72.8036449  63.0489899 111.0932919
  73.2523979  62.3199866 112.3419124  77.9904552  62.4399337 121.8305946
  77.9793192  62.0452136 120.9586450  78.1525191  61.7065410 122.4239717
  70.9136016  64.6351154 114.7000852  71.7057308  64.2941978 114.2847151
  71.1532666  64.7446129 115.6203005  78.9471143  66.8070930 107.1731096
  78.2959123  67.3925010 106.7865110  79.7415506  67.3377125 107.2326134
  72.8726770  63.8960067 107.5718231  73.6457646  63.3489054 107.4331106
  73.2252169  64.7604316 107.7832692  74.7111813  65.2236449 120.7785130
  74.4201679  66.1282080 120.6631796  75.3468797  65.2652977 121.4929199
  75.6368020  62.6013298 117.3686490  76.2331592  62.3769320 116.6543452
  75.6942991  61.8598043 117.9711937  75.2093048  60.0552733 105.2036680
  75.4618569  59.5334254 104.4420143  74.2717607  59.8918878 105.3063364
  80.2536331  59.0588511 113.0111424  81.0399420  58.6407934 112.6601841
  80.5175035  59.9634603 113.1793072  80.4246408  64.4961362 107.7100081
  79.7892241  64.5695988 108.4220985  80.0943815  65.0854960 107.0319160
  85.6544758  58.9963744 113.9144402  86.3869930  58.4262961 114.1482232
  84.8984114  58.6085345 114.3550908  74.9289337  61.9580839 107.4061055
  74.8125595  61.2825742 108.0742140  75.0391597  61.4713213 106.5893208
  77.2720878  61.4190986 111.1107745  76.9079085  60.8921607 111.8220666
  78.1287994  61.0289455 110.9374230  83.1770178  52.7085319 118.3739011
  82.8453503  53.5780730 118.1500226  82.5815792  52.3921603 119.0533041
  76.9126365  56.4480886 106.1069093  77.0800767  57.3161122 106.4739564
  76.7223534  56.6108167 105.1830382  79.6701698  64.9097865 117.7734924
  79.3702421  65.8122903 117.6650731  79.3252757  64.6430048 118.6256076
  73.1214179  61.3611661 113.8071628  72.1964676  61.2287876 114.0149320
  73.3698592  62.1405881 114.3041570  83.0698842  57.4280405 115.4532361
  82.1615719  57.3595813 115.1591122  83.0186437  57.9052350 116.2814186
  76.8915585  58.9038543 107.0915760  76.7715211  59.3495594 107.9301240
  76.1968174  59.2523861 106.5329298  70.4822990  61.0044935 114.6415417
  70.6115371  61.2579414 115.5554829  69.8020442  61.5972643 114.3220072
  74.6522478  71.6742185 110.7405891  74.5746507  72.6250010 110.8194372
  74.0484121  71.3288057 111.3980818  77.1439707  58.8470050 123.3967258
  76.3673041  59.4063970 123.3870123  77.7830270  59.3326833 123.9182128
  84.9360488  55.6296843 117.2310235  84.2934868  55.9229376 116.5850029
  84.4315416  55.5149763 118.0363431  82.5900652  59.3760016 107.9196094
  83.5018508  59.6087403 107.7443792  82.0810299  59.9597061 107.3571173
  75.3986080  61.6555504 122.9585225  76.1400764  62.1940548 122.6820049
  74.6923065  62.2821792 123.1156777  80.8741419  63.7984644 121.5557387
  81.2824775  63.3567055 120.8112019  80.1518681  63.2237272 121.8091580
  77.2272489  58.7357251 118.9290944  78.0733685  59.1596664 119.0725593
  77.1671127  58.0790875 119.6229507  81.1970234  64.3585835 115.3109676
  80.5679096  64.5231549 114.6085743  80.8095896  64.7727444 116.0820640
  85.0759466  65.2940273 112.6654039  84.3910504  65.6739174 112.1151073
  85.1603315  65.9035599 113.3985987  80.3771935  56.3961619 120.5872117
  80.1332867  57.1503680 120.0506393  80.6531865  56.7746967 121.4219364
  82.3310397  62.9400232 119.2649383  82.5427293  63.5831992 118.5883764
  82.2840146  62.1062548 118.7971313  79.9336626  55.5518052 116.1685955
  79.0721105  55.8499306 116.4602693  79.9599061  55.7688451 115.2366988
  76.7498196  64.0960243 112.5759761  77.2136541  64.3747946 111.7864383
  76.4854994  63.1943687 112.3932851  73.6422277  63.6431724 115.5139524
  74.2123634  64.0718993 114.8757008  74.2330389  63.3614309 116.2123710
  75.6867082  60.2183395 109.3849326  76.3891125  60.6704439 109.8523252
  75.3547710  59.5767214 110.0129219  74.1347443  58.8095152 123.7600535
  73.5046104  59.4911433 123.9935932  74.0283531  58.6978233 122.8153673
  69.4292416  58.4766948 114.6866459  68.6391470  58.7324476 114.2106570
  69.9203663  59.2915286 114.7918500  83.4456225  65.8172187 117.4371740
  84.2673669  65.4152374 117.1554422  83.4418628  65.7140421 118.3887856
  71.3807161  58.8411527 111.6449936  70.5838324  58.9530221 112.1633432
  71.1532753  59.1798179 110.7790827  77.2112829  65.3656230 119.5932451
  77.2757261  65.8276638 120.4290622  76.5023753  64.7353595 119.7214760
  67.7130119  58.7297438 117.1181450  67.9638157  59.6144448 117.3839026
  68.2489667  58.5502040 116.3456542  91.5362218  62.1610936 113.7856712
  90.7825927  61.5918334 113.6300716  91.6709760  62.1273600 114.7327346
  76.9260846  67.0324338 109.4611431  76.7906521  67.8775874 109.8896279
  77.4670659  67.2343616 108.6977365  73.4128186  53.1115918 126.1225786
  73.0195132  52.5582116 126.7973430  74.2294326  53.4226496 126.5132304
  70.3790244  64.5499776 110.0339356  70.8914764  65.3443026 110.1844921
  71.0312957  63.8526066 109.9672958  72.1885129  67.6665532 112.1162109
  72.3651757  68.5883497 111.9283093  72.9841962  67.3523951 112.5456489
  76.3296147  54.5273797 123.7146043  77.0705860  55.1280950 123.6350505
  76.5614070  53.7851435 123.1564085  71.4737485  59.7130164 121.9924272
  71.3591000  58.8115421 122.2931371  70.6182003  59.9593861 121.6409089
  78.5529323  67.6547904 123.5911773  78.1093177  66.8684283 123.2732678
  79.2146536  67.8427055 122.9255664  73.3116444  69.1843706 118.1172452
  73.8623869  69.0560769 117.3449446  72.4727920  69.4838595 117.7667344
  80.6510561  67.9350704 121.6193174  80.6329036  68.7559585 121.1273443
  81.5730481  67.8104780 121.8443315  77.1083615  65.4494834 122.4616683
  77.6411952  64.6883122 122.2315991  76.5797696  65.1568486 123.2040837
  80.2753310  50.5554900 117.9910324  79.9317579  51.4456541 117.9149435
  80.6432273  50.3656557 117.1279909  68.3439161  62.8788430 110.8098927
  69.1814383  63.2885439 110.5932634  68.5217428  61.9387872 110.7799120
  80.2403593  60.5463511 106.4982760  79.7250216  61.3168116 106.7371147
  79.9680901  59.8728647 107.1215821  77.8250704  55.3913212 111.5567998
  76.9692300  55.0020062 111.3773637  78.2377656  55.4705172 110.6967783
  79.3549850  52.9259555 115.9559558  78.8514646  52.8889690 115.1427363
  79.6480457  53.8352298 116.0156214  75.5992736  53.0098285 114.9625739
  76.4645733  52.8141093 114.6031629  75.6670245  52.7808636 115.8895096
  85.2137867  63.2995866 108.4335933  84.4367310  62.9607025 107.9891095
  85.8929348  63.3048489 107.7590898  80.0289896  58.4190603 108.3242541
  79.7240032  58.7336752 109.1752684  80.9820338  58.4972023 108.3669874
  78.4736328  64.5780826 109.9735495  77.9457689  63.8433586 109.6608732
  77.9723831  65.3555503 109.7275463  83.4529174  62.7729847 115.0902541
  82.7952848  63.4629108 115.1782670  84.2569573  63.1626279 115.4336527
  73.2055055  55.2400493 112.3342106  73.7798807  55.0175674 111.6015299
  73.7926038  55.3089187 113.0870708  82.2634633  61.1274219 113.1406483
  82.7766514  61.7604211 113.6428192  82.9135856  60.5275415 112.7749843
  73.5324643  57.2704954 106.3537991  72.6961955  57.6079640 106.6747266
  73.3929412  57.1353933 105.4165128  75.5077723  52.1141741 111.0617176
  74.8542135  51.7990759 110.4373790  75.4658197  51.4917482 111.7876999
  76.6188928  62.3961037 102.9770468  75.7115990  62.1650290 103.1761617
  77.1159960  61.5998656 103.1644449  79.5257007  71.1058544 105.8967154
  78.8518706  71.4090240 106.5052112  79.9122829  71.9087624 105.5472611
  78.7415463  58.6023675 115.3864823  77.8238025  58.8238622 115.2286511
  79.1575607  58.6769985 114.5276531  79.5250511  60.0015091 110.5167504
  80.2722330  60.5136488 110.2074626  79.7942101  59.6799143 111.3771897
  77.7977161  62.4973631 107.4994458  76.8888381  62.2132664 107.5966928
  77.8272245  62.9172710 106.6397765  83.0296429  66.1080221 111.2685625
  82.5758756  65.2671131 111.3250816  82.3990396  66.7441619 111.6060406
  81.9729348  57.0372207 112.4986293  81.2352105  56.5249593 112.8296535
  82.2256122  56.5972589 111.6869570  81.4729368  67.9456718 112.2035444
  81.7652342  68.5061775 111.4847809  81.9827989  68.2385279 112.9588603
  82.0740976  49.8148459 113.0928062  82.3799853  48.9545822 112.8053977
  82.7993581  50.4066079 112.8927056  68.3665332  60.2179146 111.4809660
  68.1689732  59.6248506 110.7560727  67.8111996  59.9131356 112.1985599
  76.3462055  60.1102252 113.6004253  76.4010665  59.1576088 113.5246730
  75.5353257  60.2661691 114.0845552  77.4953249  64.0382375 104.8382536
  77.0572679  63.3218234 104.3788174  78.2363690  64.2658490 104.2767628
  74.2854415  58.7279312 111.3594632  73.4722281  59.0273482 111.7659824
  74.7813410  58.3335001 112.0769114  76.4362993  68.7237069 113.2928897
  76.3939172  68.9497915 112.3637429  77.3525692  68.4900443 113.4414698
  79.8828627  59.1921136 120.1909526  80.2378015  59.4192609 121.0503992
  80.5300758  59.5239513 119.5686781  85.6126364  62.3139572 110.8958855
  85.4744263  62.5041168 109.9680044  85.2562583  63.0758955 111.3526906
  73.7768490  56.2997667 116.9755867  74.4167869  56.1586426 116.2778830
  72.9446021  56.0132181 116.5994469  85.6395744  64.3816099 115.9070126
  86.0732250  64.2891388 116.7553181  86.3527324  64.3573600 115.2690142
  74.5528794  65.6000098 113.0890859  75.3469393  65.1050418 112.8873434
  73.8420486  65.0717961 112.7258565  79.3723639  67.9818193 117.4403227
  79.4260661  68.5509130 118.2080943  78.5038420  68.1520078 117.0757264
  70.8611557  59.7443179 109.1650612  69.9309146  59.6827635 109.3820574
  70.9569029  59.2219132 108.3687253  70.7797107  56.2697992 111.7528854
  71.0403924  57.1843326 111.6438014  71.6014279  55.8022435 111.9025467
  72.2522032  57.6835749 118.9227678  72.9245085  57.4753112 118.2740327
  71.4251818  57.4857835 118.4832911  86.5011293  64.4239800 118.4403012
  86.6947183  65.3285610 118.6862287  86.4011911  63.9647219 119.2741597
  78.1547604  54.3097690 120.9393339  77.5075519  55.0087640 120.8457816
  78.9248619  54.7433834 121.3069587  81.5626402  64.5746543 124.0143892
  81.4111908  64.3457094 123.0973976  81.5531081  65.5317144 124.0275238
  78.3311738  62.1478455 118.9990159  79.2603798  62.2989615 118.8259126
  77.9102768  62.2362476 118.1438805  77.1300070  66.1729120 116.7688697
  76.9911156  65.8047904 117.6414635  76.3414666  66.6876759 116.5972654
  77.7248222  71.2738216 108.1114233  77.8999978  70.8026259 108.9259856
  77.0381010  71.9003982 108.3395494  78.6805285  65.5510722 114.1577534
  78.3455118  65.5111492 115.0535184  78.1809231  64.8855438 113.6847945
  72.6549529  60.9578352 119.6830116  72.5169327  60.2258591 120.2841655
  73.5654453  60.8687253 119.4014303  81.6164477  62.8966757 104.4314594
  80.9993647  62.1713585 104.3347647  81.1480965  63.6576117 104.0881668
  75.2831830  60.6698312 119.1713795  75.9931448  60.0291504 119.1300414
  75.2401138  60.9211207 120.0939976  83.2718608  67.6065665 122.0920374
  83.2131155  66.9224885 121.4250957  83.6738127  68.3484655 121.6401000
  73.9960764  57.6563530 120.9909435  73.4598121  57.2054268 121.6431031
  73.4077472  57.7909438 120.2479899  72.2909307  74.4227579 114.8854093
  72.5305906  75.0546103 115.5633112  71.4478504  74.0715619 115.1719453
  73.4063023  57.1152181 103.5535898  72.5292489  56.9940982 103.1898145
  73.8820776  56.3238259 103.3014787  83.2736016  65.5705249 120.3234354
  82.3862795  65.2331171 120.4460753  83.8434567  64.8388280 120.5603119
  64.9265163  61.9029341 113.6477405  65.6136203  61.5891071 113.0598421
  64.7713292  62.8070705 113.3744657  69.7299885  56.7919537 118.0762429
  69.6458074  56.1845207 117.3412839  68.9082591  57.2828556 118.0771925
  76.8037169  70.2306701 117.2895597  76.7307341  71.0361673 117.8014902
  76.3614562  70.4298667 116.4643619  76.5926949  69.4678471 110.7998419
  75.8094471  70.0100152 110.8936643  77.2919694  69.9852451 111.1992660
  79.9023599  55.2773101 113.4432624  80.3992298  54.5243063 113.1233694
  79.1310580  55.3137418 112.8775833  87.7553356  60.9813466 115.0850916
  87.7443233  61.8638182 114.7144849  86.8870736  60.6285017 114.8905453
  79.2635853  70.1293535 119.4453756  79.9763825  70.7641000 119.3729657
  78.7725881  70.2257401 118.6293758  80.9853380  64.0344788 111.0171048
  80.0509658  64.1546251 110.8475752  81.1630048  63.1317255 110.7531057
  76.4858568  57.4190484 113.1704309  76.1156355  56.8661524 113.8585214
  76.9817660  56.8148617 112.6179309  84.3725931  59.8762107 111.5521082
  84.8386383  60.7090099 111.4781384  84.8233431  59.4107089 112.2566340
  74.3147766  67.8787979 120.2659327  75.0157226  68.5124462 120.4188721
  73.8442881  68.2202710 119.5054966  82.4402162  66.2205929 108.5507234
  82.7162006  66.1062523 109.4601108  81.5706661  65.8223413 108.5119407
  82.3442594  52.2442694 115.5911983  81.4305673  52.4746921 115.7594190
  82.7735695  52.3281138 116.4426015  82.1149052  60.4332586 118.0911877
  81.4620502  60.6808494 117.4364330  82.4929432  59.6196724 117.7574354
  79.0756226  70.4692279 112.1940047  79.2578621  69.6513935 112.6567800
  79.8989212  70.6859972 111.7564937  79.4098392  69.3960465 109.4555096
  79.9386158  68.8852919 108.8425258  79.6726611  69.0802995 110.3200629
  78.1636625  61.1752397 124.5777914  77.4877262  61.0746527 125.2480289
  78.9864259  61.0191611 125.0413911  69.9115484  67.4124334 117.1990429
  70.4968921  66.6668022 117.3318334  69.7140323  67.7228291 118.0827093
  72.7654139  70.4475581 112.2152872  72.0964515  70.9321709 111.7316912
  72.6267009  70.6944802 113.1296250  64.5033139  59.9829934 115.9194873
  64.5417239  59.4493525 116.7131991  63.9973432  59.4565140 115.3005850
  76.9059408  72.4819325 118.8135530  77.4577716  72.6450946 119.5784615
  77.2465602  73.0723763 118.1415555  71.8823901  54.8294475 119.4157415
  71.9465228  55.6909306 119.0034813  71.8191022  54.2168476 118.6829773
  71.3576174  56.9017607 123.0630449  71.9848213  56.5194684 123.6767973
  70.5004093  56.6831809 123.4286142  68.1341717  58.7094036 108.9948804
  68.4295158  57.8004715 108.9415858  67.2329752  58.6881776 108.6729806
  80.0427795  70.4301300 115.7999212  79.9178935  69.6291040 115.2910158
  80.7006886  70.9247494 115.3113182  71.6635964  56.7850033 114.9776353
  70.9422549  57.3986001 114.8383826  72.4529219  57.3207798 114.8992998
  82.1062704  68.2310320 117.4278762  81.1593039  68.1115672 117.3557089
  82.4545477  67.3432818 117.5105024  74.4662277  54.1204459 121.2517004
  74.9896679  54.3666756 122.0143314  74.2474610  54.9524494 120.8320142
  69.8629558  56.3908134 109.1188129  69.5342264  55.5105513 108.9363235
  70.2168929  56.3355803 110.0064518  79.1109137  68.0263037 113.6283115
  78.9634099  67.0979744 113.8090685  79.9362631  68.0483127 113.1440190
  72.9771381  56.6781104 109.4863607  73.3167454  57.2067025 108.7642215
  73.4243502  57.0161510 110.2622173  82.7143259  68.8491595 114.7147987
  83.6389806  68.6434457 114.5772439  82.5458562  68.6007997 115.6237329
  75.6714822  55.0618154 118.9366675  75.3311642  54.2625968 119.3387355
  74.9653828  55.3619865 118.3643508  76.3231294  52.1467467 117.3893998
  77.1457363  51.6727945 117.2672888  76.5669357  52.9257951 117.8892684
  74.9639528  55.1755725 107.6856900  75.6847891  55.5536978 107.1820616
  74.3404833  55.8944602 107.7891877  79.1070651  55.8800874 108.6215232
  79.3234266  56.7625512 108.3204060  78.6264718  55.4887088 107.8920874
  73.8469873  58.8386588 115.1985976  73.7014453  59.1526891 116.0910258
  73.3695076  59.4571488 114.6456875  75.7066256  55.8289136 115.2466866
  75.6927824  54.9330229 114.9099164  76.4238684  55.8359799 115.8805152
  77.5592386  56.2626476 117.2919993  77.3010164  57.1843546 117.2904324
  77.0277427  55.8656910 117.9820458  82.5038575  69.3677263 110.0710079
  82.6775453  68.8023685 109.3183931  82.9967466  70.1678158 109.8889569
  68.3215535  61.3791932 118.1373638  67.7769003  62.1551740 118.2693912
  69.1994885  61.7262736 117.9792759  75.1103152  54.7103516 110.5154436
  75.2319063  53.7820162 110.7145324  74.8205194  54.7242202 109.6032752
  77.9794342  52.3958426 113.6521156  78.0016039  52.4597759 112.6973136
  78.3962401  51.5562935 113.8461662  88.3577966  62.1313686 111.6900379
  88.8009112  61.3821011 111.2919502  87.4804477  62.1223822 111.3074111
  83.4913748  68.6844027 107.1706977  84.1864652  69.3050720 107.3894292
  83.8336898  67.8339378 107.4459355  69.1081557  60.5061828 121.0303795
  68.3663293  60.6544464 121.6168425  68.7874301  60.7670094 120.1670544
  85.3905171  66.1343733 108.6994308  85.9156495  66.4731006 107.9743628
  85.3027523  65.1990748 108.5157443  77.0525219  70.0477806 120.8284185
  77.3612346  69.8026953 121.7006884  77.8500701  70.2524445 120.3403055
  77.0745831  72.2015716 113.0589561  76.6350822  71.7092095 113.7522418
  77.8253948  71.6588684 112.8181636  69.5538170  68.3927257 113.0614189
  70.3796190  68.0931029 112.6812833  69.2032222  67.6234879 113.5103978
  74.5219704  67.7453725 115.1311863  73.8999713  67.0824430 114.8314091
  75.1924570  67.7714857 114.4485511  67.7546775  66.3113583 114.0203123
  66.9178684  65.8835758 113.8387124  67.7270421  66.5046027 114.9573914
  74.5944231  56.2235513 124.7244369  74.6432387  57.0997636 124.3422138
  75.1366745  55.6812906 124.1516012  85.1996952  63.6169103 121.3178234
  85.2494957  63.4519110 122.2593757  85.0910875  62.7496362 120.9276115
  74.0833210  66.2957648 108.6070323  74.2321331  66.9793113 107.9536996
  74.8899654  66.2762739 109.1219779  82.4900714  59.6000031 122.6337541
  83.3910577  59.4606496 122.3421539  82.5648689  59.7654486 123.5735719
  76.8243520  56.9766886 121.4790727  75.9546829  57.2700452 121.2073316
  77.0603000  57.5607331 122.1997991  86.7015149  66.0366044 121.5620256
  86.4099957  66.3996025 122.3983717  86.0887280  65.3233053 121.3833588
  87.9010831  63.6018924 114.0822826  88.7357722  64.0408728 114.2460387
  88.0369960  63.1257577 113.2631072  84.9502337  61.1598659 120.0300314
  85.4256458  61.3526305 119.2219165  84.0267902  61.2157845 119.7843698
  71.8385843  62.3222826 109.6131392  71.5931885  61.4185156 109.8111602
  72.0081758  62.3239977 108.6710870  79.5282553  53.1946502 118.9956148
  80.0464497  53.9307529 118.6702636  79.1737686  53.5010496 119.8302907
  71.1081491  58.0551184 107.1117554  70.4150736  58.1295539 106.4557590
  70.8633243  57.2911527 107.6339071  79.7795148  49.6146785 114.5157044
  80.0596901  48.9469974 115.1417471  80.5645754  49.8075881 114.0031708
  77.5828616  68.7905779 106.0782071  77.0102583  69.4095966 105.6252543
  78.1561410  69.3405141 106.6121993  83.6504006  58.0364419 118.2628620
  84.6021429  58.1362517 118.2840844  83.4807456  57.2442688 118.7726704
  81.6718385  55.1220002 118.4488020  81.0768317  55.4025015 117.7534509
  81.3868082  55.6113903 119.2204762  80.8025876  69.0742929 107.2090653
  81.7356549  69.0088491 107.4123528  80.7149089  69.9099196 106.7505186
  83.4313892  68.3908799 104.1694601  83.3527524  68.0568663 105.0630358
  84.2523559  68.8830567 104.1686073  86.1292084  61.2570539 117.3770919
  86.0968404  60.3186539 117.5630603  86.7392707  61.3354575 116.6436744
  77.9675415  60.1266592 103.4198123  78.9134519  59.9972800 103.4886541
  77.5889659  59.3881254 103.8967551  86.2786572  58.0481582 117.4229202
  85.7625621  57.2640039 117.2359131  87.1626521  57.7200299 117.5875722
  83.9397299  51.7922598 113.3825015  83.7422120  51.4837686 114.2668347
  84.5497005  52.5184237 113.5122945  91.9468634  62.3186546 116.5176956
  92.6772022  62.0571834 117.0784659  91.3375579  61.5815267 116.5579024
  90.0283931  60.4594408 117.1151407  89.3017094  60.3250373 116.5067899
  89.6131218  60.7671237 117.9208125  77.8514107  64.1784338 124.8798780
  78.7717117  64.3562937 125.0738827  77.8163690  63.2340383 124.7278479
  76.1518332  58.0516568 103.3553008  75.2449787  57.7549681 103.4315722
  76.4294313  57.7546386 102.4887295  67.0696272  59.3722931 113.8052055
  66.7499056  58.5188240 113.5126429  66.5229700  59.5871510 114.5610022
  70.8476180  62.0885372 117.5221561  71.0662189  63.0202480 117.5409595
  71.2601953  61.7293347 118.3076365  77.7680397  52.5953458 109.5097250
  76.9581126  52.2500543 109.8852496  78.4564814  52.2861002 110.0984861
  79.6970946  51.6731505 111.1321546  80.2501984  52.0926958 111.7911569
  79.9341032  50.7467253 111.1744502  75.7204045  57.6618578 126.9124310
  75.6200772  58.6112935 126.8436401  75.5025587  57.3336817 126.0400380
  74.9217116  54.9103503 103.4964988  75.7836280  55.2358402 103.7560805
  75.1067460  54.1234999 102.9838053  66.9384532  62.9925843 115.7745176
  66.2448003  62.5779796 115.2615131  67.6857523  63.0346379 115.1778595
  83.0749753  53.7832030 110.6400211  82.4948422  54.4416834 110.2578263
  82.8085685  52.9609374 110.2287628  81.5253319  53.1837087 112.8421531
  82.0253098  53.2953622 112.0335850  82.1688927  52.8798140 113.4822339
  75.5835315  61.0915717 125.7289372  75.1002397  61.8916077 125.9353261
  75.6696254  61.1023662 124.7756816  68.8521275  62.9244097 113.6511191
  68.8291963  63.0231784 112.6993074  69.1621911  63.7709248 113.9728357
  71.5108652  64.9820252 117.7657806  72.4651906  64.9504194 117.6987737
  71.3121176  64.5210876 118.5808032  72.1008035  63.5521368 120.3328603
  72.9200924  64.0465446 120.3563441  72.3744842  62.6353336 120.3046171
  81.8574631  55.9432120 109.6956559  80.9700486  56.2281771 109.4776754
  82.2728620  55.7825883 108.8483836  85.2089167  55.9678641 113.4110898
  85.9849557  56.4575094 113.6835515  84.4837301  56.3936695 113.8682768
  87.6461726  56.6806260 114.4684839  88.2406216  56.4401996 113.7578147
  87.7188309  55.9613391 115.0958375  69.8658881  70.5239871 114.7828004
  69.7313349  69.7640272 114.2166002  69.4490944  71.2480771 114.3156792
  81.0017844  65.7076795 103.7904579  81.7053694  65.9126797 104.4062234
  80.2780493  66.2753557 104.0553662  81.8315655  61.4586656 109.9106849
  81.7750856  61.9155207 109.0714481  82.3843997  60.6977341 109.7329692
  85.6420460  57.2476388 110.7356969  85.3857395  56.8473024 111.5665176
  85.0173328  57.9620182 110.6107108  89.9532798  59.9872461 113.2428260
  89.3932356  60.0565650 114.0159822  89.3476302  59.8113446 112.5227756
  73.0228007  71.4209188 114.9946446  72.9060391  72.3654621 114.8925136
  72.2020453  71.1182750 115.3832245  82.9104542  66.1459324 105.8403039
  83.7450146  65.7140522 105.6580514  82.7488885  65.9741338 106.7679933
  82.5650434  62.6491437 107.2059378  82.5099238  62.4835709 106.2647822
  81.9396489  63.3567470 107.3621568  67.3542949  57.8859502 121.0320800
  68.0001812  57.3758456 121.5208026  67.1460100  58.6228183 121.6064226
  75.8746559  52.1499546 106.7844697  75.8625229  53.0941386 106.9412967
  76.7669981  51.9669692 106.4904158  74.0482521  72.0737450 118.2102375
  74.9509768  72.1061060 118.5268870  73.8219891  71.1437901 118.2248710
  75.8036123  70.8268437 114.8712453  74.8531754  70.8270298 114.7576826
  76.1068609  70.0801171 114.3548488  79.6898679  48.7442323 111.0390633
  78.9231075  48.1900810 111.1847316  80.1009384  48.8164192 111.9004785
  71.6940440  55.0327119 125.1295815  72.5571901  54.6763924 125.3399139
  71.1205850  54.6941014 125.8171219  88.3478523  76.6156403 115.8719740
  88.0097035  76.4997468 114.9840275  89.2168291  76.2147568 115.8520746
  84.2065339  78.4691880 111.8616631  83.6430204  78.3781817 111.0932919
  84.0917734  77.6491784 112.3419124  81.7529771  79.9643071 114.7000852
  82.5451063  79.6233896 114.2847151  81.9926421  80.0738046 115.6203005
  89.7864897  82.1362847 107.1731096  89.1352877  82.7216928 106.7865110
  90.5809260  82.6669042 107.2326134  83.7120525  79.2251984 107.5718231
  84.4851401  78.6780972 107.4331106  84.0645923  80.0896234 107.7832692
  86.0486802  75.3844651 105.2036680  86.3012323  74.8626172 104.4420143
  85.1111362  75.2210796 105.3063364  91.0930085  74.3880429 113.0111424
  91.8793174  73.9699852 112.6601841  91.3568790  75.2926521 113.1793072
  91.2640163  79.8253279 107.7100081  90.6285996  79.8987906 108.4220985
  90.9337569  80.4146878 107.0319160  96.4938512  74.3255662 113.9144402
  97.2263684  73.7554879 114.1482232  95.7377868  73.9377263 114.3550908
  85.7683091  77.2872757 107.4061055  85.6519349  76.6117660 108.0742140
  85.8785351  76.8005130 106.5893208  88.1114632  76.7482904 111.1107745
  87.7472839  76.2213525 111.8220666  88.9681748  76.3581373 110.9374230
  94.0163933  68.0377236 118.3739011  93.6847258  68.9072647 118.1500226
  93.4209546  67.7213520 119.0533041  87.7520119  71.7772803 106.1069093
  87.9194521  72.6453040 106.4739564  87.5617288  71.9400085 105.1830382
  83.9607934  76.6903579 113.8071628  83.0358430  76.5579793 114.0149320
  84.2092347  77.4697798 114.3041570  87.7309340  74.2330461 107.0915760
  87.6108965  74.6787512 107.9301240  87.0361928  74.5815779 106.5329298
  81.3216745  76.3336853 114.6415417  81.4509126  76.5871332 115.5554829
  80.6414196  76.9264561 114.3220072  85.4916232  87.0034103 110.7405891
  85.4140262  87.9541928 110.8194372  84.8877876  86.6579975 111.3980818
  93.4294406  74.7051934 107.9196094  94.3412262  74.9379321 107.7443792
  92.9204053  75.2888978 107.3571173  90.7730381  70.8809970 116.1685955
  89.9114860  71.1791224 116.4602693  90.7992816  71.0980369 115.2366988
  87.5891950  79.4252161 112.5759761  88.0530296  79.7039864 111.7864383
  87.3248748  78.5235605 112.3932851  84.4816031  78.9723642 115.5139524
  85.0517388  79.4010910 114.8757008  85.0724143  78.6906227 116.2123710
  86.5260836  75.5475313 109.3849326  87.2284880  75.9996357 109.8523252
  86.1941465  74.9059132 110.0129219  80.2686170  73.8058866 114.6866459
  79.4785224  74.0616394 114.2106570  80.7597418  74.6207203 114.7918500
  82.2200916  74.1703445 111.6449936  81.4232079  74.2822139 112.1633432
  81.9926508  74.5090097 110.7790827  78.5523873  74.0589356 117.1181450
  78.8031912  74.9436366 117.3839026  79.0883422  73.8793958 116.3456542
  87.7654601  82.3616256 109.4611431  87.6300276  83.2067791 109.8896279
  88.3064413  82.5635533 108.6977365  81.2183998  79.8791694 110.0339356
  81.7308519  80.6734944 110.1844921  81.8706711  79.1817984 109.9672958
  83.0278883  82.9957450 112.1162109  83.2045511  83.9175415 111.9283093
  83.8235717  82.6815869 112.5456489  91.1147065  65.8846817 117.9910324
  90.7711334  66.7748459 117.9149435  91.4826027  65.6948475 117.1279909
  79.1832915  78.2080348 110.8098927  80.0208137  78.6177356 110.5932634
  79.3611183  77.2679790 110.7799120  91.0797347  75.8755429 106.4982760
  90.5643971  76.6460033 106.7371147  90.8074656  75.2020565 107.1215821
  88.6644458  70.7205129 111.5567998  87.8086055  70.3311980 111.3773637
  89.0771410  70.7997090 110.6967783  90.1943605  68.2551473 115.9559558
  89.6908401  68.2181608 115.1427363  90.4874212  69.1644215 116.0156214
  86.4386491  68.3390202 114.9625739  87.3039488  68.1433011 114.6031629
  86.5064000  68.1100554 115.8895096  96.0531621  78.6287783 108.4335933
  95.2761064  78.2898943 107.9891095  96.7323102  78.6340406 107.7590898
  90.8683650  73.7482521 108.3242541  90.5633786  74.0628670 109.1752684
  91.8214093  73.8263941 108.3669874  89.3130082  79.9072744 109.9735495
  88.7851444  79.1725504 109.6608732  88.8117585  80.6847420 109.7275463
  84.0448810  70.5692410 112.3342106  84.6192562  70.3467592 111.6015299
  84.6319792  70.6381105 113.0870708  93.1028387  76.4566137 113.1406483
  93.6160269  77.0896129 113.6428192  93.7529611  75.8567333 112.7749843
  84.3718397  72.5996871 106.3537991  83.5355709  72.9371558 106.6747266
  84.2323167  72.4645851 105.4165128  86.3471478  67.4433659 111.0617176
  85.6935890  67.1282676 110.4373790  86.3051952  66.8209400 111.7876999
  87.4582682  77.7252954 102.9770468  86.5509744  77.4942208 103.1761617
  87.9553714  76.9290573 103.1644449  90.3650761  86.4350461 105.8967154
  89.6912460  86.7382158 106.5052112  90.7516583  87.2379542 105.5472611
  89.5809218  73.9315593 115.3864823  88.6631779  74.1530540 115.2286511
  89.9969362  74.0061903 114.5276531  90.3644266  75.3307008 110.5167504
  91.1116085  75.8428406 110.2074626  90.6335855  75.0091061 111.3771897
  88.6370916  77.8265549 107.4994458  87.7282135  77.5424582 107.5966928
  88.6666000  78.2464628 106.6397765  92.8123103  72.3664125 112.4986293
  92.0745860  71.8541511 112.8296535  93.0649876  71.9264506 111.6869570
  92.9134730  65.1440377 113.0928062  93.2193607  64.2837740 112.8053977
  93.6387335  65.7357997 112.8927056  79.2059086  75.5471063 111.4809660
  79.0083486  74.9540424 110.7560727  78.6505750  75.2423273 112.1985599
  87.1855810  75.4394170 113.6004253  87.2404420  74.4868006 113.5246730
  86.3747012  75.5953609 114.0845552  88.3347004  79.3674293 104.8382536
  87.8966434  78.6510152 104.3788174  89.0757445  79.5950408 104.2767628
  85.1248170  74.0571229 111.3594632  84.3116035  74.3565400 111.7659824
  85.6207164  73.6626918 112.0769114  96.4520118  77.6431490 110.8958855
  96.3138017  77.8333086 109.9680044  96.0956337  78.4050873 111.3526906
  84.6162245  71.6289585 116.9755867  85.2561624  71.4878344 116.2778830
  83.7839775  71.3424098 116.5994469  85.3922549  80.9292015 113.0890859
  86.1863147  80.4342336 112.8873434  84.6814241  80.4009879 112.7258565
  81.7005312  75.0735097 109.1650612  80.7702900  75.0119553 109.3820574
  81.7962784  74.5511050 108.3687253  81.6190861  71.5989910 111.7528854
  81.8797678  72.5135243 111.6438014  82.4408033  71.1314353 111.9025467
  83.0915786  73.0127667 118.9227678  83.7638840  72.8045029 118.2740327
  82.2645573  72.8149753 118.4832911  88.5641976  86.6030134 108.1114233
  88.7393732  86.1318177 108.9259856  87.8774765  87.2295900 108.3395494
  92.4558231  78.2258674 104.4314594  91.8387402  77.5005503 104.3347647
  91.9874720  78.9868035 104.0881668  84.2456777  72.4444099 103.5535898
  83.3686244  72.3232899 103.1898145  84.7214530  71.6530177 103.3014787
  75.7658917  77.2321258 113.6477405  76.4529957  76.9182988 113.0598421
  75.6107046  78.1362623 113.3744657  80.5693639  72.1211455 118.0762429
  80.4851828  71.5137125 117.3412839  79.7476346  72.6120473 118.0771925
  87.4320703  84.7970389 110.7998419  86.6488225  85.3392069 110.8936643
  88.1313448  85.3144369 111.1992660  90.7417353  70.6065019 113.4432624
  91.2386053  69.8534981 113.1233694  89.9704335  70.6429335 112.8775833
  91.8247134  79.3636706 111.0171048  90.8903413  79.4838168 110.8475752
  92.0023803  78.4609173 110.7531057  87.3252322  72.7482402 113.1704309
  86.9550110  72.1953442 113.8585214  87.8211415  72.1440535 112.6179309
  95.2119685  75.2054025 111.5521082  95.6780138  76.0382017 111.4781384
  95.6627186  74.7399007 112.2566340  93.2795917  81.5497846 108.5507234
  93.5555760  81.4354441 109.4601108  92.4100415  81.1515331 108.5119407
  93.1836348  67.5734612 115.5911983  92.2699428  67.8038839 115.7594190
  93.6129450  67.6573056 116.4426015  90.2492146  84.7252382 109.4555096
  90.7779912  84.2144837 108.8425258  90.5120366  84.4094913 110.3200629
  75.3426893  75.3121852 115.9194873  75.3810993  74.7785442 116.7131991
  74.8367186  74.7857057 115.3005850  82.7217656  70.1586392 119.4157415
  82.7858982  71.0201223 119.0034813  82.6584776  69.5460394 118.6829773
  78.9735471  74.0385954 108.9948804  79.2688912  73.1296632 108.9415858
  78.0723507  74.0173693 108.6729806  82.5029718  72.1141951 114.9776353
  81.7816304  72.7277918 114.8383826  83.2922974  72.6499715 114.8992998
  80.7023313  71.7200052 109.1188129  80.3736019  70.8397431 108.9363235
  81.0562683  71.6647720 110.0064518  83.8165136  72.0073021 109.4863607
  84.1561208  72.5358943 108.7642215  84.2637256  72.3453428 110.2622173
  86.5108577  70.3910072 118.9366675  86.1705397  69.5917885 119.3387355
  85.8047583  70.6911783 118.3643508  87.1625048  67.4759385 117.3893998
  87.9851118  67.0019863 117.2672888  87.4063112  68.2549868 117.8892684
  85.8033283  70.5047643 107.6856900  86.5241645  70.8828896 107.1820616
  85.1798587  71.2236520 107.7891877  89.9464406  71.2092792 108.6215232
  90.1628020  72.0917430 108.3204060  89.4658473  70.8179005 107.8920874
  84.6863627  74.1678505 115.1985976  84.5408208  74.4818808 116.0910258
  84.2088831  74.7863406 114.6456875  86.5460010  71.1581053 115.2466866
  86.5321579  70.2622146 114.9099164  87.2632438  71.1651717 115.8805152
  88.3986141  71.5918393 117.2919993  88.1403919  72.5135464 117.2904324
  87.8671181  71.1948828 117.9820458  79.1609289  76.7083850 118.1373638
  78.6162757  77.4843658 118.2693912  80.0388639  77.0554654 117.9792759
  85.9496906  70.0395433 110.5154436  86.0712817  69.1112080 110.7145324
  85.6598948  70.0534119 109.6032752  88.8188096  67.7250344 113.6521156
  88.8409793  67.7889677 112.6973136  89.2356155  66.8854853 113.8461662
  94.3307502  84.0135945 107.1706977  95.0258407  84.6342638 107.3894292
  94.6730652  83.1631296 107.4459355  96.2298925  81.4635650 108.6994308
  96.7550249  81.8022923 107.9743628  96.1421278  80.5282666 108.5157443
  80.3931925  83.7219175 113.0614189  81.2189945  83.4222946 112.6812833
  80.0425977  82.9526797 113.5103978  78.5940530  81.6405501 114.0203123
  77.7572438  81.2127675 113.8387124  78.5664175  81.8337944 114.9573914
  84.9226965  81.6249566 108.6070323  85.0715085  82.3085031 107.9536996
  85.7293408  81.6054656 109.1219779  82.6779598  77.6514744 109.6131392
  82.4325640  76.7477074 109.8111602  82.8475513  77.6531894 108.6710870
  90.3676308  68.5238420 118.9956148  90.8858252  69.2599447 118.6702636
  90.0131441  68.8302413 119.8302907  81.9475245  73.3843101 107.1117554
  81.2544490  73.4587456 106.4557590  81.7026997  72.6203445 107.6339071
  90.6188902  64.9438703 114.5157044  90.8990656  64.2761892 115.1417471
  91.4039509  65.1367798 114.0031708  88.4222371  84.1197697 106.0782071
  87.8496338  84.7387884 105.6252543  88.9955164  84.6697058 106.6121993
  91.6419630  84.4034847 107.2090653  92.5750303  84.3380408 107.4123528
  91.5542843  85.2391114 106.7505186  94.2707647  83.7200717 104.1694601
  94.1921278  83.3860581 105.0630358  95.0917314  84.2122485 104.1686073
  88.8069169  75.4558509 103.4198123  89.7528274  75.3264717 103.4886541
  88.4283414  74.7173171 103.8967551  94.7791054  67.1214515 113.3825015
  94.5815875  66.8129604 114.2668347  95.3890759  67.8476154 113.5122945
  86.9912086  73.3808486 103.3553008  86.0843542  73.0841598 103.4315722
  87.2688067  73.0838304 102.4887295  77.9090027  74.7014849 113.8052055
  77.5892811  73.8480157 113.5126429  77.3623455  74.9163427 114.5610022
  81.6869934  77.4177290 117.5221561  81.9055944  78.3494398 117.5409595
  82.0995708  77.0585265 118.3076365  88.6074152  67.9245375 109.5097250
  87.7974880  67.5792460 109.8852496  89.2958569  67.6152919 110.0984861
  90.5364700  67.0023422 111.1321546  91.0895739  67.4218876 111.7911569
  90.7734787  66.0759170 111.1744502  85.7610871  70.2395421 103.4964988
  86.6230035  70.5650319 103.7560805  85.9461215  69.4526917 102.9838053
  77.7778287  78.3217761 115.7745176  77.0841758  77.9071713 115.2615131
  78.5251278  78.3638297 115.1778595  93.9143507  69.1123947 110.6400211
  93.3342176  69.7708751 110.2578263  93.6479440  68.2901292 110.2287628
  92.3647074  68.5129005 112.8421531  92.8646852  68.6245540 112.0335850
  93.0082682  68.2090058 113.4822339  79.6915029  78.2536014 113.6511191
  79.6685717  78.3523702 112.6993074  80.0015666  79.1001165 113.9728357
  92.6968385  71.2724038 109.6956559  91.8094240  71.5573688 109.4776754
  93.1122374  71.1117801 108.8483836  96.0482921  71.2970559 113.4110898
  96.8243312  71.7867011 113.6835515  95.3231056  71.7228613 113.8682768
  98.4855480  72.0098178 114.4684839  99.0799971  71.7693914 113.7578147
  98.5582064  71.2905309 115.0958375  91.8411599  81.0368712 103.7904579
  92.5447449  81.2418715 104.4062234  91.1174248  81.6045474 104.0553662
  92.6709409  76.7878574 109.9106849  92.6144610  77.2447125 109.0714481
  93.2237751  76.0269258 109.7329692  96.4814215  72.5768306 110.7356969
  96.2251149  72.1764941 111.5665176  95.8567083  73.2912100 110.6107108
  93.7498296  81.4751242 105.8403039  94.5843900  81.0432440 105.6580514
  93.5882639  81.3033255 106.7679933  93.4044188  77.9783355 107.2059378
  93.3492992  77.8127626 106.2647822  92.7790244  78.6859388 107.3621568
  78.1936703  73.2151419 121.0320800  78.8395567  72.7050373 121.5208026
  77.9853854  73.9520101 121.6064226  86.7140314  67.4791464 106.7844697
  86.7018984  68.4233304 106.9412967  87.6063736  67.2961609 106.4904158
  90.5292433  64.0734241 111.0390633  89.7624829  63.5192727 111.1847316
  90.9403138  64.1456109 111.9004785  95.2112151  87.9288789 106.3537991
  94.3749464  88.2663475 106.6747266  95.0716921  87.7937769 105.4165128
  95.0850532  87.7736016 103.5535898  94.2079998  87.6524817 103.1898145
  95.5608285  86.9822095 103.3014787  92.7869000  88.7135019 107.1117554
  92.0938245  88.7879374 106.4557590  92.5420752  87.9495363 107.6339071
  97.8305841  88.7100403 103.3553008  96.9237296  88.4133516 103.4315722
  98.1081822  88.4130221 102.4887295  96.6004625  85.5687339 103.4964988
  97.4623789  85.8942237 103.7560805  96.7854969  84.7818835 102.9838053
  97.5534068  82.8083382 106.7844697  97.5412738  83.7525222 106.9412967
  98.4457490  82.6253527 106.4904158  47.0075745   2.1244913  92.6212461
  46.3337443   2.4276610  93.2297418  47.3941567   2.9273994  92.2717918
  49.0983215  -6.0846874  91.1559901  48.4812385  -6.8100046  91.0592953
  48.6299703  -5.3237513  90.8126975  50.9732485  -0.2969603  93.8952284
  51.6683390   0.3237089  94.1139598  51.3155635  -1.1474252  94.1704662
  45.0647354  -0.1907852  92.8027377  44.4921321   0.4282336  92.3497849
  45.6380147   0.3591510  93.3367299  48.2844614   0.0929299  93.9335960
  49.2175287   0.0274860  94.1368835  48.1967826   0.9285565  93.4750492
  50.9132630  -0.5904831  90.8939907  50.8346262  -0.9244967  91.7875665
  51.7342297  -0.0983063  90.8931380  48.4836582  -3.2736836  90.5149886
  49.1872432  -3.0686833  91.1307541  47.7599231  -2.7060074  90.7798969
  50.3923279  -2.8354306  92.5648346  51.2268883  -3.2673108  92.3825820
  50.2307622  -3.0072293  93.4925240  59.0207555   7.6815345 102.6603522
  59.6585964   7.5622092 101.9566862  58.9028397   8.6296189 102.7191474
  55.8297261   7.6342773 102.5965047  55.4915772   7.5183837 101.7085582
  56.6987029   7.2333938 102.5766053  51.6884077   9.4878249  98.5861938
  51.1248942   9.3968186  97.8178226  51.5736472   8.6678154  99.0664430
  57.2683635  13.1549217  93.8976403  56.6171615  13.7403297  93.5110417
  58.0627998  13.6855412  93.9571440  51.1939262  10.2438354  94.2963537
  51.9670138   9.6967341  94.1576413  51.5464661  11.1082603  94.5077999
  53.5305540   6.4031020  91.9281987  53.7831061   5.8812541  91.1665450
  52.5930099   6.2397166  92.0308671  58.5748823   5.4066799  99.7356730
  59.3611912   4.9886222  99.3847147  58.8387527   6.3112891  99.9038379
  58.7458900  10.8439649  94.4345387  58.1104733  10.9174275  95.1466292
  58.4156307  11.4333248  93.7564466  63.9757250   5.3442032 100.6389709
  64.7082422   4.7741249 100.8727538  63.2196606   4.9563632 101.0796214
  53.2501829   8.3059126  94.1306362  53.1338087   7.6304029  94.7987446
  53.3604089   7.8191500  93.3138515  55.5933370   7.7669273  97.8353051
  55.2291577   7.2399894  98.5465973  56.4500486   7.3767742  97.6619537
  55.2338857   2.7959173  92.8314400  55.4013259   3.6639409  93.1984871
  55.0436026   2.9586455  91.9075689  57.9914190  11.2576152 104.4980230
  57.6914913  12.1601191 104.3896037  57.6465250  10.9908335 105.3501383
  61.3911334   3.7758692 102.1777668  60.4828211   3.7074100 101.8836428
  61.3398930   4.2530637 103.0059493  55.2128078   5.2516830  93.8161067
  55.0927703   5.6973881  94.6546547  54.5180666   5.6002148  93.2574605
  52.9734970  18.0220472  97.4651198  52.8959000  18.9728297  97.5439678
  52.3696613  17.6766345  98.1226124  60.9113144   5.7238304  94.6441401
  61.8231000   5.9565690  94.4689098  60.4022791   6.3075348  94.0816479
  59.5182726  10.7064122 102.0354982  58.8891589  10.8709836 101.3331050
  59.1308388  11.1205732 102.8065946  63.3971958  11.6418560  99.3899346
  62.7122996  12.0217461  98.8396379  63.4815807  12.2513887 100.1231294
  55.0710688  10.4438530  99.3005067  55.5349034  10.7226233  98.5109690
  54.8067486   9.5421975  99.1178158  54.0079574   6.5661683  96.1094632
  54.7103617   7.0182726  96.5768559  53.6760203   5.9245501  96.7374526
  61.7668718  12.1650474 104.1617047  62.5886161  11.7630662 103.8799728
  61.7631121  12.0618709 105.1133163  69.8574711   8.5089223 100.5102018
  69.1038419   7.9396621 100.3546023  69.9922252   8.4751887 101.4572653
  55.2473339  13.3802625  96.1856738  55.1119014  14.2254161  96.6141585
  55.7883151  13.5821903  95.4222671  48.7002736  10.8978063  96.7584663
  49.2127257  11.6921313  96.9090227  49.3525449  10.2004354  96.6918264
  50.5097621  14.0143819  98.8407416  50.6864249  14.9361784  98.6528400
  51.3054454  13.7002239  99.2701796  51.6328936  15.5321993 104.8417758
  52.1836361  15.4039057 104.0694752  50.7940412  15.8316882 104.4912651
  46.6651653   9.2266717  97.5344233  47.5026875   9.6363726  97.3177941
  46.8429921   8.2866160  97.5044427  58.5616085   6.8941798  93.2228066
  58.0462708   7.6646403  93.4616454  58.2893393   6.2206934  93.8461128
  56.1463196   1.7391499  98.2813305  55.2904792   1.3498349  98.1018943
  56.5590148   1.8183460  97.4213090  63.5350359   9.6474153  95.1581240
  62.7579802   9.3085312  94.7136402  64.2141840   9.6526776  94.4836205
  58.3502388   4.7668890  95.0487847  58.0452524   5.0815039  95.8997991
  59.3032830   4.8450310  95.0915180  56.7948820  10.9259114  96.6980801
  56.2670182  10.1911873  96.3854039  56.2936323  11.7033790  96.4520770
  61.7741666   9.1208134 101.8147848  61.1165341   9.8107395 101.9027976
  62.5782065   9.5104566 102.1581834  60.5847125   7.4752507  99.8651789
  61.0979007   8.1082499 100.3673499  61.2348349   6.8753702  99.4995149
  51.8537135   3.6183241  93.0783298  51.0174447   3.9557927  93.3992573
  51.7141904   3.4832221  92.1410435  54.9401420   8.7439324  89.7015774
  54.0328482   8.5128577  89.9006923  55.4372452   7.9476943  89.8889756
  57.8469499  17.4536831  92.6212461  57.1731198  17.7568528  93.2297418
  58.2335321  18.2565911  92.2717918  57.8463004   6.3493378  97.2412810
  58.5934822   6.8614775  96.9319932  58.1154593   6.0277431  98.1017204
  56.1189654   8.8451919  94.2239764  55.2100873   8.5610951  94.3212234
  56.1484737   9.2650997  93.3643071  61.3508921  12.4558508  97.9930932
  60.8971248  11.6149418  98.0496123  60.7202888  13.0919907  98.3305712
  60.2941841   3.3850494  99.2231599  59.5564597   2.8727880  99.5541842
  60.5468614   2.9450876  98.4114876  59.7941860  14.2935005  98.9280750
  60.0864835  14.8540062  98.2093116  60.3040481  14.5863566  99.6833909
  54.6674548   6.4580539 100.3249560  54.7223158   5.5054376 100.2492036
  53.8565750   6.6139978 100.8090858  55.8165741  10.3860662  91.5627843
  55.3785171   9.6696521  91.1033480  56.5576182  10.6136777  91.0012934
  52.6066908   5.0757599  98.0839939  51.7934773   5.3751770  98.4905131
  53.1025902   4.6813288  98.8014421  54.7575486  15.0715356 100.0174203
  54.7151664  15.2976202  99.0882735  55.6738184  14.8378731 100.1660005
  63.9338856   8.6617859  97.6204162  63.7956755   8.8519455  96.6925351
  63.5775075   9.4237242  98.0772213  63.9608236  10.7294386 102.6315433
  64.3944743  10.6369675 103.4798487  64.6739817  10.7051887 101.9935449
  52.8741286  11.9478385  99.8136166  53.6681885  11.4528705  99.6118741
  52.1632979  11.4196248  99.4503872  57.6936131  14.3296480 104.1648534
  57.7473153  14.8987417 104.9326250  56.8250912  14.4998366 103.8002571
  49.1824050   6.0921467  95.8895919  48.2521638   6.0305922  96.1065881
  49.2781522   5.5697419  95.0932560  64.8223785  10.7718087 105.1648319
  65.0159676  11.6763898 105.4107593  64.7224404  10.3125506 105.9986904
  55.4512562  12.5207407 103.4934003  55.3123648  12.1526191 104.3659941
  54.6627159  13.0355046 103.3217961  56.0460714  17.6216503  94.8359540
  56.2212470  17.1504547  95.6505162  55.3593502  18.2482270  95.0640800
  57.0017777  11.8989010 100.8822841  56.6667610  11.8589780 101.7780491
  56.5021723  11.2333726 100.4093251  59.9376969   9.2445044  91.1559901
  59.3206140   8.5191872  91.0592953  59.4693458  10.0054404  90.8126975
  50.6121800  20.7705866 101.6099400  50.8518398  21.4024390 102.2878418
  49.7690996  20.4193906 101.8964759  51.7275515   3.4630468  90.2781205
  50.8504981   3.3419269  89.9143452  52.2033268   2.6716547  90.0260094
  55.1249661  16.5784989 104.0140904  55.0519833  17.3839960 104.5260208
  54.6827055  16.7776954 103.1888925  54.9139441  15.8156759  97.5243725
  54.1306963  16.3578439  97.6181950  55.6132186  16.3330738  97.9237967
  58.2236091   1.6251388 100.1677931  58.7204791   0.8721350  99.8479001
  57.4523073   1.6615705  99.6021140  66.0765849   7.3291754 101.8096222
  66.0655725   8.2116469 101.4390155  65.2083228   6.9763304 101.6150759
  57.5848345  16.4771823 106.1699063  58.2976317  17.1119287 106.0974964
  57.0938374  16.5735689 105.3539064  59.3065872  10.3823075  97.7416354
  58.3722151  10.5024538  97.5721059  59.4842540   9.4795542  97.4776364
  62.6938423   6.2240395  98.2766388  63.1598875   7.0568386  98.2026691
  63.1445924   5.7585376  98.9811647  60.7614654  12.5684216  95.2752540
  61.0374498  12.4540810  96.1846414  59.8919153  12.1701701  95.2364713
  57.3968718  16.8170567  98.9185354  57.5791113  15.9992223  99.3813106
  58.2201704  17.0338259  98.4810244  57.7310884  15.7438752  96.1800402
  58.2598650  15.2331206  95.5670565  57.9939103  15.4281282  97.0445936
  51.0866632  16.7953869  98.9398178  50.4177007  17.2799996  98.4562218
  50.9479501  17.0423089  99.8541557  55.2271900  18.8297612 105.5380837
  55.7790208  18.9929234 106.3029922  55.5678094  19.4202050 104.8660862
  46.4554209   5.0572324  95.7194111  46.7507650   4.1483002  95.6661164
  45.5542245   5.0360063  95.3975113  58.3640288  16.7779588 102.5244519
  58.2391427  15.9769327 102.0155464  59.0219379  17.2725781 102.0358489
  60.4275196  14.5788608 104.1524069  59.4805532  14.4593959 104.0802396
  60.7757969  13.6911106 104.2350330  48.1842050   2.7386421  95.8433436
  47.8554757   1.8583800  95.6608542  48.5381421   2.6834090  96.7309825
  57.4321629  14.3741324 100.3528421  57.2846592  13.4458031 100.5335991
  58.2575123  14.3961415  99.8685496  51.2983874   3.0259391  96.2108913
  51.6379946   3.5545312  95.4887522  51.7455994   3.3639797  96.9867480
  61.0355751  15.1969883 101.4393294  61.9602299  14.9912744 101.3017745
  60.8671055  14.9486284 102.3482636  53.2852021   1.5234013  94.4102206
  54.0060383   1.9015265  93.9065923  52.6617325   2.2422889  94.5137184
  57.4283144   2.2279162  95.3460538  57.6446758   3.1103799  95.0449367
  56.9477211   1.8365375  94.6166180  60.8251067  15.7155550  96.7955385
  60.9987945  15.1501973  96.0429238  61.3179959  16.5156445  96.6134875
  53.4315644   1.0581803  97.2399743  53.5531555   0.1298449  97.4390630
  53.1417686   1.0720489  96.3278058  66.6790459   8.4791973  98.4145685
  67.1221605   7.7299298  98.0164808  65.8016969   8.4702109  98.0319417
  61.8126240  15.0322314  93.8952284  62.5077144  15.6529007  94.1139598
  62.1549390  14.1817666  94.1704662  63.7117663  12.4822020  95.4239615
  64.2368987  12.8209293  94.6988935  63.6240016  11.5469035  95.2402749
  55.3958324  18.5494003  99.7834868  54.9563314  18.0570382 100.4767724
  56.1466441  18.0066971  99.5426943  47.8750663  14.7405544  99.7859496
  48.7008683  14.4409316  99.4058139  47.5244715  13.9713167 100.2349284
  52.8432196  14.0932012 101.8557169  52.2212205  13.4302717 101.5559397
  53.5137063  14.1193144 101.1730817  46.0759268  12.6591871 100.7448429
  45.2391176  12.2314045 100.5632431  46.0482913  12.8524314 101.6819221
  52.4045703  12.6435936  95.3315630  52.5533823  13.3271400  94.6782303
  53.2112146  12.6241026  95.8465086  65.0227641  12.3844332 108.2865563
  64.7312449  12.7474312 109.1229024  64.4099772  11.6711340 108.1078895
  66.2223323   9.9497211 100.8068133  67.0570215  10.3887015 100.9705693
  66.3582452   9.4735865  99.9876379  50.1598336   8.6701113  96.3376699
  49.9144378   7.7663443  96.5356909  50.3294250   8.6718264  95.3956177
  49.4293983   4.4029471  93.8362860  48.7363228   4.4773826  93.1802896
  49.1845735   3.6389815  94.3584377  55.9041108  15.1384066  92.8027377
  55.3315075  15.7574253  92.3497849  56.4773902  15.6883428  93.3367299
  59.1238368  15.4221216  93.9335960  60.0569041  15.3566778  94.1368835
  59.0361581  16.2577483  93.4750492  61.7526385  14.7387087  90.8939907
  61.6740016  14.4046950  91.7875665  62.5736052  15.2308855  90.8931380
  64.4504576   7.6048826 104.1016226  64.4180896   6.6664827 104.2875910
  65.0605200   7.6832863 103.3682051  56.2887907   6.4744879  90.1443430
  57.2347012   6.3451087  90.2131848  55.9102152   5.7359541  90.6212858
  70.2681126   8.6664833 103.2422263  70.9984514   8.4050121 103.8029966
  69.6588071   7.9293555 103.2824331  68.3496423   6.8072695 103.8396714
  67.6229586   6.6728660 103.2313205  67.9343710   7.1149524 104.6453432
  54.4730824   4.3994855  90.0798315  53.5662279   4.1027968  90.1561029
  54.7506805   4.1024673  89.2132601  56.0892890  -1.0568255  96.2342556
  55.2793618  -1.4021170  96.6097802  56.7777307  -1.3660711  96.8230168
  53.2429609   1.2581791  90.2210294  54.1048773   1.5836689  90.4806112
  53.4279953   0.4713286  89.7083360  61.3962245   0.1310317  97.3645517
  60.8160914   0.7895121  96.9823570  61.1298178  -0.6912338  96.9532935
  60.1787123   2.2910407  96.4201866  59.2912978   2.5760058  96.2022060
  60.5941112   2.1304171  95.5729142  63.5301659   2.3156928 100.1356205
  64.3062049   2.8053381 100.4080822  62.8049793   2.7414983 100.5928074
  65.9674218   3.0284548 101.1930145  66.5618709   2.7880284 100.4823454
  66.0400802   2.3091678 101.8203682  48.1871374  16.8718159 101.5073310
  48.0525841  16.1118559 100.9411308  47.7703436  17.5959058 101.0402099
  59.3230337  12.0555082  90.5149886  60.0266187  12.2605085  91.1307541
  58.5992985  12.6231844  90.7798969  60.1528147   7.8064943  96.6352156
  60.0963348   8.2633495  95.7959788  60.7056489   7.0455628  96.4574998
  63.9632953   3.5954675  97.4602275  63.7069887   3.1951311  98.2910483
  63.3385821   4.3098469  97.3352414  68.2745291   6.3350748  99.9673567
  67.7144849   6.4043938 100.7405129  67.6688794   6.1591733  99.2473063
  51.3440499  17.7687476 101.7191753  51.2272884  18.7132908 101.6170443
  50.5232946  17.4661037 102.1077552  61.2317034  12.4937611  92.5648346
  62.0662638  12.0618810  92.3825820  61.0701377  12.3219625  93.4925240
  60.8862926   8.9969725  93.9304685  60.8311730   8.8313996  92.9893129
  60.2608981   9.7045757  94.0866875  54.1959052  -1.5022166  93.5090003
  54.1837721  -0.5580327  93.6658274  55.0882473  -1.6852021  93.2149464
  52.3695014  18.4215737 104.9347681  53.2722260  18.4539348 105.2514176
  52.1432384  17.4916188 104.9494017  54.1248616  17.1746724 101.5957760
  53.1744247  17.1748586 101.4822132  54.4281102  16.4279459 101.0793795
  69.8601309  23.0107262 102.6603522  70.4979719  22.8914010 101.9566862
  69.7422152  23.9588106 102.7191474  66.6691015  22.9634690 102.5965047
  66.3309527  22.8475755 101.7085582  67.5380784  22.5625856 102.5766053
  62.5277831  24.8170167  98.5861938  61.9642696  24.7260104  97.8178226
  62.4130226  23.9970071  99.0664430  67.1510798  24.1169542 108.5551253
  67.1399439  23.7222340 107.6831756  67.3131438  23.3835615 109.1485024
  60.0742263  26.3121358 101.4246158  60.8663555  25.9712183 101.0092458
  60.3138913  26.4216334 102.3448312  68.1077390  28.4841135  93.8976403
  67.4565369  29.0695215  93.5110417  68.9021753  29.0147329  93.9571440
  62.0333017  25.5730272  94.2963537  62.8063893  25.0259259  94.1576413
  62.3858416  26.4374521  94.5077999  63.8718059  26.9006654 107.5030436
  63.5807925  27.8052285 107.3877103  64.5075044  26.9423182 108.2174506
  64.7974266  24.2783503 104.0931796  65.3937839  24.0539525 103.3788759
  64.8549238  23.5368248 104.6957244  64.3699295  21.7322938  91.9281987
  64.6224815  21.2104459  91.1665450  63.4323854  21.5689083  92.0308671
  69.4142578  20.7358716  99.7356730  70.2005667  20.3178139  99.3847147
  69.6781282  21.6404808  99.9038379  69.5852655  26.1731567  94.4345387
  68.9498488  26.2466193  95.1466292  69.2550061  26.7625165  93.7564466
  74.8151005  20.6733949 100.6389709  75.5476177  20.1033166 100.8727538
  74.0590360  20.2855550 101.0796214  64.0895583  23.6351044  94.1306362
  63.9731842  22.9595947  94.7987446  64.1997843  23.1483418  93.3138515
  66.4327124  23.0961191  97.8353051  66.0685332  22.5691812  98.5465973
  67.2894240  22.7059660  97.6619537  72.3376425  14.3855524 105.0984317
  72.0059750  15.2550934 104.8745532  71.7422038  14.0691808 105.7778348
  66.0732611  18.1251091  92.8314400  66.2407014  18.9931327  93.1984871
  65.8829780  18.2878372  91.9075689  68.8307945  26.5868069 104.4980230
  68.5308668  27.4893108 104.3896037  68.4859004  26.3200253 105.3501383
  62.2820426  23.0381866 100.5316935  61.3570922  22.9058080 100.7394626
  62.5304839  23.8176086 101.0286877  72.2305088  19.1050610 102.1777668
  71.3221966  19.0366018 101.8836428  72.1792684  19.5822555 103.0059493
  66.0521832  20.5808748  93.8161067  65.9321457  21.0265799  94.6546547
  65.3574421  20.9294066  93.2574605  59.6429237  22.6815140 101.3660724
  59.7721618  22.9349619 102.2800135  58.9626688  23.2742848 101.0465379
  63.8128724  33.3512390  97.4651198  63.7352754  34.3020215  97.5439678
  63.2090368  33.0058262  98.1226124  66.3045954  20.5240255 110.1212565
  65.5279288  21.0834175 110.1115429  66.9436517  21.0097038 110.6427435
  74.0966735  17.3067048 103.9555541  73.4541115  17.5999581 103.3095336
  73.5921663  17.1919968 104.7608738  71.7506898  21.0530221  94.6441401
  72.6624754  21.2857608  94.4689098  71.2416545  21.6367265  94.0816479
  64.5592326  23.3325709 109.6830532  65.3007011  23.8710753 109.4065355
  63.8529312  23.9591997 109.8402084  70.0347666  25.4754849 108.2802693
  70.4431022  25.0337260 107.5357326  69.3124928  24.9007477 108.5336886
  66.3878736  20.4127456 105.6536250  67.2339931  20.8366869 105.7970899
  66.3277374  19.7561080 106.3474813  70.3576481  26.0356040 102.0354982
  69.7285343  26.2001754 101.3331050  69.9702143  26.4497649 102.8065946
  74.2365713  26.9710478  99.3899346  73.5516751  27.3509379  98.8396379
  74.3209562  27.5805804 100.1231294  69.5378181  18.0731824 107.3117424
  69.2939113  18.8273885 106.7751700  69.8138112  18.4517172 108.1464671
  71.4916644  24.6170437 105.9894689  71.7033539  25.2602196 105.3129071
  71.4446392  23.7832753 105.5216620  69.0942873  17.2288257 102.8931262
  68.2327352  17.5269511 103.1847999  69.1205308  17.4458656 101.9612294
  65.9104443  25.7730448  99.3005067  66.3742788  26.0518151  98.5109690
  65.6461241  24.8713892  99.1178158  62.8028524  25.3201929 102.2384831
  63.3729881  25.7489198 101.6002315  63.3936635  25.0384514 102.9369016
  64.8473329  21.8953600  96.1094632  65.5497372  22.3474644  96.5768559
  64.5153957  21.2537419  96.7374526  63.2953690  20.4865357 110.4845842
  62.6652351  21.1681638 110.7181239  63.1889778  20.3748438 109.5398980
  58.5898663  20.1537153 101.4111766  57.7997717  20.4094681 100.9351877
  59.0809910  20.9685491 101.5163806  72.6062472  27.4942392 104.1617047
  73.4279916  27.0922579 103.8799728  72.6024875  27.3910626 105.1133163
  60.5413408  20.5181732  98.3695243  59.7444571  20.6300426  98.8878738
  60.3139000  20.8568384  97.5036133  66.3719076  27.0426435 106.3177757
  66.4363508  27.5046843 107.1535929  65.6629999  26.4123800 106.4460067
  56.8736366  20.4067643 103.8426757  57.1244404  21.2914653 104.1084333
  57.4095914  20.2272245 103.0701849  80.6968465  23.8381140 100.5102018
  79.9432174  23.2688539 100.3546023  80.8316006  23.8043805 101.4572653
  66.0867093  28.7094543  96.1856738  65.9512768  29.5546079  96.6141585
  66.6276906  28.9113820  95.4222671  59.5396491  26.2269981  96.7584663
  60.0521011  27.0213231  96.9090227  60.1919203  25.5296271  96.6918264
  61.3491375  29.3435737  98.8407416  61.5258004  30.2653702  98.6528400
  62.1448209  29.0294156  99.2701796  65.4902394  16.2044002 110.4391349
  66.2312107  16.8051155 110.3595812  65.7220317  15.4621640 109.8809392
  60.6343732  21.3900369 108.7169579  60.5197247  20.4885626 109.0176678
  59.7788250  21.6364066 108.3654396  67.7135570  29.3318109 110.3157080
  67.2699424  28.5454488 109.9977984  68.3752783  29.5197260 109.6500970
  62.4722691  30.8613911 104.8417758  63.0230116  30.7330974 104.0694752
  61.6334167  31.1608800 104.4912651  69.8116808  29.6120909 108.3438481
  69.7935283  30.4329790 107.8518750  70.7336728  29.4874984 108.5688622
  66.2689862  27.1265039 109.1861989  66.8018199  26.3653327 108.9561297
  65.7403943  26.8338691 109.9286144  69.4359557  12.2325105 104.7155631
  69.0923826  13.1226746 104.6394742  69.8038519  12.0426762 103.8525216
  57.5045407  24.5558635  97.5344233  58.3420629  24.9655644  97.3177941
  57.6823675  23.6158077  97.5044427  69.4009840  22.2233716  93.2228066
  68.8856463  22.9938320  93.4616454  69.1287148  21.5498852  93.8461128
  66.9856951  17.0683417  98.2813305  66.1298547  16.6790267  98.1018943
  67.3983902  17.1475377  97.4213090  68.5156097  14.6029760 102.6804864
  68.0120893  14.5659895 101.8672670  68.8086704  15.5122503 102.7401521
  64.7598983  14.6868490 101.6871046  65.6251980  14.4911298 101.3276936
  64.8276492  14.4578841 102.6140403  74.3744114  24.9766070  95.1581240
  73.5973556  24.6377230  94.7136402  75.0535595  24.9818694  94.4836205
  69.1896143  20.0960808  95.0487847  68.8846278  20.4106957  95.8997991
  70.1426585  20.1742228  95.0915180  67.6342575  26.2551031  96.6980801
  67.1063936  25.5203791  96.3854039  67.1330077  27.0325708  96.4520770
  72.6135421  24.4500052 101.8147848  71.9559095  25.1399313 101.9027976
  73.4175820  24.8396484 102.1581834  62.3661302  16.9170697  99.0587413
  62.9405054  16.6945879  98.3260606  62.9532285  16.9859392  99.8116014
  71.4240879  22.8044424  99.8651789  71.9372761  23.4374416 100.3673499
  72.0742103  22.2045620  99.4995149  62.6930889  18.9475159  93.0783298
  61.8568202  19.2849845  93.3992573  62.5535659  18.8124138  92.1410435
  64.6683970  13.7911946  97.7862482  64.0148382  13.4760964  97.1619097
  64.6264444  13.1687687  98.5122305  65.7795175  24.0731241  89.7015774
  64.8722236  23.8420495  89.9006923  66.2766207  23.2768861  89.8889756
  68.6863254  32.7828749  92.6212461  68.0124952  33.0860445  93.2297418
  69.0729076  33.5857829  92.2717918  67.9021710  20.2793880 102.1110130
  66.9844272  20.5008827 101.9531818  68.3181854  20.3540190 101.2521837
  68.6856758  21.6785296  97.2412810  69.4328577  22.1906693  96.9319932
  68.9548348  21.3569348  98.1017204  66.9583408  24.1743836  94.2239764
  66.0494627  23.8902869  94.3212234  66.9878492  24.5942915  93.3643071
  72.1902676  27.7850426  97.9930932  71.7365003  26.9441336  98.0496123
  71.5596642  28.4211824  98.3305712  71.1335595  18.7142412  99.2231599
  70.3958352  18.2019798  99.5541842  71.3862369  18.2742793  98.4114876
  70.6335615  29.6226923  98.9280750  70.9258589  30.1831980  98.2093116
  71.1434235  29.9155484  99.6833909  71.2347222  11.4918664  99.8173369
  71.5406099  10.6316027  99.5299284  71.9599827  12.0836284  99.6172363
  57.5271579  21.8949350  98.2054967  57.3295978  21.3018711  97.4806033
  56.9718243  21.5901561  98.9230905  65.5068302  21.7872457 100.3249560
  65.5616912  20.8346293 100.2492036  64.6959504  21.9431896 100.8090858
  66.6559496  25.7152580  91.5627843  66.2178926  24.9988439  91.1033480
  67.3969937  25.9428695  91.0012934  63.4460662  20.4049517  98.0839939
  62.6328528  20.7043687  98.4905131  63.9419656  20.0105205  98.8014421
  65.5969240  30.4007274 100.0174203  65.5545419  30.6268120  99.0882735
  66.5131939  30.1670648 100.1660005  69.0434874  20.8691341 106.9154833
  69.3984262  21.0962814 107.7749298  69.6907005  21.2009718 106.2932088
  74.7732611  23.9909777  97.6204162  74.6350509  24.1811373  96.6925351
  74.4168830  24.7529160  98.0772213  62.9374737  17.9767872 103.7001174
  63.5774116  17.8356631 103.0024137  62.1052267  17.6902386 103.3239776
  74.8001990  26.0586304 102.6315433  75.2338497  25.9661593 103.4798487
  75.5133571  26.0343805 101.9935449  63.7135041  27.2770303  99.8136166
  64.5075639  26.7820623  99.6118741  63.0026733  26.7488166  99.4503872
  68.5329885  29.6588398 104.1648534  68.5866908  30.2279334 104.9326250
  67.6644667  29.8290283 103.8002571  60.0217804  21.4213384  95.8895919
  59.0915392  21.3597840  96.1065881  60.1175276  20.8989337  95.0932560
  59.9403353  17.9468197  98.4774160  60.2010171  18.8613530  98.3683321
  60.7620526  17.4792640  98.6270773  61.4128279  19.3605954 105.6472985
  62.0851332  19.1523316 104.9985634  60.5858065  19.1628040 105.2078217
  75.6617540  26.1010005 105.1648319  75.8553430  27.0055815 105.4107593
  75.5618158  25.6417424 105.9986904  67.3153851  15.9867895 107.6638646
  66.6681766  16.6857845 107.5703122  68.0854866  16.4204039 108.0314894
  70.7232649  26.2516747 110.7389199  70.5718155  26.0227299 109.8219283
  70.7137328  27.2087349 110.7520544  67.4917985  23.8248660 105.7235466
  68.4210045  23.9759820 105.5504433  67.0709015  23.9132681 104.8684112
  66.2906317  27.8499325 103.4934003  66.1517402  27.4818109 104.3659941
  65.5020913  28.3646964 103.3217961  66.8854469  32.9508421  94.8359540
  67.0606224  32.4796464  95.6505162  66.1987257  33.5774187  95.0640800
  67.8411532  27.2280927 100.8822841  67.5061365  27.1881697 101.7780491
  67.3415478  26.5625643 100.4093251  61.8155776  22.6348557 106.4075422
  61.6775574  21.9028796 107.0086961  62.7260699  22.5457457 106.1259610
  70.7770724  24.5736962  91.1559901  70.1599894  23.8483790  91.0592953
  70.3087212  25.3346322  90.8126975  64.4438077  22.3468517 105.8959102
  65.1537695  21.7061709 105.8545720  64.4007385  22.5981412 106.8185283
  72.4324855  29.2835870 108.8165681  72.3737401  28.5995090 108.1496264
  72.8344374  30.0254860 108.3646307  63.1567011  19.3333735 107.7154741
  62.6204368  18.8824473 108.3676338  62.5683719  19.4679643 106.9725206
  61.4515554  36.0997784 101.6099400  61.6912152  36.7316308 102.2878418
  60.6084751  35.7485824 101.8964759  62.5669270  18.7922386  90.2781205
  61.6898736  18.6711187  89.9143452  63.0427023  18.0008464  90.0260094
  72.4342263  27.2475454 107.0479661  71.5469041  26.9101376 107.1706060
  73.0040814  26.5158485 107.2848426  54.0871410  23.5799546 100.3722712
  54.7742449  23.2661276  99.7843727  53.9319538  24.4840910 100.0989963
  58.8906132  18.4689742 104.8007736  58.8064321  17.8615412 104.0658146
  58.0688838  18.9598761 104.8017232  65.9643416  31.9076906 104.0140904
  65.8913587  32.7131878 104.5260208  65.5220809  32.1068872 103.1888925
  65.7533196  31.1448676  97.5243725  64.9700717  31.6870356  97.6181950
  66.4525941  31.6622656  97.9237967  69.0629846  16.9543306 100.1677931
  69.5598545  16.2013268  99.8479001  68.2916827  16.9907622  99.6021140
  76.9159603  22.6583671 101.8096222  76.9049479  23.5408387 101.4390155
  76.0476982  22.3055222 101.6150759  68.4242099  31.8063740 106.1699063
  69.1370072  32.4411205 106.0974964  67.9332128  31.9027606 105.3539064
  70.1459626  25.7114993  97.7416354  69.2115905  25.8316455  97.5721059
  70.3236295  24.8087460  97.4776364  65.6464814  19.0960689  99.8949615
  65.2762602  18.5431729 100.5830521  66.1423907  18.4918822  99.3424615
  73.5332178  21.5532312  98.2766388  73.9992630  22.3860304  98.2026691
  73.9839678  21.0877294  98.9811647  63.4754013  29.5558184 106.9904633
  64.1763472  30.1894667 107.1434028  63.0049128  29.8972915 106.2300273
  71.6008409  27.8976134  95.2752540  71.8768253  27.7832728  96.1846414
  70.7312908  27.4993618  95.2364713  71.5048840  13.9212899 102.3157290
  70.5911920  14.1517126 102.4839497  71.9341942  14.0051343 103.1671322
  71.2755299  22.1102791 104.8157184  70.6226749  22.3578699 104.1609636
  71.6535679  21.2966929 104.4819661  68.2362473  32.1462484  98.9185354
  68.4184867  31.3284140  99.3813106  69.0595459  32.3630177  98.4810244
  68.5704638  31.0730670  96.1800402  69.0992405  30.5623124  95.5670565
  68.8332858  30.7573200  97.0445936  67.3242872  22.8522602 111.3023221
  66.6483509  22.7516732 111.9725596  68.1470506  22.6961816 111.7659218
  59.0721731  29.0894539 103.9235736  59.6575168  28.3438227 104.0563640
  58.8746569  29.3998496 104.8072400  61.9260386  32.1245786  98.9398178
  61.2570762  32.6091914  98.4562218  61.7873256  32.3715007  99.8541557
  53.6639386  21.6600139 102.6440179  53.7023485  21.1263730 103.4377297
  53.1579679  21.1335345 102.0251156  66.0665655  34.1589530 105.5380837
  66.6183963  34.3221151 106.3029922  66.4071848  34.7493968 104.8660862
  61.0430148  16.5064680 106.1402721  61.1071475  17.3679510 105.7280119
  60.9797268  15.8938681 105.4075080  60.5182421  18.5787812 109.7875756
  61.1454459  18.1964889 110.4013280  59.6610339  18.3602014 110.1531448
  70.9176529  28.9850787 111.3929491  71.4616433  29.5980746 110.8984446
  70.3363374  29.5430366 111.9096504  57.2947963  20.3864241  95.7194111
  57.5901404  19.4774920  95.6661164  56.3935999  20.3651981  95.3975113
  69.2034042  32.1071505 102.5244519  69.0785182  31.3061245 102.0155464
  69.8613133  32.6017699 102.0358489  60.8242210  18.4620238 101.7021659
  60.1028796  19.0756205 101.5629132  61.6135466  18.9978003 101.6238305
  71.2668950  29.9080525 104.1524069  70.3199286  29.7885877 104.0802396
  71.6151724  29.0203023 104.2350330  63.6268524  15.7974664 107.9762311
  64.1502926  16.0436961 108.7388620  63.4080857  16.6294699 107.5565448
  59.0235805  18.0678339  95.8433436  58.6948511  17.1875718  95.6608542
  59.3775176  18.0126008  96.7309825  68.2715384  29.7033242 100.3528421
  68.1240346  28.7749949 100.5335991  69.0968877  29.7253332  99.8685496
  62.1377628  18.3551309  96.2108913  62.4773701  18.8837230  95.4887522
  62.5849749  18.6931715  96.9867480  71.8749506  30.5261800 101.4393294
  72.7996053  30.3204662 101.3017745  71.7064809  30.2778201 102.3482636
  64.8321069  16.7388359 105.6611981  64.4917889  15.9396172 106.0632661
  64.1260075  17.0390070 105.0888815  65.4837541  13.8237672 104.1139304
  66.3063610  13.3498150 103.9918195  65.7275604  14.6028156 104.6137991
  64.1245775  16.8525930  94.4102206  64.8454138  17.2307183  93.9065923
  63.5011079  17.5714807  94.5137184  68.2676898  17.5571079  95.3460538
  68.4840512  18.4395717  95.0449367  67.7870965  17.1657293  94.6166180
  63.0076119  20.5156792 101.9231283  62.8620700  20.8297096 102.8155565
  62.5301323  21.1341693 101.3702182  64.8672502  17.5059340 101.9712173
  64.8534071  16.6100434 101.6344471  65.5844930  17.5130004 102.6050459
  66.7198633  17.9396681 104.0165300  66.4616411  18.8613751 104.0149631
  66.1883673  17.5427115 104.7065764  71.6644822  31.0447468  96.7955385
  71.8381699  30.4793890  96.0429238  72.1573713  31.8448363  96.6134875
  57.4821782  23.0562137 104.8618944  56.9375250  23.8321945 104.9939219
  58.3601132  23.4032941 104.7038066  64.2709398  16.3873721  97.2399743
  64.3925310  15.4590367  97.4390630  63.9811441  16.4012407  96.3278058
  67.1400589  14.0728631 100.3766463  67.1622286  14.1367964  99.4218442
  67.5568648  13.2333140 100.5706969  77.5184213  23.8083891  98.4145685
  77.9615359  23.0591216  98.0164808  76.6410723  23.7994027  98.0319417
  72.6519994  30.3614232  93.8952284  73.3470899  30.9820925  94.1139598
  72.9943144  29.5109583  94.1704662  58.2687804  22.1832033 107.7549101
  57.5269540  22.3314668 108.3413732  57.9480548  22.4440299 106.8915851
  74.5511417  27.8113938  95.4239615  75.0762742  28.1501210  94.6988935
  74.4633770  26.8760953  95.2402749  66.2131466  31.7248011 107.5529491
  66.5218593  31.4797158 108.4252191  67.0106948  31.9294650 107.0648361
  66.2352078  33.8785921  99.7834868  65.7957068  33.3862300 100.4767724
  66.9860195  33.3358889  99.5426943  58.7144417  30.0697462  99.7859496
  59.5402437  29.7701234  99.4058139  58.3638469  29.3005084 100.2349284
  63.6825950  29.4223930 101.8557169  63.0605960  28.7594635 101.5559397
  64.3530817  29.4485062 101.1730817  56.9153022  27.9883788 100.7448429
  56.0784931  27.5605963 100.5632431  56.8876668  28.1816232 101.6819221
  63.7550478  17.9005718 111.4489675  63.8038633  18.7767841 111.0667445
  64.2972992  17.3583111 110.8761319  74.2405324  28.4446841 110.7290812
  73.4500867  28.4270980 110.1895312  74.0038678  28.9835135 111.4839849
  74.3603199  25.2939308 108.0423541  74.4101204  25.1289315 108.9839064
  74.2517122  24.4266567 107.6521422  63.2439457  27.9727853  95.3315630
  63.3927578  28.6563318  94.6782303  64.0505901  27.9532943  95.8465086
  71.6506961  21.2770236 109.3582848  72.5516824  21.1376701 109.0666846
  71.7254935  21.4424691 110.2981025  65.9849766  18.6537090 108.2036034
  65.1153076  18.9470657 107.9318623  66.2209247  19.2377535 108.9243298
  75.8621395  27.7136249 108.2865563  75.5706204  28.0766230 109.1229024
  75.2493527  27.0003257 108.1078895  77.0617078  25.2789129 100.8068133
  77.8963969  25.7178933 100.9705693  77.1976207  24.8027782  99.9876379
  74.1108584  22.8368864 106.7545621  74.5862705  23.0296510 105.9464472
  73.1874149  22.8928050 106.5089004  60.9992090  23.9993031  96.3376699
  60.7538132  23.0955361  96.5356909  61.1688005  24.0010181  95.3956177
  68.6888800  14.8716707 105.7201454  69.2070744  15.6077734 105.3947943
  68.3343933  15.1780701 106.5548214  60.2687738  19.7321389  93.8362860
  59.5756983  19.8065744  93.1802896  60.0239490  18.9681732  94.3584377
  68.9401394  11.2916990 101.2402351  69.2203148  10.6240179 101.8662778
  69.7252001  11.4846086 100.7277015  66.7434863  30.4675984  92.8027377
  66.1708830  31.0866171  92.3497849  67.3167656  31.0175346  93.3367299
  72.8110253  19.7134624 104.9873926  73.7627676  19.8132722 105.0086150
  72.6413703  18.9212892 105.4972011  70.8324632  16.7990207 105.1733327
  70.2374564  17.0795220 104.4779816  70.5474329  17.2884108 105.9450068
  69.9632123  30.7513134  93.9335960  70.8962796  30.6858696  94.1368835
  69.8755335  31.5869401  93.4750492  72.5920139  30.0679004  90.8939907
  72.5133771  29.7338868  91.7875665  73.4129806  30.5600772  90.8931380
  75.2898330  22.9340744 104.1016226  75.2574651  21.9956744 104.2875910
  75.8998954  23.0124780 103.3682051  67.1281661  21.8036797  90.1443430
  68.0740766  21.6743005  90.2131848  66.7495906  21.0651458  90.6212858
  75.4392819  19.7251787 104.1474509  74.9231868  18.9410244 103.9604438
  76.3232767  19.3970504 104.3121028  73.1003546  13.4692803 100.1070322
  72.9028367  13.1607891 100.9913654  73.7103251  14.1954442 100.2368252
  81.1074880  23.9956750 103.2422263  81.8378269  23.7342039 103.8029966
  80.4981826  23.2585472 103.2824331  79.1890177  22.1364613 103.8396714
  78.4623341  22.0020578 103.2313205  78.7737464  22.4441442 104.6453432
  67.0120354  25.8554543 111.6044087  67.9323363  26.0333142 111.7984133
  66.9769937  24.9110588 111.4523786  65.3124578  19.7286773  90.0798315
  64.4056034  19.4319886  90.1561029  65.5900559  19.4316591  89.2132601
  56.2302519  21.0493136 100.5297361  55.9105303  20.1958445 100.2371735
  55.6835947  21.2641715 101.2855329  60.0082426  23.7655577 104.2466868
  60.2268436  24.6972685 104.2654902  60.4208200  23.4063552 105.0321672
  66.9286644  14.2723663  96.2342556  66.1187372  13.9270748  96.6097802
  67.6171061  13.9631206  96.8230168  68.8577192  13.3501710  97.8566853
  69.4108231  13.7697163  98.5156876  69.0947279  12.4237458  97.8989809
  64.0823363  16.5873708  90.2210294  64.9442527  16.9128607  90.4806112
  64.2673707  15.8005204  89.7083360  56.0990779  24.6696048 102.4990483
  55.4054250  24.2550001 101.9860437  56.8463770  24.7116584 101.9023902
  72.2356000  15.4602235  97.3645517  71.6554669  16.1187039  96.9823570
  71.9691932  14.6379579  96.9532935  70.6859566  14.8607292  99.5666838
  71.1859344  14.9723827  98.7581156  71.3295174  14.5568345 100.2067646
  64.7441562  22.7685922 112.4534679  64.2608643  23.5686282 112.6598568
  64.8302501  22.7793867 111.5002123  58.0127521  24.6014302 100.3756498
  57.9898209  24.7001989  99.4238381  58.3228158  25.4479452 100.6973664
  60.6714899  26.6590457 104.4903112  61.6258153  26.6274399 104.4233044
  60.4727423  26.1981080 105.3053338  61.2614281  25.2291573 107.0573910
  62.0807170  25.7235651 107.0808747  61.5351089  24.3123541 107.0291478
  71.0180878  17.6202325  96.4201866  70.1306733  17.9051976  96.2022060
  71.4334867  17.4596088  95.5729142  74.3695414  17.6448846 100.1356205
  75.1455804  18.1345298 100.4080822  73.6443548  18.0706900 100.5928074
  76.8067972  18.3576465 101.1930145  77.4012463  18.1172201 100.4823454
  76.8794556  17.6383596 101.8203682  59.0265128  32.2010076 101.5073310
  58.8919596  31.4410477 100.9411308  58.6097190  32.9250976 101.0402099
  70.1624091  27.3847000  90.5149886  70.8659941  27.5897002  91.1307541
  69.4386740  27.9523762  90.7798969  70.9921901  23.1356861  96.6352156
  70.9357103  23.5925412  95.7959788  71.5450244  22.3747546  96.4574998
  74.8026707  18.9246593  97.4602275  74.5463641  18.5243229  98.2910483
  74.1779575  19.6390387  97.3352414  79.1139045  21.6642666  99.9673567
  78.5538603  21.7335855 100.7405129  78.5082548  21.4883651  99.2473063
  62.1834254  33.0979393 101.7191753  62.0666638  34.0424826 101.6170443
  61.3626700  32.7952955 102.1077552  72.0710788  27.8229529  92.5648346
  72.9056392  27.3910727  92.3825820  71.9095131  27.6511543  93.4925240
  71.7256681  24.3261642  93.9304685  71.6705484  24.1605914  92.9893129
  71.1002736  25.0337675  94.0866875  56.5149196  19.5629707 107.7566107
  57.1608059  19.0528661 108.2453332  56.3066347  20.2998388 108.3309532
  69.0402588  26.6310554 113.2558248  69.9093747  26.8051206 112.8944883
  68.5609339  27.4504971 113.1333977  65.0352806  13.8269751  93.5090003
  65.0231476  14.7711591  93.6658274  65.9276228  13.6439897  93.2149464
  63.2088768  33.7507655 104.9347681  64.1116015  33.7831265 105.2514176
  62.9826138  32.8208106 104.9494017  64.9642370  32.5038642 101.5957760
  64.0138001  32.5040503 101.4822132  65.2674856  31.7571376 101.0793795
  68.8504926  10.4212528  97.7635940  68.0837321   9.8671015  97.9092622
  69.2615630  10.4934397  98.6250092  80.6995064  38.3399180 102.6603522
  81.3373473  38.2205927 101.9566862  80.5815906  39.2880024 102.7191474
  77.5084770  38.2926608 102.5965047  77.1703281  38.1767673 101.7085582
  78.3774538  37.8917773 102.5766053  73.3671585  40.1462085  98.5861938
  72.8036451  40.0552021  97.8178226  73.2523981  39.3261989  99.0664430
  77.9904553  39.4461460 108.5551253  77.9793194  39.0514258 107.6831756
  78.1525192  38.7127532 109.1485024  70.9136017  41.6413276 101.4246158
  71.7057309  41.3004101 101.0092458  71.1532668  41.7508251 102.3448312
  78.9471144  43.8133052  93.8976403  78.2959124  44.3987133  93.5110417
  79.7415507  44.3439247  93.9571440  72.8726771  40.9022189  94.2963537
  73.6457647  40.3551176  94.1576413  73.2252170  41.7666439  94.5077999
  74.7111814  42.2298572 107.5030436  74.4201680  43.1344203 107.3877103
  75.3468798  42.2715099 108.2174506  75.6368021  39.6075420 104.0931796
  76.2331593  39.3831443 103.3788759  75.6942992  38.8660166 104.6957244
  75.2093049  37.0614856  91.9281987  75.4618570  36.5396377  91.1665450
  74.2717608  36.8981001  92.0308671  80.2536332  36.0650634  99.7356730
  81.0399421  35.6470057  99.3847147  80.5175036  36.9696726  99.9038379
  80.4246409  41.5023484  94.4345387  79.7892242  41.5758111  95.1466292
  80.0943816  42.0917083  93.7564466  85.6544759  36.0025867 100.6389709
  86.3869931  35.4325084 100.8727538  84.8984115  35.6147468 101.0796214
  74.9289338  38.9642961  94.1306362  74.8125596  38.2887865  94.7987446
  75.0391598  38.4775335  93.3138515  77.2720879  38.4253109  97.8353051
  76.9079086  37.8983730  98.5465973  78.1287995  38.0351578  97.6619537
  83.1770179  29.7147441 105.0984317  82.8453504  30.5842852 104.8745532
  82.5815793  29.3983725 105.7778348  76.9126366  33.4543008  92.8314400
  77.0800768  34.3223245  93.1984871  76.7223535  33.6170290  91.9075689
  79.6701699  41.9159987 104.4980230  79.3702422  42.8185026 104.3896037
  79.3252759  41.6492170 105.3501383  73.1214180  38.3673784 100.5316935
  72.1964677  38.2349998 100.7394626  73.3698594  39.1468003 101.0286877
  83.0698843  34.4342527 102.1777668  82.1615720  34.3657936 101.8836428
  83.0186439  34.9114472 103.0059493  76.8915587  35.9100666  93.8161067
  76.7715212  36.3557717  94.6546547  76.1968175  36.2585983  93.2574605
  70.4822992  38.0107058 101.3660724  70.6115373  38.2641536 102.2800135
  69.8020443  38.6034766 101.0465379  74.6522479  48.6804308  97.4651198
  74.5746509  49.6312133  97.5439678  74.0484122  48.3350180  98.1226124
  77.1439709  35.8532173 110.1212565  76.3673043  36.4126093 110.1115429
  77.7830272  36.3388956 110.6427435  84.9360489  32.6358966 103.9555541
  84.2934869  32.9291499 103.3095336  84.4315418  32.5211886 104.7608738
  82.5900653  36.3822139  94.6441401  83.5018509  36.6149526  94.4689098
  82.0810300  36.9659183  94.0816479  75.3986081  38.6617626 109.6830532
  76.1400765  39.2002670 109.4065355  74.6923066  39.2883915 109.8402084
  80.8741421  40.8046767 108.2802693  81.2824777  40.3629177 107.5357326
  80.1518682  40.2299394 108.5336886  77.2272491  35.7419374 105.6536250
  78.0733686  36.1658787 105.7970899  77.1671128  35.0852998 106.3474813
  81.1970235  41.3647957 102.0354982  80.5679098  41.5293672 101.3331050
  80.8095897  41.7789567 102.8065946  85.0759467  42.3002395  99.3899346
  84.3910505  42.6801297  98.8396379  85.1603316  42.9097722 100.1231294
  80.3771936  33.4023742 107.3117424  80.1332868  34.1565802 106.7751700
  80.6531866  33.7809090 108.1464671  82.3310399  39.9462354 105.9894689
  82.5427294  40.5894114 105.3129071  82.2840147  39.1124671 105.5216620
  79.9336628  32.5580175 102.8931262  79.0721107  32.8561428 103.1847999
  79.9599062  32.7750574 101.9612294  76.7498197  41.1022365  99.3005067
  77.2136543  41.3810068  98.5109690  76.4854995  40.2005810  99.1178158
  73.6422278  40.6493847 102.2384831  74.2123635  41.0781115 101.6002315
  74.2330390  40.3676432 102.9369016  75.6867083  37.2245518  96.1094632
  76.3891126  37.6766562  96.5768559  75.3547712  36.5829337  96.7374526
  74.1347445  35.8157274 110.4845842  73.5046105  36.4973555 110.7181239
  74.0283533  35.7040356 109.5398980  69.4292417  35.4829071 101.4111766
  68.6391471  35.7386599 100.9351877  69.9203664  36.2977408 101.5163806
  83.4456227  42.8234310 104.1617047  84.2673670  42.4214497 103.8799728
  83.4418629  42.7202544 105.1133163  71.3807162  35.8473650  98.3695243
  70.5838326  35.9592344  98.8878738  71.1532755  36.1860302  97.5036133
  77.2112830  42.3718353 106.3177757  77.2757263  42.8338760 107.1535929
  76.5023754  41.7415718 106.4460067  67.7130120  35.7359561 103.8426757
  67.9638158  36.6206571 104.1084333  68.2489668  35.5564162 103.0701849
  91.5362220  39.1673058 100.5102018  90.7825928  38.5980456 100.3546023
  91.6709761  39.1335723 101.4572653  76.9260848  44.0386460  96.1856738
  76.7906523  44.8837996  96.6141585  77.4670660  44.2405738  95.4222671
  73.4128187  30.1178040 112.8471093  73.0195133  29.5644239 113.5218737
  74.2294328  30.4288619 113.2377610  70.3790245  41.5561899  96.7584663
  70.8914766  42.3505149  96.9090227  71.0312958  40.8588189  96.6918264
  72.1885130  44.6727655  98.8407416  72.3651758  45.5945619  98.6528400
  72.9841963  44.3586074  99.2701796  76.3296148  31.5335919 110.4391349
  77.0705862  32.1343073 110.3595812  76.5614071  30.7913557 109.8809392
  71.4737486  36.7192287 108.7169579  71.3591002  35.8177544 109.0176678
  70.6182004  36.9655983 108.3654396  78.5529324  44.6610027 110.3157080
  78.1093178  43.8746406 109.9977984  79.2146538  44.8489177 109.6500970
  73.3116445  46.1905829 104.8417758  73.8623870  46.0622892 104.0694752
  72.4727921  46.4900718 104.4912651  80.6510562  44.9412827 108.3438481
  80.6329038  45.7621708 107.8518750  81.5730482  44.8166902 108.5688622
  77.1083616  42.4556956 109.1861989  77.6411953  41.6945245 108.9561297
  76.5797697  42.1630608 109.9286144  80.2753311  27.5617022 104.7155631
  79.9317581  28.4518664 104.6394742  80.6432274  27.3718680 103.8525216
  68.3439162  39.8850553  97.5344233  69.1814384  40.2947561  97.3177941
  68.5217430  38.9449995  97.5044427  80.2403594  37.5525633  93.2228066
  79.7250217  38.3230238  93.4616454  79.9680902  36.8790770  93.8461128
  77.8250705  32.3975334  98.2813305  76.9692301  32.0082185  98.1018943
  78.2377657  32.4767295  97.4213090  79.3549852  29.9321678 102.6804864
  78.8514647  29.8951813 101.8672670  79.6480459  30.8414420 102.7401521
  75.5992738  30.0160407 101.6871046  76.4645734  29.8203216 101.3276936
  75.6670246  29.7870759 102.6140403  85.2137868  40.3057988  95.1581240
  84.4367311  39.9669148  94.7136402  85.8929349  40.3110611  94.4836205
  80.0289897  35.4252726  95.0487847  79.7240033  35.7398875  95.8997991
  80.9820339  35.5034145  95.0915180  78.4736329  41.5842949  96.6980801
  77.9457691  40.8495708  96.3854039  77.9723832  42.3617625  96.4520770
  83.4529175  39.7791969 101.8147848  82.7952849  40.4691231 101.9027976
  84.2569574  40.1688401 102.1581834  73.2055057  32.2462615  99.0587413
  73.7798809  32.0237797  98.3260606  73.7926039  32.3151310  99.8116014
  82.2634634  38.1336342  99.8651789  82.7766516  38.7666334 100.3673499
  82.9135858  37.5337538  99.4995149  73.5324644  34.2767076  93.0783298
  72.6961956  34.6141763  93.3992573  73.3929413  34.1416056  92.1410435
  75.5077724  29.1203864  97.7862482  74.8542137  28.8052881  97.1619097
  75.4658199  28.4979605  98.5122305  76.6188929  39.4023159  89.7015774
  75.7115991  39.1712413  89.9006923  77.1159961  38.6060778  89.8889756
  79.5257008  48.1120666  92.6212461  78.8518707  48.4152363  93.2297418
  79.9122830  48.9149747  92.2717918  78.7415465  35.6085798 102.1110130
  77.8238026  35.8300745 101.9531818  79.1575608  35.6832108 101.2521837
  79.5250512  37.0077213  97.2412810  80.2722331  37.5198610  96.9319932
  79.7942102  36.6861266  98.1017204  77.7977163  39.5035754  94.2239764
  76.8888382  39.2194787  94.3212234  77.8272246  39.9234833  93.3643071
  83.0296430  43.1142344  97.9930932  82.5758757  42.2733253  98.0496123
  82.3990397  43.7503742  98.3305712  81.9729350  34.0434330  99.2231599
  81.2352106  33.5311716  99.5541842  82.2256123  33.6034711  98.4114876
  81.4729369  44.9518840  98.9280750  81.7652344  45.5123897  98.2093116
  81.9827990  45.2447401  99.6833909  82.0740977  26.8210582  99.8173369
  82.3799854  25.9607945  99.5299284  82.7993582  27.4128202  99.6172363
  68.3665333  37.2241268  98.2054967  68.1689733  36.6310629  97.4806033
  67.8111997  36.9193478  98.9230905  76.3462057  37.1164375 100.3249560
  76.4010666  36.1638211 100.2492036  75.5353259  37.2723814 100.8090858
  77.4953250  41.0444498  91.5627843  77.0572680  40.3280357  91.1033480
  78.2363691  41.2720612  91.0012934  74.2854417  35.7341434  98.0839939
  73.4722282  36.0335605  98.4905131  74.7813411  35.3397123  98.8014421
  76.4362995  45.7299191 100.0174203  76.3939173  45.9560038  99.0882735
  77.3525693  45.4962566 100.1660005  79.8828628  36.1983259 106.9154833
  80.2378016  36.4254732 107.7749298  80.5300760  36.5301636 106.2932088
  85.6126365  39.3201695  97.6204162  85.4744264  39.5103291  96.6925351
  85.2562584  40.0821078  98.0772213  73.7768491  33.3059790 103.7001174
  74.4167871  33.1648549 103.0024137  72.9446022  33.0194303 103.3239776
  85.6395745  41.3878222 102.6315433  86.0732252  41.2953511 103.4798487
  86.3527326  41.3635722 101.9935449  74.5528795  42.6062220  99.8136166
  75.3469394  42.1112540  99.6118741  73.8420488  42.0780083  99.4503872
  79.3723640  44.9880316 104.1648534  79.4260662  45.5571252 104.9326250
  78.5038421  45.1582201 103.8002571  70.8611559  36.7505302  95.8895919
  69.9309147  36.6889758  96.1065881  70.9569031  36.2281255  95.0932560
  70.7797108  33.2760115  98.4774160  71.0403925  34.1905448  98.3683321
  71.6014280  32.8084557  98.6270773  72.2522033  34.6897872 105.6472985
  72.9245087  34.4815234 104.9985634  71.4251820  34.4919958 105.2078217
  86.5011294  41.4301922 105.1648319  86.6947184  42.3347733 105.4107593
  86.4011913  40.9709341 105.9986904  78.1547605  31.3159813 107.6638646
  77.5075520  32.0149763 107.5703122  78.9248621  31.7495957 108.0314894
  81.5626403  41.5808665 110.7389199  81.4111910  41.3519217 109.8219283
  81.5531083  42.5379267 110.7520544  78.3311739  39.1540578 105.7235466
  79.2603799  39.3051737 105.5504433  77.9102770  39.2424599 104.8684112
  77.1300071  43.1791242 103.4934003  76.9911157  42.8110027 104.3659941
  76.3414668  43.6938882 103.3217961  77.7248223  48.2800339  94.8359540
  77.8999979  47.8088382  95.6505162  77.0381011  48.9066105  95.0640800
  78.6805286  42.5572845 100.8822841  78.3455119  42.5173615 101.7780491
  78.1809232  41.8917561 100.4093251  72.6549530  37.9640475 106.4075422
  72.5169328  37.2320714 107.0086961  73.5654454  37.8749375 106.1259610
  81.6164478  39.9028879  91.1559901  80.9993649  39.1775707  91.0592953
  81.1480967  40.6638240  90.8126975  75.2831831  37.6760434 105.8959102
  75.9931450  37.0353627 105.8545720  75.2401139  37.9273329 106.8185283
  83.2718610  44.6127788 108.8165681  83.2131156  43.9287008 108.1496264
  83.6738128  45.3546778 108.3646307  73.9960765  34.6625652 107.7154741
  73.4598122  34.2116391 108.3676338  73.4077473  34.7971561 106.9725206
  72.2909309  51.4289702 101.6099400  72.5305907  52.0608226 102.2878418
  71.4478505  51.0777742 101.8964759  73.4063024  34.1214304  90.2781205
  72.5292490  34.0003104  89.9143452  73.8820777  33.3300382  90.0260094
  83.2736017  42.5767372 107.0479661  82.3862796  42.2393293 107.1706060
  83.8434568  41.8450403 107.2848426  64.9265164  38.9091463 100.3722712
  65.6136204  38.5953193  99.7843727  64.7713293  39.8132828 100.0989963
  69.7299886  33.7981660 104.8007736  69.6458075  33.1907329 104.0658146
  68.9082593  34.2890678 104.8017232  76.8037170  47.2368824 104.0140904
  76.7307342  48.0423795 104.5260208  76.3614564  47.4360790 103.1888925
  76.5926950  46.4740594  97.5243725  75.8094472  47.0162274  97.6181950
  77.2919695  46.9914574  97.9237967  79.9023600  32.2835223 100.1677931
  80.3992300  31.5305186  99.8479001  79.1310582  32.3199540  99.6021140
  87.7553358  37.9875589 101.8096222  87.7443234  38.8700304 101.4390155
  86.8870737  37.6347140 101.6150759  79.2635854  47.1355658 106.1699063
  79.9763826  47.7703123 106.0974964  78.7725883  47.2319524 105.3539064
  80.9853381  41.0406911  97.7416354  80.0509660  41.1608373  97.5721059
  81.1630049  40.1379377  97.4776364  76.4858569  34.4252606  99.8949615
  76.1156356  33.8723647 100.5830521  76.9817661  33.8210740  99.3424615
  84.3725932  36.8824230  98.2766388  84.8386384  37.7152222  98.2026691
  84.8233433  36.4169212  98.9811647  74.3147767  44.8850101 106.9904633
  75.0157227  45.5186584 107.1434028  73.8442882  45.2264833 106.2300273
  82.4402163  43.2268051  95.2752540  82.7162007  43.1124646  96.1846414
  81.5706662  42.8285536  95.2364713  82.3442595  29.2504817 102.3157290
  81.4305675  29.4809044 102.4839497  82.7735696  29.3343261 103.1671322
  82.1149053  37.4394709 104.8157184  81.4620504  37.6870616 104.1609636
  82.4929433  36.6258847 104.4819661  79.0756227  47.4754402  98.9185354
  79.2578622  46.6576058  99.3813106  79.8989213  47.6922094  98.4810244
  79.4098393  46.4022587  96.1800402  79.9386159  45.8915042  95.5670565
  79.6726612  46.0865117  97.0445936  78.1636626  38.1814520 111.3023221
  77.4877263  38.0808649 111.9725596  78.9864260  38.0253734 111.7659218
  69.9115486  44.4186456 103.9235736  70.4968922  43.6730144 104.0563640
  69.7140324  44.7290413 104.8072400  72.7654141  47.4537704  98.9398178
  72.0964516  47.9383832  98.4562218  72.6267010  47.7006924  99.8541557
  64.5033140  36.9892057 102.6440179  64.5417240  36.4555647 103.4377297
  63.9973433  36.4627262 102.0251156  76.9059409  49.4881447 105.5380837
  77.4577717  49.6513069 106.3029922  77.2465603  50.0785885 104.8660862
  71.8823903  31.8356597 106.1402721  71.9465229  32.6971428 105.7280119
  71.8191023  31.2230599 105.4075080  71.3576175  33.9079730 109.7875756
  71.9848214  33.5256807 110.4013280  70.5004094  33.6893932 110.1531448
  81.7570284  44.3142705 111.3929491  82.3010188  44.9272663 110.8984446
  81.1757128  44.8722283 111.9096504  68.1341718  35.7156159  95.7194111
  68.4295159  34.8066837  95.6661164  67.2329754  35.6943898  95.3975113
  80.0427797  47.4363423 102.5244519  79.9178936  46.6353163 102.0155464
  80.7006888  47.9309616 102.0358489  71.6635965  33.7912155 101.7021659
  70.9422551  34.4048123 101.5629132  72.4529221  34.3269920 101.6238305
  82.1062705  45.2372443 104.1524069  81.1593041  45.1177794 104.0802396
  82.4545478  44.3494941 104.2350330  74.4662278  31.1266582 107.9762311
  74.9896680  31.3728878 108.7388620  74.2474612  31.9586617 107.5565448
  69.8629559  33.3970257  95.8433436  69.5342266  32.5167635  95.6608542
  70.2168930  33.3417925  96.7309825  79.1109138  45.0325159 100.3528421
  78.9634101  44.1041867 100.5335991  79.9362632  45.0545250  99.8685496
  72.9771383  33.6843226  96.2108913  73.3167455  34.2129148  95.4887522
  73.4243503  34.0223632  96.9867480  82.7143260  45.8553718 101.4393294
  83.6389808  45.6496579 101.3017745  82.5458564  45.6070119 102.3482636
  75.6714823  32.0680277 105.6611981  75.3311644  31.2688090 106.0632661
  74.9653830  32.3681988 105.0888815  76.3231295  29.1529589 104.1139304
  77.1457365  28.6790068 103.9918195  76.5669359  29.9320073 104.6137991
  74.9639530  32.1817848  94.4102206  75.6847892  32.5599101  93.9065923
  74.3404834  32.9006725  94.5137184  79.1070653  32.8862997  95.3460538
  79.3234267  33.7687635  95.0449367  78.6264720  32.4949210  94.6166180
  73.8469874  35.8448710 101.9231283  73.7014455  36.1589013 102.8155565
  73.3695078  36.4633610 101.3702182  75.7066257  32.8351258 101.9712173
  75.6927826  31.9392351 101.6344471  76.4238685  32.8421922 102.6050459
  77.5592388  33.2688598 104.0165300  77.3010165  34.1905669 104.0149631
  77.0277428  32.8719033 104.7065764  82.5038576  46.3739385  96.7955385
  82.6775454  45.8085808  96.0429238  82.9967468  47.1740280  96.6134875
  68.3215536  38.3854054 104.8618944  67.7769004  39.1613862 104.9939219
  69.1994886  38.7324859 104.7038066  75.1103153  31.7165638  97.2399743
  75.2319064  30.7882285  97.4390630  74.8205195  31.7304324  96.3278058
  77.9794343  29.4020549 100.3766463  78.0016040  29.4659882  99.4218442
  78.3962402  28.5625057 100.5706969  88.3577968  39.1375808  98.4145685
  88.8009114  38.3883134  98.0164808  87.4804478  39.1285945  98.0319417
  83.4913749  45.6906150  93.8952284  84.1864653  46.3112843  94.1139598
  83.8336899  44.8401501  94.1704662  69.1081558  37.5123951 107.7549101
  68.3663294  37.6606586 108.3413732  68.7874302  37.7732216 106.8915851
  85.3905172  43.1405855  95.4239615  85.9156496  43.4793128  94.6988935
  85.3027525  42.2052871  95.2402749  77.0525221  47.0539929 107.5529491
  77.3612347  46.8089076 108.4252191  77.8500703  47.2586567 107.0648361
  77.0745833  49.2077839  99.7834868  76.6350823  48.7154217 100.4767724
  77.8253950  48.6650806  99.5426943  69.5538172  45.3989379  99.7859496
  70.3796192  45.0993151  99.4058139  69.2032224  44.6297002 100.2349284
  74.5219705  44.7515848 101.8557169  73.8999714  44.0886553 101.5559397
  75.1924572  44.7776980 101.1730817  67.7546777  43.3175706 100.7448429
  66.9178685  42.8897880 100.5632431  67.7270422  43.5108149 101.6819221
  74.5944232  33.2297636 111.4489675  74.6432388  34.1059759 111.0667445
  75.1366747  32.6875029 110.8761319  85.0799078  43.7738759 110.7290812
  84.2894622  43.7562898 110.1895312  84.8432433  44.3127053 111.4839849
  85.1996953  40.6231225 108.0423541  85.2494958  40.4581233 108.9839064
  85.0910876  39.7558484 107.6521422  74.0833212  43.3019771  95.3315630
  74.2321332  43.9855235  94.6782303  74.8899655  43.2824861  95.8465086
  82.4900715  36.6062153 109.3582848  83.3910578  36.4668618 109.0666846
  82.5648690  36.7716608 110.2981025  76.8243521  33.9829008 108.2036034
  75.9546830  34.2762574 107.9318623  77.0603001  34.5669453 108.9243298
  86.7015150  43.0428167 108.2865563  86.4099958  43.4058147 109.1229024
  86.0887281  42.3295175 108.1078895  87.9010832  40.6081047 100.8068133
  88.7357724  41.0470851 100.9705693  88.0369961  40.1319700  99.9876379
  84.9502338  38.1660782 106.7545621  85.4256460  38.3588428 105.9464472
  84.0267904  38.2219967 106.5089004  71.8385845  39.3284949  96.3376699
  71.5931887  38.4247279  96.5356909  72.0081759  39.3302099  95.3956177
  79.5282555  30.2008625 105.7201454  80.0464498  30.9369652 105.3947943
  79.1737687  30.5072618 106.5548214  71.1081492  35.0613306  93.8362860
  70.4150737  35.1357661  93.1802896  70.8633244  34.2973650  94.3584377
  79.7795149  26.6208908 101.2402351  80.0596903  25.9532097 101.8662778
  80.5645756  26.8138003 100.7277015  77.5828617  45.7967901  92.8027377
  77.0102584  46.4158089  92.3497849  78.1561411  46.3467263  93.3367299
  83.6504007  35.0426542 104.9873926  84.6021430  35.1424639 105.0086150
  83.4807458  34.2504810 105.4972011  81.6718387  32.1282125 105.1733327
  81.0768319  32.4087138 104.4779816  81.3868083  32.6176026 105.9450068
  80.8025877  46.0805052  93.9335960  81.7356550  46.0150613  94.1368835
  80.7149090  46.9161318  93.4750492  83.4313894  45.3970922  90.8939907
  83.3527525  45.0630786  91.7875665  84.2523561  45.8892690  90.8931380
  86.1292085  38.2632661 104.1016226  86.0968405  37.3248662 104.2875910
  86.7392709  38.3416698 103.3682051  77.9675416  37.1328714  90.1443430
  78.9134521  37.0034922  90.2131848  77.5889661  36.3943376  90.6212858
  86.2786573  35.0543705 104.1474509  85.7625622  34.2702161 103.9604438
  87.1626522  34.7262421 104.3121028  83.9397300  28.7984720 100.1070322
  83.7422121  28.4899808 100.9913654  84.5497006  29.5246359 100.2368252
  91.9468635  39.3248668 103.2422263  92.6772023  39.0633956 103.8029966
  91.3375580  38.5877390 103.2824331  90.0283932  37.4656531 103.8396714
  89.3017095  37.3312496 103.2313205  89.6131219  37.7733359 104.6453432
  77.8514108  41.1846460 111.6044087  78.7717118  41.3625059 111.7984133
  77.8163691  40.2402506 111.4523786  76.1518333  35.0578691  90.0798315
  75.2449788  34.7611803  90.1561029  76.4294314  34.7608509  89.2132601
  67.0696273  36.3785054 100.5297361  66.7499058  35.5250362 100.2371735
  66.5229702  36.5933632 101.2855329  70.8476181  39.0947495 104.2466868
  71.0662191  40.0264603 104.2654902  71.2601955  38.7355469 105.0321672
  77.7680399  29.6015580  96.2342556  76.9581127  29.2562665  96.6097802
  78.4564816  29.2923124  96.8230168  79.6970947  28.6793627  97.8566853
  80.2501986  29.0989081  98.5156876  79.9341033  27.7529375  97.8989809
  75.7204046  34.6680701 113.6369617  75.6200773  35.6175058 113.5681708
  75.5025588  34.3398940 112.7645687  74.9217118  31.9165626  90.2210294
  75.7836282  32.2420524  90.4806112  75.1067462  31.1297122  89.7083360
  66.9384533  39.9987966 102.4990483  66.2448005  39.5841918 101.9860437
  67.6857524  40.0408502 101.9023902  83.0749754  30.7894152  97.3645517
  82.4948423  31.4478956  96.9823570  82.8085687  29.9671497  96.9532935
  81.5253320  30.1899210  99.5666838  82.0253099  30.3015745  98.7581156
  82.1688928  29.8860263 100.2067646  75.5835316  38.0977840 112.4534679
  75.1002398  38.8978200 112.6598568  75.6696255  38.1085785 111.5002123
  68.8521276  39.9306219 100.3756498  68.8291964  40.0293907  99.4238381
  69.1621912  40.7771370 100.6973664  71.5108654  41.9882374 104.4903112
  72.4651907  41.9566317 104.4233044  71.3121177  41.5272998 105.3053338
  72.1008036  40.5583490 107.0573910  72.9200925  41.0527569 107.0808747
  72.3744844  39.6415459 107.0291478  81.8574632  32.9494243  96.4201866
  80.9700487  33.2343893  96.2022060  82.2728621  32.7888006  95.5729142
  85.2089168  32.9740764 100.1356205  85.9849558  33.4637216 100.4080822
  84.4837302  33.3998818 100.5928074  87.6461727  33.6868383 101.1930145
  88.2406218  33.4464119 100.4823454  87.7188311  32.9675513 101.8203682
  69.8658883  47.5301994 101.5073310  69.7313350  46.7702395 100.9411308
  69.4490945  48.2542894 101.0402099  81.0017846  42.7138917  90.5149886
  81.7053696  42.9188920  91.1307541  80.2780494  43.2815679  90.7798969
  81.8315656  38.4648779  96.6352156  81.7750857  38.9217330  95.7959788
  82.3843998  37.7039463  96.4574998  85.6420462  34.2538511  97.4602275
  85.3857396  33.8535146  98.2910483  85.0173330  34.9682304  97.3352414
  89.9532800  36.9934584  99.9673567  89.3932358  37.0627773 100.7405129
  89.3476303  36.8175568  99.2473063  73.0228008  48.4271311 101.7191753
  72.9060393  49.3716743 101.6170443  72.2020455  48.1244872 102.1077552
  82.9104543  43.1521447  92.5648346  83.7450147  42.7202645  92.3825820
  82.7488886  42.9803460  93.4925240  82.5650435  39.6553560  93.9304685
  82.5099239  39.4897831  92.9893129  81.9396490  40.3629593  94.0866875
  67.3542950  34.8921624 107.7566107  68.0001814  34.3820578 108.2453332
  67.1460101  35.6290306 108.3309532  79.8796342  41.9602472 113.2558248
  80.7487502  42.1343124 112.8944883  79.4003094  42.7796889 113.1333977
  75.8746561  29.1561669  93.5090003  75.8625230  30.1003509  93.6658274
  76.7669982  28.9731814  93.2149464  74.0482523  49.0799573 104.9347681
  74.9509769  49.1123183 105.2514176  73.8219893  48.1500024 104.9494017
  75.8036125  47.8330559 101.5957760  74.8531756  47.8332421 101.4822132
  76.1068611  47.0863294 101.0793795  79.6898680  25.7504446  97.7635940
  78.9231076  25.1962932  97.9092622  80.1009385  25.8226314  98.6250092
  71.6940441  32.0389241 111.8541121  72.5571903  31.6826046 112.0644446
  71.1205852  31.7003136 112.5416526  91.5388818  53.6691098 102.6603522
  92.1767228  53.5497845 101.9566862  91.4209661  54.6171942 102.7191474
  88.3478524  53.6218526 102.5965047  88.0097036  53.5059590 101.7085582
  89.2168292  53.2209691 102.5766053  84.2065340  55.4754002  98.5861938
  83.6430205  55.3843939  97.8178226  84.0917735  54.6553907  99.0664430
  88.8298307  54.7753378 108.5551253  88.8186948  54.3806176 107.6831756
  88.9918947  54.0419450 109.1485024  81.7529772  56.9705194 101.4246158
  82.5451064  56.6296018 101.0092458  81.9926422  57.0800169 102.3448312
  89.7864899  59.1424970  93.8976403  89.1352878  59.7279050  93.5110417
  90.5809262  59.6731165  93.9571440  83.7120526  56.2314107  94.2963537
  84.4851402  55.6843094  94.1576413  84.0645925  57.0958356  94.5077999
  85.5505568  57.5590489 107.5030436  85.2595434  58.4636120 107.3877103
  86.1862553  57.6007017 108.2174506  86.4761775  54.9367338 104.0931796
  87.0725348  54.7123360 103.3788759  86.5336747  54.1952083 104.6957244
  86.0486804  52.3906773  91.9281987  86.3012324  51.8688294  91.1665450
  85.1111363  52.2272919  92.0308671  91.0930086  51.3942552  99.7356730
  91.8793176  50.9761975  99.3847147  91.3568791  52.2988644  99.9038379
  91.2640164  56.8315402  94.4345387  90.6285997  56.9050028  95.1466292
  90.9337570  57.4209001  93.7564466  96.4938514  51.3317785 100.6389709
  97.2263686  50.7617002 100.8727538  95.7377869  50.9439385 101.0796214
  85.7683092  54.2934879  94.1306362  85.6519351  53.6179783  94.7987446
  85.8785352  53.8067253  93.3138515  88.1114633  53.7545026  97.8353051
  87.7472841  53.2275647  98.5465973  88.9681749  53.3643495  97.6619537
  94.0163934  45.0439359 105.0984317  93.6847259  45.9134770 104.8745532
  93.4209547  44.7275643 105.7778348  87.7520120  48.7834926  92.8314400
  87.9194523  49.6515162  93.1984871  87.5617289  48.9462208  91.9075689
  90.5095454  57.2451905 104.4980230  90.2096177  58.1476944 104.3896037
  90.1646513  56.9784088 105.3501383  83.9607935  53.6965702 100.5316935
  83.0358431  53.5641916 100.7394626  84.2092348  54.4759921 101.0286877
  93.9092597  49.7634445 102.1777668  93.0009475  49.6949853 101.8836428
  93.8580193  50.2406390 103.0059493  87.7309341  51.2392583  93.8161067
  87.6108966  51.6849634  94.6546547  87.0361930  51.5877901  93.2574605
  81.3216746  53.3398975 101.3660724  81.4509127  53.5933454 102.2800135
  80.6414197  53.9326683 101.0465379  85.4916233  64.0096225  97.4651198
  85.4140263  64.9604050  97.5439678  84.8877877  63.6642098  98.1226124
  87.9833463  51.1824091 110.1212565  87.2066797  51.7418011 110.1115429
  88.6224026  51.6680874 110.6427435  95.7754244  47.9650883 103.9555541
  95.1328624  48.2583417 103.3095336  95.2709172  47.8503804 104.7608738
  93.4294407  51.7114057  94.6441401  94.3412263  51.9441443  94.4689098
  92.9204054  52.2951101  94.0816479  86.2379835  53.9909544 109.6830532
  86.9794520  54.5294588 109.4065355  85.5316821  54.6175833 109.8402084
  91.7135175  56.1338684 108.2802693  92.1218531  55.6921095 107.5357326
  90.9912437  55.5591312 108.5336886  88.0666245  51.0711291 105.6536250
  88.9127440  51.4950705 105.7970899  88.0064883  50.4144916 106.3474813
  92.0363990  56.6939875 102.0354982  91.4072852  56.8585589 101.3331050
  91.6489652  57.1081485 102.8065946  95.9153222  57.6294313  99.3899346
  95.2304260  58.0093214  98.8396379  95.9997071  58.2389640 100.1231294
  91.2165690  48.7315660 107.3117424  90.9726622  49.4857720 106.7751700
  91.4925621  49.1101007 108.1464671  93.1704153  55.2754272 105.9894689
  93.3821048  55.9186032 105.3129071  93.1233901  54.4416588 105.5216620
  90.7730382  47.8872093 102.8931262  89.9114861  48.1853346 103.1847999
  90.7992817  48.1042491 101.9612294  87.5891952  56.4314283  99.3005067
  88.0530297  56.7101986  98.5109690  87.3248750  55.5297728  99.1178158
  84.4816033  55.9785765 102.2384831  85.0517390  56.4073033 101.6002315
  85.0724144  55.6968349 102.9369016  86.5260838  52.5537436  96.1094632
  87.2284881  53.0058479  96.5768559  86.1941466  51.9121254  96.7374526
  84.9741199  51.1449192 110.4845842  84.3439860  51.8265473 110.7181239
  84.8677287  51.0332274 109.5398980  80.2686172  50.8120988 101.4111766
  79.4785226  51.0678517 100.9351877  80.7597419  51.6269326 101.5163806
  94.2849981  58.1526227 104.1617047  95.1067425  57.7506415 103.8799728
  94.2812384  58.0494462 105.1133163  82.2200917  51.1765567  98.3695243
  81.4232080  51.2884262  98.8878738  81.9926509  51.5152220  97.5036133
  88.0506585  57.7010271 106.3177757  88.1151017  58.1630678 107.1535929
  87.3417508  57.0707636 106.4460067  78.5523875  51.0651479 103.8426757
  78.8031913  51.9498489 104.1084333  79.0883423  50.8856080 103.0701849
 102.3755974  54.4964976 100.5102018 101.6219683  53.9272374 100.3546023
 102.5103515  54.4627640 101.4572653  87.7654602  59.3678378  96.1856738
  87.6300277  60.2129914  96.6141585  88.3064415  59.5697656  95.4222671
  84.2521942  45.4469958 112.8471093  83.8588887  44.8936157 113.5218737
  85.0688082  45.7580536 113.2377610  81.2184000  56.8853816  96.7584663
  81.7308520  57.6797066  96.9090227  81.8706712  56.1880107  96.6918264
  83.0278884  60.0019572  98.8407416  83.2045513  60.9237537  98.6528400
  83.8235718  59.6877992  99.2701796  87.1689903  46.8627837 110.4391349
  87.9099616  47.4634990 110.3595812  87.4007826  46.1205475 109.8809392
  82.3131241  52.0484204 108.7169579  82.1984756  51.1469462 109.0176678
  81.4575759  52.2947901 108.3654396  89.3923079  59.9901945 110.3157080
  88.9486933  59.2038323 109.9977984  90.0540292  60.1781095 109.6500970
  84.1510200  61.5197746 104.8417758  84.7017625  61.3914810 104.0694752
  83.3121676  61.8192635 104.4912651  91.4904317  60.2704745 108.3438481
  91.4722792  61.0913626 107.8518750  92.4124237  60.1458820 108.5688622
  87.9477371  57.7848874 109.1861989  88.4805708  57.0237162 108.9561297
  87.4191452  57.4922526 109.9286144  91.1147066  42.8908940 104.7155631
  90.7711335  43.7810582 104.6394742  91.4826028  42.7010598 103.8525216
  79.1832916  55.2142470  97.5344233  80.0208138  55.6239479  97.3177941
  79.3611184  54.2741913  97.5044427  91.0797349  52.8817551  93.2228066
  90.5643972  53.6522156  93.4616454  90.8074657  52.2082687  93.8461128
  88.6644460  47.7267252  98.2813305  87.8086056  47.3374102  98.1018943
  89.0771411  47.8059213  97.4213090  90.1943606  45.2613595 102.6804864
  89.6908402  45.2243730 101.8672670  90.4874213  46.1706338 102.7401521
  86.4386492  45.3452325 101.6871046  87.3039489  45.1495134 101.3276936
  86.5064001  45.1162677 102.6140403  96.0531623  55.6349906  95.1581240
  95.2761065  55.2961065  94.7136402  96.7323104  55.6402529  94.4836205
  90.8683652  50.7544643  95.0487847  90.5633787  51.0690792  95.8997991
  91.8214094  50.8326063  95.0915180  89.3130084  56.9134867  96.6980801
  88.7851445  56.1787626  96.3854039  88.8117586  57.6909543  96.4520770
  94.2922930  55.1083887 101.8147848  93.6346604  55.7983148 101.9027976
  95.0963329  55.4980319 102.1581834  84.0448811  47.5754533  99.0587413
  84.6192563  47.3529714  98.3260606  84.6319794  47.6443227  99.8116014
  93.1028388  53.4628260  99.8651789  93.6160270  54.0958252 100.3673499
  93.7529612  52.8629455  99.4995149  84.3718398  49.6058994  93.0783298
  83.5355711  49.9433680  93.3992573  84.2323168  49.4707974  92.1410435
  86.3471479  44.4495782  97.7862482  85.6935891  44.1344799  97.1619097
  86.3051953  43.8271522  98.5122305  87.4582684  54.7315077  89.7015774
  86.5509745  54.5004330  89.9006923  87.9553716  53.9352696  89.8889756
  90.3650763  63.4412584  92.6212461  89.6912461  63.7444281  93.2297418
  90.7516585  64.2441664  92.2717918  89.5809219  50.9377715 102.1110130
  88.6631781  51.1592662 101.9531818  89.9969363  51.0124026 101.2521837
  90.3644267  52.3369131  97.2412810  91.1116086  52.8490528  96.9319932
  90.6335857  52.0153184  98.1017204  88.6370917  54.8327672  94.2239764
  87.7282136  54.5486704  94.3212234  88.6666001  55.2526750  93.3643071
  93.8690185  58.4434261  97.9930932  93.4152512  57.6025171  98.0496123
  93.2384151  59.0795660  98.3305712  92.8123104  49.3726247  99.2231599
  92.0745861  48.8603633  99.5541842  93.0649878  48.9326629  98.4114876
  92.3123124  60.2810758  98.9280750  92.6046098  60.8415815  98.2093116
  92.8221744  60.5739319  99.6833909  92.9134731  42.1502499  99.8173369
  93.2193608  41.2899863  99.5299284  93.6387336  42.7420119  99.6172363
  79.2059088  52.5533186  98.2054967  79.0083487  51.9602547  97.4806033
  78.6505752  52.2485396  98.9230905  87.1855811  52.4456292 100.3249560
  87.2404421  51.4930129 100.2492036  86.3747013  52.6015731 100.8090858
  88.3347005  56.3736415  91.5627843  87.8966435  55.6572274  91.1033480
  89.0757446  56.6012530  91.0012934  85.1248171  51.0633352  98.0839939
  84.3116037  51.3627523  98.4905131  85.6207165  50.6689041  98.8014421
  87.2756749  61.0591109 100.0174203  87.2332928  61.2851955  99.0882735
  88.1919448  60.8254484 100.1660005  90.7222383  51.5275177 106.9154833
  91.0771771  51.7546650 107.7749298  91.3694514  51.8593553 106.2932088
  96.4520120  54.6493612  97.6204162  96.3138018  54.8395208  96.6925351
  96.0956339  55.4112995  98.0772213  84.6162246  48.6351708 103.7001174
  85.2561625  48.4940467 103.0024137  83.7839776  48.3486221 103.3239776
  96.4789499  56.7170139 102.6315433  96.9126006  56.6245428 103.4798487
  97.1921080  56.6927640 101.9935449  85.3922550  57.9354138  99.8136166
  86.1863148  57.4404458  99.6118741  84.6814242  57.4072001  99.4503872
  90.2117394  60.3172234 104.1648534  90.2654417  60.8863170 104.9326250
  89.3432176  60.4874119 103.8002571  81.7005313  52.0797220  95.8895919
  80.7702901  52.0181675  96.1065881  81.7962785  51.5573172  95.0932560
  81.6190862  48.6052033  98.4774160  81.8797680  49.5197366  98.3683321
  82.4408035  48.1376475  98.6270773  83.0915788  50.0189790 105.6472985
  83.7638841  49.8107152 104.9985634  82.2645574  49.8211876 105.2078217
  97.3405049  56.7593840 105.1648319  97.5340939  57.6639651 105.4107593
  97.2405667  56.3001259 105.9986904  88.9941360  46.6451731 107.6638646
  88.3469275  47.3441680 107.5703122  89.7642375  47.0787875 108.0314894
  92.4020158  56.9100583 110.7389199  92.2505664  56.6811134 109.8219283
  92.3924837  57.8671184 110.7520544  89.1705494  54.4832496 105.7235466
  90.0997554  54.6343655 105.5504433  88.7496524  54.5716516 104.8684112
  87.9693826  58.5083160 103.4934003  87.8304911  58.1401944 104.3659941
  87.1808422  59.0230799 103.3217961  88.5641978  63.6092256  94.8359540
  88.7393733  63.1380300  95.6505162  87.8774766  64.2358023  95.0640800
  89.5199041  57.8864763 100.8822841  89.1848874  57.8465533 101.7780491
  89.0202987  57.2209479 100.4093251  83.4943285  53.2932393 106.4075422
  83.3563083  52.5612632 107.0086961  84.4048208  53.2041293 106.1259610
  92.4558233  55.2320797  91.1559901  91.8387403  54.5067625  91.0592953
  91.9874721  55.9930157  90.8126975  86.1225586  53.0052352 105.8959102
  86.8325204  52.3645544 105.8545720  86.0794894  53.2565247 106.8185283
  94.1112364  59.9419705 108.8165681  94.0524910  59.2578925 108.1496264
  94.5131883  60.6838695 108.3646307  84.8354520  49.9917570 107.7154741
  84.2991877  49.5408308 108.3676338  84.2471228  50.1263479 106.9725206
  83.1303063  66.7581619 101.6099400  83.3699661  67.3900143 102.2878418
  82.2872260  66.4069659 101.8964759  84.2456778  49.4506221  90.2781205
  83.3686245  49.3295022  89.9143452  84.7214532  48.6592300  90.0260094
  94.1129772  57.9059289 107.0479661  93.2256550  57.5685211 107.1706060
  94.6828323  57.1742321 107.2848426  75.7658919  54.2383381 100.3722712
  76.4529958  53.9245111  99.7843727  75.6107047  55.1424746 100.0989963
  80.5693641  49.1273578 104.8007736  80.4851829  48.5199247 104.0658146
  79.7476347  49.6182596 104.8017232  87.6430925  62.5660742 104.0140904
  87.5701096  63.3715713 104.5260208  87.2008318  62.7652707 103.1888925
  87.4320705  61.8032512  97.5243725  86.6488226  62.3454192  97.6181950
  88.1313450  62.3206491  97.9237967  90.7417355  47.6127141 100.1677931
  91.2386054  46.8597103  99.8479001  89.9704336  47.6491458  99.6021140
  98.5947112  53.3167507 101.8096222  98.5836988  54.1992222 101.4390155
  97.7264491  52.9639057 101.6150759  90.1029608  62.4647576 106.1699063
  90.8157581  63.0995040 106.0974964  89.6119637  62.5611442 105.3539064
  91.8247135  56.3698828  97.7416354  90.8903414  56.4900291  97.5721059
  92.0023804  55.4671295  97.4776364  87.3252323  49.7544524  99.8949615
  86.9550111  49.2015564 100.5830521  87.8211416  49.1502658  99.3424615
  95.2119687  52.2116148  98.2766388  95.6780139  53.0444139  98.2026691
  95.6627187  51.7461129  98.9811647  85.1541522  60.2142019 106.9904633
  85.8550981  60.8478502 107.1434028  84.6836637  60.5556751 106.2300273
  93.2795918  58.5559969  95.2752540  93.5555762  58.4416563  96.1846414
  92.4100417  58.1577454  95.2364713  93.1836349  44.5796735 102.3157290
  92.2699429  44.8100961 102.4839497  93.6129451  44.6635179 103.1671322
  92.9542808  52.7686627 104.8157184  92.3014258  53.0162534 104.1609636
  93.3323188  51.9550765 104.4819661  89.9149982  62.8046320  98.9185354
  90.0972376  61.9867976  99.3813106  90.7382968  63.0214012  98.4810244
  90.2492147  61.7314505  96.1800402  90.7779914  61.2206959  95.5670565
  90.5120367  61.4157035  97.0445936  89.0030381  53.5106438 111.3023221
  88.3271018  53.4100567 111.9725596  89.8258015  53.3545651 111.7659218
  80.7509240  59.7478374 103.9235736  81.3362677  59.0022062 104.0563640
  80.5534078  60.0582331 104.8072400  83.6047895  62.7829622  98.9398178
  82.9358270  63.2675749  98.4562218  83.4660765  63.0298842  99.8541557
  75.3426895  52.3183974 102.6440179  75.3810994  51.7847565 103.4377297
  74.8367188  51.7919180 102.0251156  87.7453164  64.8173365 105.5380837
  88.2971472  64.9804987 106.3029922  88.0859357  65.4077803 104.8660862
  82.7217657  47.1648515 106.1402721  82.7858984  48.0263346 105.7280119
  82.6584777  46.5522517 105.4075080  82.1969930  49.2371647 109.7875756
  82.8241968  48.8548725 110.4013280  81.3397848  49.0185849 110.1531448
  92.5964038  59.6434623 111.3929491  93.1403942  60.2564581 110.8984446
  92.0150883  60.2014201 111.9096504  78.9735472  51.0448077  95.7194111
  79.2688913  50.1358755  95.6661164  78.0723508  51.0235816  95.3975113
  90.8821551  62.7655341 102.5244519  90.7572691  61.9645080 102.0155464
  91.5400642  63.2601534 102.0358489  82.5029719  49.1204073 101.7021659
  81.7816305  49.7340041 101.5629132  83.2922975  49.6561838 101.6238305
  92.9456459  60.5664361 104.1524069  91.9986795  60.4469712 104.0802396
  93.2939233  59.6786859 104.2350330  85.3056033  46.4558500 107.9762311
  85.8290435  46.7020796 108.7388620  85.0868366  47.2878534 107.5565448
  80.7023314  48.7262174  95.8433436  80.3736020  47.8459553  95.6608542
  81.0562685  48.6709843  96.7309825  89.9502893  60.3617077 100.3528421
  89.8027855  59.4333784 100.5335991  90.7756386  60.3837168  99.8685496
  83.8165137  49.0135144  96.2108913  84.1561210  49.5421065  95.4887522
  84.2637258  49.3515550  96.9867480  93.5537015  61.1845636 101.4393294
  94.4783562  60.9788497 101.3017745  93.3852318  60.9362037 102.3482636
  86.5108578  47.3972195 105.6611981  86.1705398  46.5980008 106.0632661
  85.8047584  47.6973906 105.0888815  87.1625050  44.4821507 104.1139304
  87.9851119  44.0081985 103.9918195  87.4063113  45.2611991 104.6137991
  85.8033284  47.5109766  94.4102206  86.5241647  47.8891018  93.9065923
  85.1798588  48.2298642  94.5137184  89.9464407  48.2154915  95.3460538
  90.1628021  49.0979552  95.0449367  89.4658474  47.8241128  94.6166180
  84.6863628  51.1740628 101.9231283  84.5408209  51.4880931 102.8155565
  84.2088832  51.7925528 101.3702182  86.5460011  48.1643176 101.9712173
  86.5321580  47.2684269 101.6344471  87.2632439  48.1713840 102.6050459
  88.3986142  48.5980516 104.0165300  88.1403920  49.5197587 104.0149631
  87.8671182  48.2010951 104.7065764  93.3432331  61.7031303  96.7955385
  93.5169208  61.1377726  96.0429238  93.8361222  62.5032198  96.6134875
  79.1609291  53.7145972 104.8618944  78.6162759  54.4905780 104.9939219
  80.0388640  54.0616777 104.7038066  85.9496907  47.0457556  97.2399743
  86.0712818  46.1174202  97.4390630  85.6598950  47.0596242  96.3278058
  88.8188098  44.7312466 100.3766463  88.8409794  44.7951800  99.4218442
  89.2356157  43.8916975 100.5706969  99.1971722  54.4667726  98.4145685
  99.6402868  53.7175051  98.0164808  98.3198232  54.4577862  98.0319417
  94.3307503  61.0198068  93.8952284  95.0258408  61.6404760  94.1139598
  94.6730653  60.1693419  94.1704662  79.9475312  52.8415868 107.7549101
  79.2057049  52.9898504 108.3413732  79.6268057  53.1024134 106.8915851
  96.2298926  58.4697773  95.4239615  96.7550251  58.8085046  94.6988935
  96.1421279  57.5344788  95.2402749  87.8918975  62.3831847 107.5529491
  88.2006102  62.1380993 108.4252191  88.6894457  62.5878485 107.0648361
  87.9139587  64.5369756  99.7834868  87.4744577  64.0446135 100.4767724
  88.6647704  63.9942724  99.5426943  80.3931926  60.7281297  99.7859496
  81.2189946  60.4285069  99.4058139  80.0425978  59.9588920 100.2349284
  85.3613459  60.0807765 101.8557169  84.7393469  59.4178470 101.5559397
  86.0318326  60.1068897 101.1730817  78.5940531  58.6467624 100.7448429
  77.7572440  58.2189798 100.5632431  78.5664177  58.8400067 101.6819221
  85.4337987  48.5589553 111.4489675  85.4826142  49.4351676 111.0667445
  85.9760501  48.0166946 110.8761319  95.9192833  59.1030677 110.7290812
  95.1288376  59.0854816 110.1895312  95.6826187  59.6418970 111.4839849
  96.0390708  55.9523143 108.0423541  96.0888712  55.7873150 108.9839064
  95.9304631  55.0850402 107.6521422  84.9226966  58.6311689  95.3315630
  85.0715087  59.3147153  94.6782303  85.7293410  58.6116779  95.8465086
  93.3294470  51.9354071 109.3582848  94.2304333  51.7960536 109.0666846
  93.4042444  52.1008526 110.2981025  87.6637275  49.3120926 108.2036034
  86.7940585  49.6054492 107.9318623  87.8996756  49.8961371 108.9243298
  97.5408904  58.3720085 108.2865563  97.2493713  58.7350065 109.1229024
  96.9281036  57.6587093 108.1078895  98.7404587  55.9372964 100.8068133
  99.5751478  56.3762768 100.9705693  98.8763715  55.4611618  99.9876379
  95.7896093  53.4952699 106.7545621  96.2650214  53.6880345 105.9464472
  94.8661658  53.5511885 106.5089004  82.6779599  54.6576866  96.3376699
  82.4325641  53.7539196  96.5356909  82.8475514  54.6594017  95.3956177
  90.3676309  45.5300543 105.7201454  90.8858253  46.2661570 105.3947943
  90.0131442  45.8364536 106.5548214  81.9475247  50.3905224  93.8362860
  81.2544492  50.4649579  93.1802896  81.7026999  49.6265568  94.3584377
  90.6188903  41.9500825 101.2402351  90.8990657  41.2824014 101.8662778
  91.4039510  42.1429921 100.7277015  88.4222372  61.1259819  92.8027377
  87.8496339  61.7450006  92.3497849  88.9955165  61.6759181  93.3367299
  94.4897762  50.3718459 104.9873926  95.4415185  50.4716557 105.0086150
  94.3201212  49.5796728 105.4972011  92.5112141  47.4574042 105.1733327
  91.9162073  47.7379055 104.4779816  92.2261838  47.9467943 105.9450068
  91.6419632  61.4096969  93.9335960  92.5750305  61.3442531  94.1368835
  91.5542844  62.2453236  93.4750492  94.2707648  60.7262840  90.8939907
  94.1921280  60.3922703  91.7875665  95.0917315  61.2184608  90.8931380
  96.9685839  53.5924579 104.1016226  96.9362160  52.6540580 104.2875910
  97.5786463  53.6708616 103.3682051  88.8069170  52.4620632  90.1443430
  89.7528275  52.3326840  90.2131848  88.4283415  51.7235294  90.6212858
  97.1180328  50.3835622 104.1474509  96.6019377  49.5994079 103.9604438
  98.0020276  50.0554339 104.3121028  94.7791055  44.1276638 100.1070322
  94.5815876  43.8191726 100.9913654  95.3890760  44.8538277 100.2368252
 102.7862389  54.6540586 103.2422263 103.5165778  54.3925874 103.8029966
 102.1769335  53.9169308 103.2824331 100.8677686  52.7948448 103.8396714
 100.1410850  52.6604413 103.2313205 100.4524973  53.1025277 104.6453432
  88.6907863  56.5138378 111.6044087  89.6110872  56.6916977 111.7984133
  88.6557446  55.5694423 111.4523786  86.9912087  50.3870608  90.0798315
  86.0843543  50.0903721  90.1561029  87.2688068  50.0900426  89.2132601
  77.9090028  51.7076972 100.5297361  77.5892812  50.8542280 100.2371735
  77.3623456  51.9225550 101.2855329  81.6869935  54.4239413 104.2466868
  81.9055945  55.3556521 104.2654902  82.0995709  54.0647387 105.0321672
  88.6074153  44.9307498  96.2342556  87.7974881  44.5854583  96.6097802
  89.2958570  44.6215042  96.8230168  90.5364701  44.0085545  97.8566853
  91.0895740  44.4280998  98.5156876  90.7734788  43.0821293  97.8989809
  86.5597801  49.9972618 113.6369617  86.4594528  50.9466975 113.5681708
  86.3419343  49.6690857 112.7645687  85.7610872  47.2457544  90.2210294
  86.6230036  47.5712442  90.4806112  85.9461216  46.4589039  89.7083360
  77.7778288  55.3279883 102.4990483  77.0841759  54.9133836 101.9860437
  78.5251279  55.3700420 101.9023902  93.9143509  46.1186070  97.3645517
  93.3342178  46.7770874  96.9823570  93.6479441  45.2963415  96.9532935
  92.3647075  45.5191128  99.5666838  92.8646853  45.6307662  98.7581156
  93.0082683  45.2152181 100.2067646  86.4229071  53.4269757 112.4534679
  85.9396152  54.2270117 112.6598568  86.5090010  53.4377702 111.5002123
  79.6915030  55.2598137 100.3756498  79.6685718  55.3585824  99.4238381
  80.0015667  56.1063288 100.6973664  82.3502408  57.3174292 104.4903112
  83.3045662  57.2858234 104.4233044  82.1514932  56.8564916 105.3053338
  82.9401790  55.8875408 107.0573910  83.7594679  56.3819487 107.0808747
  83.2138598  54.9707376 107.0291478  92.6968387  48.2786160  96.4201866
  91.8094242  48.5635811  96.2022060  93.1122376  48.1179924  95.5729142
  96.0482923  48.3032681 100.1356205  96.8243313  48.7929134 100.4080822
  95.3231057  48.7290736 100.5928074  98.4855481  49.0160301 101.1930145
  99.0799972  48.7756037 100.4823454  98.5582065  48.2967431 101.8203682
  80.7052637  62.8593912 101.5073310  80.5707105  62.0994312 100.9411308
  80.2884699  63.5834811 101.0402099  91.8411600  58.0430835  90.5149886
  92.5447450  58.2480838  91.1307541  91.1174249  58.6107597  90.7798969
  92.6709410  53.7940696  96.6352156  92.6144612  54.2509248  95.7959788
  93.2237753  53.0331381  96.4574998  96.4814216  49.5830428  97.4602275
  96.2251150  49.1827064  98.2910483  95.8567084  50.2974222  97.3352414
 100.7926554  52.3226501  99.9673567 100.2326112  52.3919691 100.7405129
 100.1870057  52.1467486  99.2473063  83.8621763  63.7563229 101.7191753
  83.7454147  64.7008661 101.6170443  83.0414209  63.4536790 102.1077552
  93.7498297  58.4813364  92.5648346  94.5843901  58.0494563  92.3825820
  93.5882640  58.3095378  93.4925240  93.4044190  54.9845478  93.9304685
  93.3492993  54.8189749  92.9893129  92.7790245  55.6921510  94.0866875
  78.1936705  50.2213542 107.7566107  78.8395568  49.7112496 108.2453332
  77.9853856  50.9582224 108.3309532  90.7190097  57.2894389 113.2558248
  91.5881256  57.4635042 112.8944883  90.2396848  58.1088806 113.1333977
  86.7140315  44.4853587  93.5090003  86.7018985  45.4295426  93.6658274
  87.6063737  44.3023732  93.2149464  84.8876277  64.4091490 104.9347681
  85.7903524  64.4415101 105.2514176  84.6613647  63.4791941 104.9494017
  86.6429879  63.1622477 101.5957760  85.6925510  63.1624339 101.4822132
  86.9462365  62.4155212 101.0793795  90.5292435  41.0796363  97.7635940
  89.7624830  40.5254850  97.9092622  90.9403139  41.1518232  98.6250092
  82.5334196  47.3681159 111.8541121  83.3965657  47.0117964 112.0644446
  81.9599606  47.0295054 112.5416526 102.3782573  68.9983015 102.6603522
 103.0160982  68.8789763 101.9566862 102.2603415  69.9463859 102.7191474
  99.1872279  68.9510443 102.5965047  98.8490790  68.8351508 101.7085582
 100.0562047  68.5501609 102.5766053  95.0459094  70.8045920  98.5861938
  94.4823960  70.7135857  97.8178226  94.9311490  69.9845824  99.0664430
  99.6692062  70.1045295 108.5551253  99.6580703  69.7098093 107.6831756
  99.8312701  69.3711368 109.1485024  92.5923526  72.2997111 101.4246158
  93.3844818  71.9587936 101.0092458  92.8320177  72.4092087 102.3448312
 100.6258653  74.4716888  93.8976403  99.9746633  75.0570968  93.5110417
 101.4203016  75.0023082  93.9571440  94.5514280  71.5606025  94.2963537
  95.3245156  71.0135012  94.1576413  94.9039679  72.4250274  94.5077999
  96.3899323  72.8882407 107.5030436  96.0989189  73.7928038 107.3877103
  97.0256307  72.9298935 108.2174506  97.3155530  70.2659256 104.0931796
  97.9119102  70.0415278 103.3788759  97.3730501  69.5244001 104.6957244
  96.8880558  67.7198691  91.9281987  97.1406079  67.1980212  91.1665450
  95.9505117  67.5564836  92.0308671 101.9323841  66.7234469  99.7356730
 102.7186930  66.3053892  99.3847147 102.1962545  67.6280561  99.9038379
 102.1033918  72.1607320  94.4345387 101.4679751  72.2341946  95.1466292
 101.7731325  72.7500918  93.7564466 107.3332268  66.6609702 100.6389709
 108.0657440  66.0908919 100.8727538 106.5771624  66.2731303 101.0796214
  96.6076847  69.6226797  94.1306362  96.4913105  68.9471700  94.7987446
  96.7179107  69.1359171  93.3138515  98.9508388  69.0836944  97.8353051
  98.5866595  68.5567565  98.5465973  99.8075504  68.6935413  97.6619537
 104.8557688  60.3731277 105.0984317 104.5241013  61.2426687 104.8745532
 104.2603302  60.0567561 105.7778348  98.5913875  64.1126844  92.8314400
  98.7588277  64.9807080  93.1984871  98.4011044  64.2754125  91.9075689
 101.3489208  72.5743823 104.4980230 101.0489931  73.4768861 104.3896037
 101.0040268  72.3076006 105.3501383  94.8001689  69.0257619 100.5316935
  93.8752186  68.8933833 100.7394626  95.0486103  69.8051839 101.0286877
 104.7486352  65.0926363 102.1777668 103.8403229  65.0241771 101.8836428
 104.6973948  65.5698308 103.0059493  98.5703096  66.5684501  93.8161067
  98.4502721  67.0141552  94.6546547  97.8755684  66.9169819  93.2574605
  92.1610501  68.6690893 101.3660724  92.2902882  68.9225372 102.2800135
  91.4807952  69.2618601 101.0465379  96.3309988  79.3388143  97.4651198
  96.2534017  80.2895968  97.5439678  95.7271631  78.9934015  98.1226124
  98.8227218  66.5116008 110.1212565  98.0460552  67.0709928 110.1115429
  99.4617781  66.9972791 110.6427435 106.6147998  63.2942801 103.9555541
 105.9722378  63.5875334 103.3095336 106.1102927  63.1795721 104.7608738
 104.2688162  67.0405974  94.6441401 105.1806018  67.2733361  94.4689098
 103.7597809  67.6243019  94.0816479  97.0773590  69.3201462 109.6830532
  97.8188274  69.8586506 109.4065355  96.3710575  69.9467750 109.8402084
 102.5528930  71.4630602 108.2802693 102.9612286  71.0213013 107.5357326
 101.8306191  70.8883230 108.5336886  98.9060000  66.4003209 105.6536250
  99.7521195  66.8242622 105.7970899  98.8458637  65.7436833 106.3474813
 102.8757744  72.0231793 102.0354982 102.2466607  72.1877507 101.3331050
 102.4883406  72.4373402 102.8065946 106.7546976  72.9586231  99.3899346
 106.0698014  73.3385132  98.8396379 106.8390825  73.5681557 100.1231294
 102.0559445  64.0607577 107.3117424 101.8120377  64.8149638 106.7751700
 102.3319375  64.4392925 108.1464671 104.0097908  70.6046190 105.9894689
 104.2214803  71.2477950 105.3129071 103.9627656  69.7708506 105.5216620
 101.6124137  63.2164010 102.8931262 100.7508616  63.5145264 103.1847999
 101.6386571  63.4334409 101.9612294  98.4285706  71.7606201  99.3005067
  98.8924052  72.0393904  98.5109690  98.1642504  70.8589645  99.1178158
  95.3209787  71.3077682 102.2384831  95.8911144  71.7364951 101.6002315
  95.9117899  71.0260267 102.9369016  97.3654592  67.8829353  96.1094632
  98.0678635  68.3350397  96.5768559  97.0335221  67.2413172  96.7374526
  95.8134954  66.4741110 110.4845842  95.1833614  67.1557391 110.7181239
  95.7071042  66.3624191 109.5398980  91.1079926  66.1412906 101.4111766
  90.3178980  66.3970434 100.9351877  91.5991173  66.9561244 101.5163806
 105.1243736  73.4818145 104.1617047 105.9461179  73.0798332 103.8799728
 105.1206138  73.3786379 105.1133163  93.0594671  66.5057485  98.3695243
  92.2625835  66.6176179  98.8878738  92.8320264  66.8444137  97.5036133
  98.8900339  73.0302188 106.3177757  98.9544772  73.4922596 107.1535929
  98.1811263  72.3999553 106.4460067  89.3917629  66.3943396 103.8426757
  89.6425667  67.2790406 104.1084333  89.9277177  66.2147998 103.0701849
 113.2149729  69.8256894 100.5102018 112.4613437  69.2564292 100.3546023
 113.3497270  69.7919558 101.4572653  98.6048357  74.6970296  96.1856738
  98.4694032  75.5421832  96.6141585  99.1458169  74.8989573  95.4222671
  95.0915696  60.7761876 112.8471093  94.6982642  60.2228074 113.5218737
  95.9081837  61.0872454 113.2377610  92.0577754  72.2145734  96.7584663
  92.5702275  73.0088984  96.9090227  92.7100467  71.5172024  96.6918264
  93.8672639  75.3311490  98.8407416  94.0439267  76.2529455  98.6528400
  94.6629472  75.0169909  99.2701796  98.0083657  62.1919755 110.4391349
  98.7493371  62.7926908 110.3595812  98.2401580  61.4497393 109.8809392
  93.1524995  67.3776122 108.7169579  93.0378510  66.4761379 109.0176678
  92.2969513  67.6239819 108.3654396 100.2316833  75.3193862 110.3157080
  99.7880687  74.5330241 109.9977984 100.8934047  75.5073013 109.6500970
  94.9903954  76.8489664 104.8417758  95.5411379  76.7206727 104.0694752
  94.1515430  77.1484553 104.4912651 102.3298071  75.5996662 108.3438481
 102.3116547  76.4205543 107.8518750 103.2517991  75.4750737 108.5688622
  98.7871125  73.1140792 109.1861989  99.3199462  72.3529080 108.9561297
  98.2585206  72.8214444 109.9286144 101.9540820  58.2200858 104.7155631
 101.6105090  59.1102499 104.6394742 102.3219783  58.0302515 103.8525216
  90.0226671  70.5434388  97.5344233  90.8601893  70.9531397  97.3177941
  90.2004939  69.6033830  97.5044427 101.9191103  68.2109469  93.2228066
 101.4037726  68.9814073  93.4616454 101.6468411  67.5374605  93.8461128
  99.5038214  63.0559170  98.2813305  98.6479810  62.6666020  98.1018943
  99.9165166  63.1351130  97.4213090 101.0337361  60.5905513 102.6804864
 100.5302156  60.5535648 101.8672670 101.3267968  61.4998256 102.7401521
  97.2780247  60.6744243 101.6871046  98.1433243  60.4787051 101.3276936
  97.3457755  60.4454594 102.6140403 106.8925377  70.9641823  95.1581240
 106.1154820  70.6252983  94.7136402 107.5716858  70.9694447  94.4836205
 101.7077406  66.0836561  95.0487847 101.4027542  66.3982710  95.8997991
 102.6607848  66.1617981  95.0915180 100.1523838  72.2426784  96.6980801
  99.6245200  71.5079544  96.3854039  99.6511341  73.0201461  96.4520770
 105.1316684  70.4375805 101.8147848 104.4740358  71.1275066 101.9027976
 105.9357083  70.8272237 102.1581834  94.8842566  62.9046451  99.0587413
  95.4586318  62.6821632  98.3260606  95.4713548  62.9735145  99.8116014
 103.9422143  68.7920177  99.8651789 104.4554025  69.4250169 100.3673499
 104.5923367  68.1921373  99.4995149  95.2112153  64.9350912  93.0783298
  94.3749465  65.2725598  93.3992573  95.0716922  64.7999891  92.1410435
  97.1865233  59.7787699  97.7862482  96.5329646  59.4636717  97.1619097
  97.1445707  59.1563440  98.5122305  98.2976438  70.0606994  89.7015774
  97.3903500  69.8296248  89.9006923  98.7947470  69.2644614  89.8889756
 101.2044517  78.7704502  92.6212461 100.5306216  79.0736198  93.2297418
 101.5910339  79.5733582  92.2717918 100.4202974  66.2669633 102.1110130
  99.5025535  66.4884580 101.9531818 100.8363117  66.3415943 101.2521837
 101.2038021  67.6661049  97.2412810 101.9509840  68.1782446  96.9319932
 101.4729611  67.3445101  98.1017204  99.4764672  70.1619589  94.2239764
  98.5675891  69.8778622  94.3212234  99.5059755  70.5818668  93.3643071
 104.7083939  73.7726179  97.9930932 104.2546266  72.9317089  98.0496123
 104.0777906  74.4087577  98.3305712 103.6516859  64.7018165  99.2231599
 102.9139615  64.1895551  99.5541842 103.9043632  64.2618546  98.4114876
 103.1516878  75.6102676  98.9280750 103.4439853  76.1707733  98.2093116
 103.6615499  75.9031237  99.6833909 103.7528486  57.4794417  99.8173369
 104.0587363  56.6191780  99.5299284 104.4781091  58.0712037  99.6172363
  90.0452842  67.8825103  98.2054967  89.8477242  67.2894464  97.4806033
  89.4899506  67.5777314  98.9230905  98.0249566  67.7748210 100.3249560
  98.0798175  66.8222046 100.2492036  97.2140768  67.9307649 100.8090858
  99.1740759  71.7028333  91.5627843  98.7360189  70.9864192  91.1033480
  99.9151200  71.9304448  91.0012934  95.9641926  66.3925270  98.0839939
  95.1509791  66.6919440  98.4905131  96.4600920  65.9980958  98.8014421
  98.1150503  76.3883027 100.0174203  98.0726682  76.6143873  99.0882735
  99.0313202  76.1546401 100.1660005 101.5616137  66.8567094 106.9154833
 101.9165525  67.0838567 107.7749298 102.2088269  67.1885471 106.2932088
 107.2913874  69.9785530  97.6204162 107.1531773  70.1687126  96.6925351
 106.9350093  70.7404913  98.0772213  95.4556000  63.9643625 103.7001174
  96.0955380  63.8232384 103.0024137  94.6233531  63.6778139 103.3239776
 107.3183254  72.0462057 102.6315433 107.7519760  71.9537346 103.4798487
 108.0314835  72.0219558 101.9935449  96.2316304  73.2646056  99.8136166
  97.0256903  72.7696376  99.6118741  95.5207997  72.7363919  99.4503872
 101.0511149  75.6464151 104.1648534 101.1048171  76.2155087 104.9326250
 100.1825930  75.8166036 103.8002571  92.5399068  67.4089137  95.8895919
  91.6096656  67.3473593  96.1065881  92.6356540  66.8865090  95.0932560
  92.4584617  63.9343950  98.4774160  92.7191434  64.8489283  98.3683321
  93.2801789  63.4668393  98.6270773  93.9309542  65.3481707 105.6472985
  94.6032596  65.1399070 104.9985634  93.1039329  65.1503793 105.2078217
 108.1798803  72.0885758 105.1648319 108.3734693  72.9931568 105.4107593
 108.0799422  71.6293177 105.9986904  99.8335114  61.9743648 107.6638646
  99.1863029  62.6733598 107.5703122 100.6036130  62.4079792 108.0314894
 103.2413912  72.2392500 110.7389199 103.0899418  72.0103052 109.8219283
 103.2318592  73.1963102 110.7520544 100.0099248  69.8124413 105.7235466
 100.9391308  69.9635573 105.5504433  99.5890278  69.9008434 104.8684112
  98.8087580  73.8375078 103.4934003  98.6698666  73.4693862 104.3659941
  98.0202176  74.3522717 103.3217961  99.4035732  78.9384174  94.8359540
  99.5787488  78.4672217  95.6505162  98.7168520  79.5649940  95.0640800
 100.3592795  73.2156680 100.8822841 100.0242628  73.1757450 101.7780491
  99.8596741  72.5501396 100.4093251  94.3337039  68.6224310 106.4075422
  94.1956837  67.8904549 107.0086961  95.2441963  68.5333210 106.1259610
 103.2951987  70.5612715  91.1559901 102.6781158  69.8359543  91.0592953
 102.8268476  71.3222075  90.8126975  96.9619340  68.3344270 105.8959102
  97.6718959  67.6937462 105.8545720  96.9188648  68.5857165 106.8185283
 104.9506119  75.2711623 108.8165681 104.8918665  74.5870843 108.1496264
 105.3525637  76.0130613 108.3646307  95.6748274  65.3209488 107.7154741
  95.1385631  64.8700226 108.3676338  95.0864982  65.4555396 106.9725206
  93.9696818  82.0873537 101.6099400  94.2093416  82.7192061 102.2878418
  93.1266014  81.7361577 101.8964759  95.0850533  64.7798139  90.2781205
  94.2079999  64.6586940  89.9143452  95.5608286  63.9884217  90.0260094
 104.9523526  73.2351207 107.0479661 104.0650305  72.8977129 107.1706060
 105.5222077  72.5034238 107.2848426  86.6052673  69.5675299 100.3722712
  87.2923713  69.2537029  99.7843727  86.4500802  70.4716663 100.0989963
  91.4087395  64.4565495 104.8007736  91.3245584  63.8491165 104.0658146
  90.5870102  64.9474514 104.8017232  98.4824679  77.8952659 104.0140904
  98.4094851  78.7007631 104.5260208  98.0402072  78.0944625 103.1888925
  98.2714459  77.1324429  97.5243725  97.4881981  77.6746110  97.6181950
  98.9707204  77.6498409  97.9237967 101.5811109  62.9419059 100.1677931
 102.0779809  62.1889021  99.8479001 100.8098091  62.9783375  99.6021140
 109.4340867  68.6459424 101.8096222 109.4230743  69.5284140 101.4390155
 108.5658246  68.2930975 101.6150759 100.9423363  77.7939493 106.1699063
 101.6551335  78.4286958 106.0974964 100.4513392  77.8903359 105.3539064
 102.6640890  71.6990746  97.7416354 101.7297169  71.8192208  97.5721059
 102.8417558  70.7963213  97.4776364  98.1646078  65.0836442  99.8949615
  97.7943865  64.5307482 100.5830521  98.6605170  64.4794575  99.3424615
 106.0513441  67.5408065  98.2766388 106.5173893  68.3736057  98.2026691
 106.5020942  67.0753047  98.9811647  95.9935276  75.5433937 106.9904633
  96.6944736  76.1770420 107.1434028  95.5230391  75.8848668 106.2300273
 104.1189672  73.8851887  95.2752540 104.3949516  73.7708481  96.1846414
 103.2494171  73.4869371  95.2364713 104.0230104  59.9088652 102.3157290
 103.1093184  60.1392879 102.4839497 104.4523205  59.9927096 103.1671322
 103.7936562  68.0978544 104.8157184 103.1408013  68.3454452 104.1609636
 104.1716942  67.2842682 104.4819661 100.7543736  78.1338237  98.9185354
 100.9366131  77.3159893  99.3813106 101.5776722  78.3505930  98.4810244
 101.0885902  77.0606423  96.1800402 101.6173668  76.5498877  95.5670565
 101.3514121  76.7448953  97.0445936  99.8424135  68.8398355 111.3023221
  99.1664772  68.7392485 111.9725596 100.6651769  68.6837569 111.7659218
  91.5902994  75.0770292 103.9235736  92.1756431  74.3313980 104.0563640
  91.3927833  75.3874249 104.8072400  94.4441650  78.1121539  98.9398178
  93.7752025  78.5967667  98.4562218  94.3054519  78.3590760  99.8541557
  86.1820649  67.6475892 102.6440179  86.2204749  67.1139483 103.4377297
  85.6760942  67.1211098 102.0251156  98.5846918  80.1465283 105.5380837
  99.1365226  80.3096904 106.3029922  98.9253112  80.7369721 104.8660862
  93.5611412  62.4940433 106.1402721  93.6252738  63.3555263 105.7280119
  93.4978532  61.8814434 105.4075080  93.0363684  64.5663565 109.7875756
  93.6635723  64.1840642 110.4013280  92.1791603  64.3477767 110.1531448
  89.8129227  66.3739994  95.7194111  90.1082668  65.4650673  95.6661164
  88.9117263  66.3527734  95.3975113 101.7215306  78.0947258 102.5244519
 101.5966445  77.2936998 102.0155464 102.3794397  78.5893452 102.0358489
  93.3423474  64.4495991 101.7021659  92.6210060  65.0631959 101.5629132
  94.1316730  64.9853756 101.6238305 103.7850214  75.8956278 104.1524069
 102.8380549  75.7761630 104.0802396 104.1332987  75.0078776 104.2350330
  96.1449787  61.7850417 107.9762311  96.6684189  62.0312714 108.7388620
  95.9262121  62.6170452 107.5565448  91.5417068  64.0554092  95.8433436
  91.2129775  63.1751471  95.6608542  91.8956439  64.0001761  96.7309825
 100.7896647  75.6908995 100.3528421 100.6421610  74.7625702 100.5335991
 101.6150141  75.7129085  99.8685496  94.6558892  64.3427062  96.2108913
  94.9954964  64.8712983  95.4887522  95.1031012  64.6807468  96.9867480
 104.3930769  76.5137553 101.4393294 105.3177317  76.3080415 101.3017745
 104.2246072  76.2653954 102.3482636  97.3502332  62.7264112 105.6611981
  97.0099153  61.9271925 106.0632661  96.6441339  63.0265823 105.0888815
  98.0018804  59.8113425 104.1139304  98.8244874  59.3373903 103.9918195
  98.2456868  60.5903909 104.6137991  96.6427039  62.8401683  94.4102206
  97.3635401  63.2182936  93.9065923  96.0192343  63.5590560  94.5137184
 100.7858162  63.5446832  95.3460538 101.0021776  64.4271470  95.0449367
 100.3052229  63.1533046  94.6166180  95.5257383  66.5032545 101.9231283
  95.3801964  66.8172849 102.8155565  95.0482587  67.1217446 101.3702182
  97.3853766  63.4935093 101.9712173  97.3715335  62.5976187 101.6344471
  98.1026194  63.5005757 102.6050459  99.2379897  63.9272434 104.0165300
  98.9797674  64.8489504 104.0149631  98.7064937  63.5302868 104.7065764
 104.1826085  77.0323221  96.7955385 104.3562963  76.4669643  96.0429238
 104.6754977  77.8324116  96.6134875  90.0003045  69.0437890 104.8618944
  89.4556513  69.8197698 104.9939219  90.8782395  69.3908694 104.7038066
  96.7890662  62.3749474  97.2399743  96.9106573  61.4466120  97.4390630
  96.4992704  62.3888160  96.3278058  99.6581852  60.0604384 100.3766463
  99.6803549  60.1243717  99.4218442 100.0749911  59.2208893 100.5706969
 110.0365476  69.7959644  98.4145685 110.4796623  69.0466969  98.0164808
 109.1591987  69.7869780  98.0319417 105.1701258  76.3489985  93.8952284
 105.8652162  76.9696678  94.1139598 105.5124408  75.4985336  94.1704662
  90.7869067  68.1707786 107.7549101  90.0450803  68.3190421 108.3413732
  90.4661811  68.4316052 106.8915851 107.0692681  73.7989691  95.4239615
 107.5944005  74.1376963  94.6988935 106.9815033  72.8636706  95.2402749
  98.7312730  77.7123764 107.5529491  99.0399856  77.4672911 108.4252191
  99.5288212  77.9170403 107.0648361  98.7533342  79.8661674  99.7834868
  98.3138332  79.3738053 100.4767724  99.5041459  79.3234642  99.5426943
  91.2325681  76.0573215  99.7859496  92.0583701  75.7576987  99.4058139
  90.8819733  75.2880837 100.2349284  96.2007214  75.4099683 101.8557169
  95.5787223  74.7470388 101.5559397  96.8712081  75.4360815 101.1730817
  89.4334286  73.9759541 100.7448429  88.5966194  73.5481716 100.5632431
  89.4057931  74.1691985 101.6819221  96.2731741  63.8881471 111.4489675
  96.3219897  64.7643594 111.0667445  96.8154256  63.3458864 110.8761319
 106.8784462  71.2815061 108.0423541 106.9282467  71.1165068 108.9839064
 106.7698385  70.4142320 107.6521422  95.7620721  73.9603606  95.3315630
  95.9108841  74.6439071  94.6782303  96.5687164  73.9408696  95.8465086
 104.1688224  67.2645989 109.3582848 105.0698087  67.1252454 109.0666846
 104.2436199  67.4300444 110.2981025  98.5031030  64.6412844 108.2036034
  97.6334339  64.9346410 107.9318623  98.7390510  65.2253289 108.9243298
 108.3802659  73.7012002 108.2865563 108.0887467  74.0641983 109.1229024
 107.7674790  72.9879011 108.1078895 109.5798341  71.2664882 100.8068133
 110.4145233  71.7054686 100.9705693 109.7157470  70.7903535  99.9876379
 106.6289847  68.8244617 106.7545621 107.1043969  69.0172263 105.9464472
 105.7055412  68.8803803 106.5089004  93.5173354  69.9868784  96.3376699
  93.2719396  69.0831114  96.5356909  93.6869268  69.9885934  95.3956177
 101.2070064  60.8592460 105.7201454 101.7252007  61.5953487 105.3947943
 100.8525196  61.1656454 106.5548214  92.7869001  65.7197142  93.8362860
  92.0938246  65.7941497  93.1802896  92.5420753  64.9557485  94.3584377
 101.4582658  57.2792743 101.2402351 101.7384412  56.6115932 101.8662778
 102.2433265  57.4721839 100.7277015  99.2616126  76.4551737  92.8027377
  98.6890093  77.0741924  92.3497849  99.8348920  77.0051099  93.3367299
 105.3291516  65.7010377 104.9873926 106.2808939  65.8008475 105.0086150
 105.1594967  64.9088646 105.4972011 103.3505896  62.7865960 105.1733327
 102.7555828  63.0670973 104.4779816 103.0655592  63.2759861 105.9450068
 102.4813386  76.7388887  93.9335960 103.4144059  76.6734449  94.1368835
 102.3936599  77.5745154  93.4750492 105.1101403  76.0554757  90.8939907
 105.0315034  75.7214621  91.7875665 105.9311070  76.5476525  90.8931380
 107.8079594  68.9216497 104.1016226 107.7755914  67.9832497 104.2875910
 108.4180218  69.0000533 103.3682051  99.6462925  67.7912550  90.1443430
 100.5922029  67.6618758  90.2131848  99.2677170  67.0527212  90.6212858
 107.9574082  65.7127540 104.1474509 107.4413131  64.9285997 103.9604438
 108.8414031  65.3846257 104.3121028 105.6184809  59.4568556 100.1070322
 105.4209630  59.1483644 100.9913654 106.2284515  60.1830195 100.2368252
 113.6256144  69.9832503 103.2422263 114.3559532  69.7217792 103.8029966
 113.0163089  69.2461225 103.2824331 111.7071441  68.1240366 103.8396714
 110.9804604  67.9896331 103.2313205 111.2918728  68.4317195 104.6453432
  99.5301617  71.8430296 111.6044087 100.4504627  72.0208895 111.7984133
  99.4951200  70.8986341 111.4523786  97.8305842  65.7162526  90.0798315
  96.9237297  65.4195639  90.1561029  98.1081823  65.4192344  89.2132601
  88.7483782  67.0368889 100.5297361  88.4286567  66.1834198 100.2371735
  88.2017210  67.2517468 101.2855329  92.5263690  69.7531330 104.2466868
  92.7449700  70.6848438 104.2654902  92.9389464  69.3939305 105.0321672
  99.4467908  60.2599416  96.2342556  98.6368636  59.9146501  96.6097802
 100.1352325  59.9506959  96.8230168 101.3758456  59.3377463  97.8566853
 101.9289495  59.7572916  98.5156876 101.6128542  58.4113211  97.8989809
  97.3991555  65.3264536 113.6369617  97.2988282  66.2758893 113.5681708
  97.1813097  64.9982775 112.7645687  96.6004627  62.5749461  90.2210294
  97.4623791  62.9004360  90.4806112  96.7854971  61.7880957  89.7083360
  88.6172042  70.6571801 102.4990483  87.9235514  70.2425754 101.9860437
  89.3645033  70.6992337 101.9023902 104.7537263  61.4477988  97.3645517
 104.1735932  62.1062792  96.9823570 104.4873196  60.6255332  96.9532935
 103.2040829  60.8483045  99.5666838 103.7040608  60.9599580  98.7581156
 103.8476437  60.5444098 100.2067646  97.2622825  68.7561675 112.4534679
  96.7789907  69.5562035 112.6598568  97.3483764  68.7669620 111.5002123
  90.5308785  70.5890055 100.3756498  90.5079473  70.6877742  99.4238381
  90.8409421  71.4355205 100.6973664  93.1896163  72.6466210 104.4903112
  94.1439416  72.6150152 104.4233044  92.9908686  72.1856833 105.3053338
  93.7795545  71.2167326 107.0573910  94.5988434  71.7111404 107.0808747
  94.0532353  70.2999294 107.0291478 103.5362141  63.6078078  96.4201866
 102.6487996  63.8927729  96.2022060 103.9516130  63.4471841  95.5729142
 106.8876677  63.6324599 100.1356205 107.6637067  64.1221051 100.4080822
 106.1624811  64.0582653 100.5928074 109.3249236  64.3452218 101.1930145
 109.9193727  64.1047954 100.4823454 109.3975819  63.6259349 101.8203682
  91.5446391  78.1885829 101.5073310  91.4100859  77.4286230 100.9411308
  91.1278454  78.9126729 101.0402099 102.6805354  73.3722753  90.5149886
 103.3841205  73.5772755  91.1307541 101.9568003  73.9399515  90.7798969
 103.5103165  69.1232614  96.6352156 103.4538366  69.5801165  95.7959788
 104.0631507  68.3623299  96.4574998 107.3207971  64.9122346  97.4602275
 107.0644905  64.5118982  98.2910483 106.6960839  65.6266140  97.3352414
 111.6320309  67.6518419  99.9673567 111.0719867  67.7211608 100.7405129
 111.0263812  67.4759404  99.2473063  94.7015517  79.0855146 101.7191753
  94.5847902  80.0300579 101.6170443  93.8807964  78.7828708 102.1077552
 104.5892052  73.8105282  92.5648346 105.4237656  73.3786480  92.3825820
 104.4276395  73.6387296  93.4925240 104.2437944  70.3137395  93.9304685
 104.1886748  70.1481667  92.9893129 103.6183999  71.0213428  94.0866875
  89.0330459  65.5505460 107.7566107  89.6789323  65.0404414 108.2453332
  88.8247610  66.2874141 108.3309532  97.5534070  59.8145504  93.5090003
  97.5412739  60.7587344  93.6658274  98.4457491  59.6315650  93.2149464
  95.7270031  79.7383408 104.9347681  96.6297278  79.7707018 105.2514176
  95.5007402  78.8083859 104.9494017  97.4823634  78.4914395 101.5957760
  96.5319265  78.4916256 101.4822132  97.7856120  77.7447129 101.0793795
 101.3686189  56.4088281  97.7635940 100.6018585  55.8546768  97.9092622
 101.7796894  56.4810150  98.6250092  93.3727950  62.6973077 111.8541121
  94.2359412  62.3409882 112.0644446  92.7993361  62.3586972 112.5416526
 110.0266033  84.2802361 102.5965047 109.6884545  84.1643426 101.7085582
 110.8955801  83.8793526 102.5766053 105.8852849  86.1337838  98.5861938
 105.3217714  86.0427775  97.8178226 105.7705244  85.3137742  99.0664430
 103.4317281  87.6289029 101.4246158 104.2238573  87.2879854 101.0092458
 103.6713931  87.7384004 102.3448312 111.4652408  89.8008805  93.8976403
 110.8140387  90.3862886  93.5110417 112.2596770  90.3315000  93.9571440
 105.3908035  86.8897942  94.2963537 106.1638911  86.3426930  94.1576413
 105.7433434  87.7542192  94.5077999 107.7274313  83.0490609  91.9281987
 107.9799833  82.5272130  91.1665450 106.7898872  82.8856754  92.0308671
 112.7717595  82.0526387  99.7356730 113.5580685  81.6345810  99.3847147
 113.0356300  82.9572479  99.9038379 112.9427673  87.4899237  94.4345387
 112.3073506  87.5633864  95.1466292 112.6125079  88.0792836  93.7564466
 118.1726023  81.9901620 100.6389709 118.9051195  81.4200837 100.8727538
 117.4165378  81.6023221 101.0796214 107.4470601  84.9518714  94.1306362
 107.3306860  84.2763618  94.7987446 107.5572861  84.4651088  93.3138515
 109.7902142  84.4128862  97.8353051 109.4260350  83.8859483  98.5465973
 110.6469258  84.0227331  97.6619537 115.6951443  75.7023194 105.0984317
 115.3634768  76.5718605 104.8745532 115.0997056  75.3859478 105.7778348
 109.4307629  79.4418761  92.8314400 109.5982032  80.3098998  93.1984871
 109.2404798  79.6046043  91.9075689 105.6395444  84.3549537 100.5316935
 104.7145940  84.2225751 100.7394626 105.8879857  85.1343756 101.0286877
 109.4096850  81.8976419  93.8161067 109.2896475  82.3433470  94.6546547
 108.7149439  82.2461736  93.2574605 103.0004255  83.9982811 101.3660724
 103.1296636  84.2517290 102.2800135 102.3201706  84.5910519 101.0465379
 107.1703742  94.6680061  97.4651198 107.0927772  95.6187886  97.5439678
 106.5665386  94.3225933  98.1226124 115.1081916  82.3697892  94.6441401
 116.0199772  82.6025279  94.4689098 114.5991563  82.9534936  94.0816479
 112.4517891  78.5455928 102.8931262 111.5902370  78.8437182 103.1847999
 112.4780326  78.7626327 101.9612294 109.2679461  87.0898119  99.3005067
 109.7317806  87.3685822  98.5109690 109.0036259  86.1881563  99.1178158
 106.1603542  86.6369600 102.2384831 106.7304899  87.0656868 101.6002315
 106.7511653  86.3552185 102.9369016 108.2048347  83.2121271  96.1094632
 108.9072390  83.6642315  96.5768559 107.8728975  82.5705090  96.7374526
 101.9473681  81.4704824 101.4111766 101.1572735  81.7262352 100.9351877
 102.4384928  82.2853161 101.5163806 103.8988426  81.8349403  98.3695243
 103.1019589  81.9468097  98.8878738 103.6714018  82.1736055  97.5036133
 100.2311384  81.7235314 103.8426757 100.4819422  82.6082324 104.1084333
 100.7670932  81.5439916 103.0701849 109.4442111  90.0262214  96.1856738
 109.3087786  90.8713749  96.6141585 109.9851924  90.2281491  95.4222671
 102.8971509  87.5437652  96.7584663 103.4096029  88.3380902  96.9090227
 103.5494221  86.8463942  96.6918264 104.7066393  90.6603408  98.8407416
 104.8833022  91.5821373  98.6528400 105.5023227  90.3461827  99.2701796
 112.7934575  73.5492775 104.7155631 112.4498844  74.4394417 104.6394742
 113.1613537  73.3594433 103.8525216 100.8620425  85.8726306  97.5344233
 101.6995647  86.2823314  97.3177941 101.0398693  84.9325748  97.5044427
 112.7584857  83.5401386  93.2228066 112.2431481  84.3105991  93.4616454
 112.4862166  82.8666523  93.8461128 110.3431969  78.3851087  98.2813305
 109.4873565  77.9957938  98.1018943 110.7558920  78.4643048  97.4213090
 111.8731115  75.9197431 102.6804864 111.3695911  75.8827566 101.8672670
 112.1661722  76.8290173 102.7401521 108.1174001  76.0036160 101.6871046
 108.9826998  75.8078969 101.3276936 108.1851510  75.7746512 102.6140403
 117.7319132  86.2933741  95.1581240 116.9548574  85.9544901  94.7136402
 118.4110613  86.2986364  94.4836205 112.5471161  81.4128479  95.0487847
 112.2421296  81.7274628  95.8997991 113.5001603  81.4909898  95.0915180
 110.9917593  87.5718702  96.6980801 110.4638954  86.8371461  96.3854039
 110.4905095  88.3493378  96.4520770 105.7236320  78.2338368  99.0587413
 106.2980072  78.0113550  98.3260606 106.3107303  78.3027063  99.8116014
 114.7815897  84.1212095  99.8651789 115.2947779  84.7542087 100.3673499
 115.4317121  83.5213291  99.4995149 106.0505907  80.2642829  93.0783298
 105.2143219  80.6017516  93.3992573 105.9110677  80.1291809  92.1410435
 108.0258988  75.1079617  97.7862482 107.3723400  74.7928634  97.1619097
 107.9839462  74.4855358  98.5122305 109.1370193  85.3898912  89.7015774
 108.2297254  85.1588166  89.9006923 109.6341225  84.5936531  89.8889756
 112.0438272  94.0996419  92.6212461 111.3699970  94.4028116  93.2297418
 112.4304094  94.9025500  92.2717918 111.2596728  81.5961551 102.1110130
 110.3419290  81.8176498 101.9531818 111.6756872  81.6707861 101.2521837
 112.0431776  82.9952966  97.2412810 112.7903595  83.5074364  96.9319932
 112.3123366  82.6737019  98.1017204 110.3158426  85.4911507  94.2239764
 109.4069645  85.2070540  94.3212234 110.3453510  85.9110586  93.3643071
 114.4910613  80.0310083  99.2231599 113.7533370  79.5187469  99.5541842
 114.7437387  79.5910464  98.4114876 114.5922240  72.8086335  99.8173369
 114.8981117  71.9483698  99.5299284 115.3174845  73.4003955  99.6172363
 100.8846597  83.2117021  98.2054967 100.6870996  82.6186382  97.4806033
 100.3293261  82.9069231  98.9230905 108.8643320  83.1040128 100.3249560
 108.9191930  82.1513964 100.2492036 108.0534522  83.2599567 100.8090858
 110.0134514  87.0320251  91.5627843 109.5753944  86.3156110  91.1033480
 110.7544955  87.2596366  91.0012934 106.8035680  81.7217187  98.0839939
 105.9903546  82.0211358  98.4905131 107.2994674  81.3272876  98.8014421
 118.1307629  85.3077448  97.6204162 117.9925527  85.4979044  96.6925351
 117.7743848  86.0696831  98.0772213 106.2949755  79.2935543 103.7001174
 106.9349134  79.1524302 103.0024137 105.4627285  79.0070056 103.3239776
 107.0710059  88.5937973  99.8136166 107.8650657  88.0988293  99.6118741
 106.3601751  88.0655836  99.4503872 103.3792822  82.7381055  95.8895919
 102.4490410  82.6765511  96.1065881 103.4750294  82.2157008  95.0932560
 103.2978371  79.2635868  98.4774160 103.5585189  80.1781201  98.3683321
 104.1195544  78.7960310  98.6270773 104.7703297  80.6773625 105.6472985
 105.4426350  80.4690987 104.9985634 103.9433083  80.4795711 105.2078217
 110.2429487  94.2676092  94.8359540 110.4181242  93.7964135  95.6505162
 109.5562275  94.8941858  95.0640800 114.1345742  85.8904632  91.1559901
 113.5174912  85.1651461  91.0592953 113.6662230  86.6513993  90.8126975
 105.9244287  80.1090057  90.2781205 105.0473754  79.9878857  89.9143452
 106.4002041  79.3176135  90.0260094  97.4446428  84.8967216 100.3722712
  98.1317467  84.5828946  99.7843727  97.2894556  85.8008581 100.0989963
 102.2481150  79.7857413 104.8007736 102.1639338  79.1783082 104.0658146
 101.4263856  80.2766431 104.8017232 109.1108213  92.4616347  97.5243725
 108.3275735  93.0038027  97.6181950 109.8100959  92.9790327  97.9237967
 112.4204864  78.2710976 100.1677931 112.9173563  77.5180939  99.8479001
 111.6491845  78.3075293  99.6021140 113.5034644  87.0282664  97.7416354
 112.5690923  87.1484126  97.5721059 113.6811313  86.1255130  97.4776364
 109.0039832  80.4128359  99.8949615 108.6337620  79.8599400 100.5830521
 109.4998925  79.8086493  99.3424615 116.8907196  82.8699983  98.2766388
 117.3567648  83.7027975  98.2026691 117.3414696  82.4044965  98.9811647
 114.9583427  89.2143804  95.2752540 115.2343271  89.1000399  96.1846414
 114.0887925  88.8161289  95.2364713 114.8623858  75.2380570 102.3157290
 113.9486938  75.4684797 102.4839497 115.2916960  75.3219014 103.1671322
 111.9279656  92.3898340  96.1800402 112.4567423  91.8790795  95.5670565
 112.1907876  92.0740870  97.0445936  97.0214404  82.9767810 102.6440179
  97.0598503  82.4431400 103.4377297  96.5154697  82.4503015 102.0251156
 104.4005166  77.8232350 106.1402721 104.4646493  78.6847181 105.7280119
 104.3372286  77.2106352 105.4075080 100.6522981  81.7031912  95.7194111
 100.9476422  80.7942590  95.6661164  99.7511017  81.6819651  95.3975113
 104.1817228  79.7787908 101.7021659 103.4603814  80.3923876 101.5629132
 104.9710484  80.3145673 101.6238305 102.3810823  79.3846010  95.8433436
 102.0523529  78.5043388  95.6608542 102.7350194  79.3293678  96.7309825
 105.4952646  79.6718979  96.2108913 105.8348719  80.2004901  95.4887522
 105.9424767  80.0099385  96.9867480 108.1896087  78.0556030 105.6611981
 107.8492907  77.2563843 106.0632661 107.4835093  78.3557741 105.0888815
 108.8412559  75.1405342 104.1139304 109.6638628  74.6665821 103.9918195
 109.0850622  75.9195826 104.6137991 107.4820793  78.1693601  94.4102206
 108.2029156  78.5474854  93.9065923 106.8586097  78.8882478  94.5137184
 111.6251916  78.8738750  95.3460538 111.8415530  79.7563388  95.0449367
 111.1445983  78.4824963  94.6166180 106.3651137  81.8324463 101.9231283
 106.2195718  82.1464766 102.8155565 105.8876341  82.4509363 101.3702182
 108.2247520  78.8227011 101.9712173 108.2109089  77.9268104 101.6344471
 108.9419948  78.8297675 102.6050459 110.0773651  79.2564351 104.0165300
 109.8191429  80.1781422 104.0149631 109.5458691  78.8594786 104.7065764
 100.8396800  84.3729808 104.8618944 100.2950268  85.1489615 104.9939219
 101.7176149  84.7200612 104.7038066 107.6284416  77.7041391  97.2399743
 107.7500327  76.7758038  97.4390630 107.3386459  77.7180077  96.3278058
 110.4975607  75.3896302 100.3766463 110.5197303  75.4535635  99.4218442
 110.9143666  74.5500810 100.5706969 116.0095012  91.6781903  93.8952284
 116.7045917  92.2988596  94.1139598 116.3518162  90.8277254  94.1704662
 117.9086435  89.1281608  95.4239615 118.4337760  89.4668881  94.6988935
 117.8208788  88.1928624  95.2402749 102.0719435  91.3865133  99.7859496
 102.8977455  91.0868904  99.4058139 101.7213487  90.6172755 100.2349284
 100.2728040  89.3051459 100.7448429  99.4359949  88.8773633 100.5632431
 100.2451686  89.4983902 101.6819221 106.6014475  89.2895524  95.3315630
 106.7502596  89.9730988  94.6782303 107.4080919  89.2700614  95.8465086
 104.3567108  85.3160702  96.3376699 104.1113150  84.4123032  96.5356909
 104.5263023  85.3177852  95.3956177 112.0463818  76.1884378 105.7201454
 112.5645762  76.9245405 105.3947943 111.6918951  76.4948371 106.5548214
 103.6262756  81.0489059  93.8362860 102.9332001  81.1233414  93.1802896
 103.3814508  80.2849403  94.3584377 112.2976412  72.6084661 101.2402351
 112.5778166  71.9407850 101.8662778 113.0827019  72.8013756 100.7277015
 110.1009881  91.7843655  92.8027377 109.5283848  92.4033842  92.3497849
 110.6742674  92.3343016  93.3367299 113.3207141  92.0680805  93.9335960
 114.2537814  92.0026366  94.1368835 113.2330353  92.9037072  93.4750492
 115.9495157  91.3846675  90.8939907 115.8708789  91.0506539  91.7875665
 116.7704824  91.8768443  90.8931380 110.4856679  83.1204467  90.1443430
 111.4315784  82.9910675  90.2131848 110.1070924  82.3819129  90.6212858
 116.4578564  74.7860473 100.1070322 116.2603385  74.4775562 100.9913654
 117.0678269  75.5122112 100.2368252 108.6699596  81.0454444  90.0798315
 107.7631052  80.7487556  90.1561029 108.9475577  80.7484262  89.2132601
  99.5877537  82.3660807 100.5297361  99.2680321  81.5126115 100.2371735
  99.0410965  82.5809385 101.2855329 103.3657444  85.0823248 104.2466868
 103.5843454  86.0140356 104.2654902 103.7783218  84.7231222 105.0321672
 110.2861662  75.5891333  96.2342556 109.4762390  75.2438418  96.6097802
 110.9746079  75.2798877  96.8230168 112.2152210  74.6669380  97.8566853
 112.7683249  75.0864834  98.5156876 112.4522297  73.7405128  97.8989809
 107.4398381  77.9041379  90.2210294 108.3017545  78.2296277  90.4806112
 107.6248725  77.1172875  89.7083360  99.4565797  85.9863719 102.4990483
  98.7629268  85.5717671 101.9860437 100.2038788  86.0284255 101.9023902
 115.5931017  76.7769905  97.3645517 115.0129687  77.4354709  96.9823570
 115.3266950  75.9547250  96.9532935 114.0434584  76.1774963  99.5666838
 114.5434362  76.2891498  98.7581156 114.6870192  75.8736016 100.2067646
 101.3702539  85.9181972 100.3756498 101.3473227  86.0169660  99.4238381
 101.6803176  86.7647123 100.6973664 114.3755896  78.9369996  96.4201866
 113.4881751  79.2219646  96.2022060 114.7909885  78.7763759  95.5729142
 117.7270432  78.9616517 100.1356205 118.5030822  79.4512969 100.4080822
 117.0018566  79.3874571 100.5928074 120.1642990  79.6744136 101.1930145
 120.7587481  79.4339872 100.4823454 120.2369574  78.9551267 101.8203682
 113.5199109  88.7014670  90.5149886 114.2234959  88.9064673  91.1307541
 112.7961758  89.2691432  90.7798969 114.3496919  84.4524532  96.6352156
 114.2932121  84.9093083  95.7959788 114.9025262  83.6915216  96.4574998
 118.1601725  80.2414264  97.4602275 117.9038659  79.8410899  98.2910483
 117.5354593  80.9558057  97.3352414 115.4285806  89.1397200  92.5648346
 116.2631410  88.7078398  92.3825820 115.2670149  88.9679213  93.4925240
 115.0831699  85.6429313  93.9304685 115.0280502  85.4773584  92.9893129
 114.4577754  86.3505346  94.0866875  99.8724214  80.8797377 107.7566107
 100.5183077  80.3696331 108.2453332  99.6641365  81.6166059 108.3309532
 108.3927824  75.1437422  93.5090003 108.3806494  76.0879262  93.6658274
 109.2851246  74.9607567  93.2149464 112.2079943  71.7380199  97.7635940
 111.4412339  71.1838685  97.9092622 112.6190648  71.8102067  98.6250092
 116.8899662  95.5934747  93.0783298 116.0536974  95.9309433  93.3992573
 116.7504431  95.4583727  92.1410435 116.7638042  95.4381974  90.2781205
 115.8867508  95.3170775  89.9143452 117.2395795  94.6468053  90.0260094
 114.4656510  96.3780977  93.8362860 113.7725755  96.4525332  93.1802896
 114.2208262  95.6141321  94.3584377 119.5093351  96.3746361  90.0798315
 118.6024806  96.0779474  90.1561029 119.7869332  96.0776179  89.2132601
 118.2792136  93.2333297  90.2210294 119.1411300  93.5588195  90.4806112
 118.4642480  92.4464792  89.7083360 119.2321579  90.4729340  93.5090003
 119.2200248  91.4171180  93.6658274 120.1245000  90.2899485  93.2149464
  52.9734971  -4.9717405  84.1896505  52.8959001  -4.0209580  84.2684985
  52.3696615  -5.3171533  84.8471431  50.6121801  -2.2232011  88.3344707
  50.8518399  -1.5913487  89.0123725  49.7690997  -2.5743971  88.6210066
  51.0866633  -6.1984009  85.6643485  50.4177008  -5.7137881  85.1807525
  50.9479503  -5.9514788  86.5786864  55.2271902  -4.1640265  92.2626143
  55.7790210  -4.0008644  93.0275229  55.5678095  -3.5735828  91.5906168
  55.3958325  -4.4443874  86.5080174  54.9563315  -4.9367495  87.2013031
  56.1466442  -4.9870906  86.2672250  48.1871375  -6.1219719  88.2318617
  48.0525843  -6.8819318  87.6656615  47.7703437  -5.3978819  87.7647406
  51.3440501  -5.2250402  88.4437060  51.2272885  -4.2804969  88.3415750
  50.5232947  -5.5276840  88.8322859  52.3695015  -4.5722140  91.6592988
  53.2722261  -4.5398530  91.9759483  52.1432385  -5.5021689  91.6739324
  66.6691017  -0.0303187  89.3210354  66.3309528  -0.1462122  88.4330889
  67.5380785  -0.4312022  89.3011360  62.5277832   1.8232289  85.3107245
  61.9642697   1.7322226  84.5423532  62.4130227   1.0032194  85.7909737
  67.1510800   1.1231665  95.2796559  67.1399440   0.7284463  94.4077063
  67.3131439   0.3897737  95.8730331  60.0742264   3.3183481  88.1491465
  60.8663556   2.9774306  87.7337764  60.3138914   3.4278456  89.0693618
  68.1077391   5.4903257  80.6221709  67.4565371   6.0757338  80.2355723
  68.9021754   6.0209452  80.6816747  62.0333018   2.5792394  81.0208844
  62.8063894   2.0321381  80.8821720  62.3858417   3.4436644  81.2323305
  63.8718061   3.9068777  94.2275743  63.5807927   4.8114407  94.1122409
  64.5075045   3.9485304  94.9419813  64.7974268   1.2845625  90.8177103
  65.3937840   1.0601647  90.1034066  64.8549239   0.5430371  91.4202551
  64.3699296  -1.2614940  78.6527294  64.6224817  -1.7833418  77.8910757
  63.4323855  -1.4248794  78.7553977  69.5852656   3.1793689  81.1590694
  68.9498489   3.2528316  81.8711598  69.2550063   3.7687288  80.4809773
  64.0895585   0.6413166  80.8551669  63.9731843  -0.0341930  81.5232753
  64.1997845   0.1545540  80.0383822  66.4327126   0.1023313  84.5598358
  66.0685333  -0.4246066  85.2711279  67.2894242  -0.2878217  84.3864843
  68.8307946   3.5930192  91.2225537  68.5308669   4.4955231  91.1141344
  68.4859005   3.3262375  92.0746690  62.2820427   0.0443989  87.2562241
  61.3570924  -0.0879797  87.4639933  62.5304840   0.8238208  87.7532184
  59.6429238  -0.3122738  88.0906030  59.7721619  -0.0588259  89.0045442
  58.9626690   0.2804970  87.7710685  63.8128726  10.3574512  84.1896505
  63.7352755  11.3082338  84.2684985  63.2090369  10.0120385  84.8471431
  64.5592328   0.3387831  96.4075838  65.3007012   0.8772875  96.1310662
  63.8529313   0.9654120  96.5647390  70.0347667   2.4816972  95.0048000
  70.4431023   2.0399382  94.2602632  69.3124929   1.9069599  95.2582193
  70.3576482   3.0418162  88.7600289  69.7285344   3.2063876  88.0576357
  69.9702144   3.4559772  89.5311253  74.2365714   3.9772600  86.1144653
  73.5516752   4.3571502  85.5641686  74.3209563   4.5867927  86.8476600
  71.4916645   1.6232559  92.7139996  71.7033541   2.2664319  92.0374377
  71.4446394   0.7894876  92.2461926  65.9104444   2.7792570  86.0250374
  66.3742789   3.0580273  85.2354996  65.6461242   1.8776015  85.8423465
  62.8028525   2.3264052  88.9630137  63.3729882   2.7551320  88.3247622
  63.3936637   2.0446637  89.6614323  64.8473330  -1.0984277  82.8339939
  65.5497373  -0.6463234  83.3013865  64.5153958  -1.7400458  83.4619832
  63.2953691  -2.5072521  97.2091148  62.6652352  -1.8256240  97.4426545
  63.1889779  -2.6189439  96.2644287  58.5898664  -2.8400725  88.1357073
  57.7997718  -2.5843196  87.6597183  59.0809911  -2.0252387  88.2409113
  72.6062473   4.5004515  90.8862353  73.4279917   4.0984702  90.6045035
  72.6024876   4.3972749  91.8378469  60.5413409  -2.4756145  85.0940549
  59.7444572  -2.3637451  85.6124045  60.3139001  -2.1369493  84.2281440
  66.3719077   4.0488558  93.0423064  66.4363509   4.5108965  93.8781236
  65.6630001   3.4185923  93.1705374  56.8736367  -2.5870234  90.5672063
  57.1244405  -1.7023224  90.8329639  57.4095915  -2.7665633  89.7947155
  66.0867094   5.7156665  82.9102044  65.9512769   6.5608201  83.3386892
  66.6276907   5.9175943  82.1467978  59.5396492   3.2332103  83.4829969
  60.0521012   4.0275354  83.6335534  60.1919205   2.5358394  83.4163571
  61.3491377   6.3497860  85.5652723  61.5258005   7.2715824  85.3773706
  62.1448210   6.0356279  85.9947102  60.6343733  -1.6037508  95.4414886
  60.5197248  -2.5052251  95.7421985  59.7788251  -1.3573812  95.0899702
  67.7135571   6.3380232  97.0402386  67.2699425   5.5516610  96.7223291
  68.3752784   6.5259382  96.3746277  62.4722692   7.8676033  91.5663065
  63.0230117   7.7393097  90.7940059  61.6334168   8.1670923  91.2157958
  69.8116809   6.6183032  95.0683788  69.7935284   7.4391913  94.5764057
  70.7336729   6.4937107  95.2933929  66.2689863   4.1327161  95.9107296
  66.8018200   3.3715449  95.6806604  65.7403944   3.8400813  96.6531450
  57.5045409   1.5620758  84.2589540  58.3420631   1.9717766  84.0423248
  57.6823676   0.6220200  84.2289734  74.3744115   1.9828193  81.8826546
  73.5973558   1.6439353  81.4381708  75.0535596   1.9880816  81.2081511
  67.6342576   3.2613154  83.4226108  67.1063937   2.5265913  83.1099345
  67.1330079   4.0387830  83.1766076  72.6135422   1.4562174  88.5393154
  71.9559096   2.1461436  88.6273283  73.4175821   1.8458606  88.8827141
  65.7795176   1.0793364  76.4261081  64.8722238   0.8482618  76.6252230
  66.2766208   0.2830983  76.6135063  68.6863255   9.7890871  79.3457767
  68.0124954  10.0922568  79.9542725  69.0729077  10.5919952  78.9963224
  66.9583409   1.1805959  80.9485071  66.0494629   0.8964992  81.0457541
  66.9878493   1.6005037  80.0888378  72.1902677   4.7912548  84.7176239
  71.7365004   3.9503458  84.7741429  71.5596644   5.4273947  85.0551019
  70.6335616   6.6289045  85.6526057  70.9258590   7.1894102  84.9338422
  71.1434237   6.9217606  86.4079216  57.5271580  -1.0988527  84.9300273
  57.3295980  -1.6919166  84.2051340  56.9718244  -1.4036317  85.6476212
  66.6559497   2.7214703  78.2873150  66.2178927   2.0050562  77.8278787
  67.3969938   2.9490817  77.7258241  65.5969241   7.4069396  86.7419510
  65.5545420   7.6330243  85.8128042  66.5131940   7.1732771  86.8905311
  74.8001992   3.0648427  89.3560740  75.2338498   2.9723716  90.2043794
  75.5133572   3.0405927  88.7180756  63.7135042   4.2832425  86.5381473
  64.5075641   3.7882745  86.3364048  63.0026734   3.7550288  86.1749178
  68.5329887   6.6650521  90.8893840  68.5866909   7.2341457  91.6571556
  67.6644668   6.8352406  90.5247877  60.0217806  -1.5724493  82.6141225
  59.0915394  -1.6340038  82.8311188  60.1175278  -2.0948540  81.8177867
  75.6617541   3.1072127  91.8893625  75.8553431   4.0117938  92.1352900
  75.5618159   2.6479546  92.7232210  70.7232650   3.2578870  97.4634506
  70.5718156   3.0289422  96.5464589  70.7137329   4.2149471  97.4765851
  67.4917986   0.8310783  92.4480772  68.4210046   0.9821942  92.2749740
  67.0709016   0.9194804  91.5929419  66.2906318   4.8561447  90.2179310
  66.1517404   4.4880232  91.0905248  65.5020914   5.3709087  90.0463268
  66.8854470   9.9570544  81.5604846  67.0606226   9.4858587  82.3750469
  66.1987258  10.5836310  81.7886107  67.8411533   4.2343050  87.6068148
  67.5061366   4.1943820  88.5025798  67.3415479   3.5687766  87.1338558
  61.8155777  -0.3589320  93.1320729  61.6775575  -1.0909081  93.7332268
  62.7260701  -0.4480420  92.8504917  70.7770725   1.5799084  77.8805207
  70.1599895   0.8545912  77.7838260  70.3087213   2.3408445  77.5372282
  64.4438078  -0.6469361  92.6204408  65.1537696  -1.2876169  92.5791027
  64.4007386  -0.3956466  93.5430589  72.4324857   6.2897993  95.5410988
  72.3737403   5.6057213  94.8741571  72.8344375   7.0316983  95.0891614
  61.4515555  13.1059906  88.3344707  61.6912154  13.7378431  89.0123725
  60.6084752  12.7547946  88.6210066  72.4342264   4.2537577  93.7724967
  71.5469043   3.9163498  93.8951366  73.0040815   3.5220608  94.0093733
  54.0871411   0.5861668  87.0968019  54.7742451   0.2723398  86.5089034
  53.9319540   1.4903033  86.8235270  65.9643417   8.9139029  90.7386211
  65.8913589   9.7194000  91.2505515  65.5220810   9.1130995  89.9134232
  65.7533197   8.1510799  84.2489032  64.9700719   8.6932479  84.3427257
  66.4525942   8.6684779  84.6483273  68.4242101   8.8125863  92.8944369
  69.1370073   9.4473328  92.8220271  67.9332129   8.9089729  92.0784371
  70.1459628   2.7177116  84.4661661  69.2115906   2.8378578  84.2966365
  70.3236296   1.8149582  84.2021671  63.4754014   6.5620306  93.7149940
  64.1763474   7.1956789  93.8679334  63.0049129   6.9035038  92.9545579
  71.6008410   4.9038256  81.9997847  71.8768254   4.7894851  82.9091721
  70.7312909   4.5055741  81.9610020  68.2362474   9.1524607  85.6430661
  68.4184869   8.3346263  86.1058413  69.0595460   9.3692299  85.2055551
  68.5704640   8.0792792  82.9045709  69.0992406   7.5685247  82.2915871
  68.8332859   7.7635322  83.7691242  67.3242873  -0.1415275  98.0268527
  66.6483510  -0.2421146  98.6970903  68.1470507  -0.2976061  98.4904525
  59.0721732   6.0956661  90.6481043  59.6575169   5.3500349  90.7808947
  58.8746571   6.4060618  91.5317707  61.9260388   9.1307909  85.6643485
  61.2570763   9.6154036  85.1807525  61.7873257   9.3777129  86.5786864
  53.6639387  -1.3337738  89.3685486  53.7023487  -1.8674148  90.1622604
  53.1579680  -1.8602533  88.7496463  66.0665656  11.1651652  92.2626143
  66.6183964  11.3283274  93.0275229  66.4071850  11.7556090  91.5906168
  70.9176530   5.9912910  98.1174798  71.4616434   6.6042868  97.6229753
  70.3363375   6.5492488  98.6341811  57.2947965  -2.6073636  82.4439417
  57.5901406  -3.5162958  82.3906471  56.3936000  -2.6285897  82.1220420
  69.2034043   9.1133628  89.2489826  69.0785183   8.3123368  88.7400771
  69.8613134   9.6079821  88.7603796  71.2668952   6.9142648  90.8769376
  70.3199287   6.7947999  90.8047702  71.6151725   6.0265146  90.9595637
  68.2715385   6.7095364  87.0773728  68.1240347   5.7812072  87.2581298
  69.0968879   6.7315455  86.5930803  71.8749507   7.5323923  88.1638601
  72.7996054   7.3266784  88.0263052  71.7064810   7.2840324  89.0727942
  63.0076121  -2.4781085  88.6476590  62.8620701  -2.1640782  89.5400871
  62.5301324  -1.8596185  88.0947488  71.6644823   8.0509590  83.5200692
  71.8381701   7.4856013  82.7674545  72.1573714   8.8510485  83.3380182
  57.4821783   0.0624259  91.5864251  56.9375251   0.8384067  91.7184525
  58.3601133   0.4095064  91.4283372  72.6519996   7.3676355  80.6197590
  73.3470900   7.9883047  80.8384905  72.9943146   6.5171706  80.8949968
  58.2687805  -0.8105844  94.4794408  57.5269541  -0.6623209  95.0659038
  57.9480549  -0.5497579  93.6161157  74.5511419   4.8176060  82.1484921
  75.0762743   5.1563333  81.4234241  74.4633771   3.8823076  81.9648056
  66.2131467   8.7310134  94.2774798  66.5218594   8.4859281  95.1497497
  67.0106949   8.9356772  93.7893668  66.2352079  10.8848044  86.5080174
  65.7957070  10.3924422  87.2013031  66.9860196  10.3421011  86.2672250
  58.7144418   7.0759584  86.5104802  59.5402438   6.7763356  86.1303446
  58.3638470   6.3067207  86.9594591  63.6825952   6.4286053  88.5802476
  63.0605961   5.7656758  88.2804704  64.3530819   6.4547185  87.8976124
  56.9153023   4.9945911  87.4693736  56.0784932   4.5668085  87.2877737
  56.8876669   5.1878354  88.4064527  74.2405325   5.4508964  97.4536119
  73.4500868   5.4333103  96.9140619  74.0038679   5.9897258  98.2085156
  74.3603200   2.3001430  94.7668848  74.4101205   2.1351438  95.7084370
  74.2517123   1.4328689  94.3766728  63.2439459   4.9789976  82.0560937
  63.3927579   5.6625440  81.4027609  64.0505902   4.9595066  82.5710392
  75.8621397   4.7198372  95.0110869  75.5706205   5.0828352  95.8474330
  75.2493528   4.0065380  94.8324201  60.9992092   1.0055154  83.0622005
  60.7538133   0.1017484  83.2602216  61.1688006   1.0072304  82.1201483
  66.7434864   7.4738106  79.5272684  66.1708831   8.0928294  79.0743156
  67.3167658   8.0237468  80.0612606  69.9632124   7.7575257  80.6581266
  70.8962797   7.6920818  80.8614142  69.8755337   8.5931523  80.1995799
  72.5920141   7.0741127  77.6185214  72.5133772   6.7400991  78.5120972
  73.4129807   7.5662895  77.6176686  67.0120355   2.8616665  98.3289393
  67.9323365   3.0395264  98.5229440  66.9769938   1.9172711  98.1769093
  56.2302520  -1.9444741  87.2542668  55.9105304  -2.7979433  86.9617042
  55.6835948  -1.7296163  88.0100635  60.0082428   0.7717700  90.9712175
  60.2268437   1.7034808  90.9900208  60.4208201   0.4125674  91.7566978
  56.0990780   1.6758170  89.2235790  55.4054252   1.2612123  88.7105744
  56.8463771   1.7178707  88.6269209  64.7441563  -0.2251955  99.1779985
  64.2608645   0.5748405  99.3843874  64.8302502  -0.2144011  98.2247429
  58.0127523   1.6076424  87.1001805  57.9898211   1.7064112  86.1483688
  58.3228159   2.4541575  87.4218971  60.6714900   3.6652579  91.2148419
  61.6258154   3.6336522  91.1478351  60.4727424   3.2043203  92.0298645
  61.2614283   2.2353695  93.7819217  62.0807172   2.7297774  93.8054054
  61.5351090   1.3185663  93.7536784  59.0265129   9.2072199  88.2318617
  58.8919597   8.4472600  87.6656615  58.6097192   9.9313099  87.7647406
  70.1624092   4.3909122  77.2395192  70.8659942   4.5959125  77.8552848
  69.4386741   4.9585884  77.5044276  62.1834255  10.1041516  88.4437060
  62.0666639  11.0486948  88.3415750  61.3626701   9.8015077  88.8322859
  72.0710790   4.8291652  79.2893652  72.9056394   4.3972850  79.1071127
  71.9095133   4.6573665  80.2170547  71.7256682   1.3323765  80.6549992
  71.6705486   1.1668036  79.7138436  71.1002737   2.0399798  80.8112181
  56.5149197  -3.4308171  94.4811414  57.1608060  -3.9409217  94.9698639
  56.3066348  -2.6939489  95.0554839  69.0402589   3.6372677  99.9803554
  69.9093749   3.8113329  99.6190189  68.5609341   4.4567094  99.8579284
  63.2088769  10.7569778  91.6592988  64.1116016  10.7893388  91.9759483
  62.9826139   9.8270229  91.6739324  64.9642371   9.5100764  88.3203067
  64.0138002   9.5102626  88.2067439  65.2674857   8.7633499  87.8039101
  80.6995065  15.3461303  89.3848829  81.3373475  15.2268050  88.6812169
  80.5815908  16.2942147  89.4436781  77.5084771  15.2988731  89.3210354
  77.1703283  15.1829795  88.4330889  78.3774539  14.8979896  89.3011360
  73.3671587  17.1524207  85.3107245  72.8036452  17.0614144  84.5423532
  73.2523982  16.3324112  85.7909737  77.9904554  16.4523582  95.2796559
  77.9793195  16.0576381  94.4077063  78.1525194  15.7189655  95.8730331
  70.9136019  18.6475399  88.1491465  71.7057311  18.3066223  87.7337764
  71.1532669  18.7570374  89.0693618  78.9471145  20.8195175  80.6221709
  78.2959125  21.4049255  80.2355723  79.7415508  21.3501370  80.6816747
  72.8726773  17.9084312  81.0208844  73.6457649  17.3613299  80.8821720
  73.2252172  18.7728561  81.2323305  74.7111815  19.2360694  94.2275743
  74.4201681  20.1406325  94.1122409  75.3468800  19.2777222  94.9419813
  75.6368022  16.6137543  90.8177103  76.2331594  16.3893565  90.1034066
  75.6942994  15.8722288  91.4202551  75.2093050  14.0676978  78.6527294
  75.4618571  13.5458499  77.8910757  74.2717610  13.9043124  78.7553977
  80.2536333  13.0712756  86.4602037  81.0399422  12.6532180  86.1092454
  80.5175038  13.9758849  86.6283685  80.4246411  18.5085607  81.1590694
  79.7892244  18.5820233  81.8711598  80.0943817  19.0979206  80.4809773
  85.6544760  13.0087990  87.3635016  86.3869932  12.4387206  87.5972845
  84.8984116  12.6209590  87.8041521  74.9289339  15.9705084  80.8551669
  74.8125597  15.2949987  81.5232753  75.0391599  15.4837458  80.0383822
  77.2720880  15.4315231  84.5598358  76.9079087  14.9045852  85.2711279
  78.1287996  15.0413700  84.3864843  83.1770181   6.7209564  91.8229624
  82.8453506   7.5904975  91.5990839  82.5815794   6.4045848  92.5023654
  76.9126367  10.4605131  79.5559706  77.0800769  11.3285367  79.9230178
  76.7223536  10.6232413  78.6320996  79.6701700  18.9222110  91.2225537
  79.3702423  19.8247149  91.1141344  79.3252760  18.6554293  92.0746690
  73.1214182  15.3735907  87.2562241  72.1964678  15.2412121  87.4639933
  73.3698595  16.1530126  87.7532184  83.0698844  11.4404650  88.9022974
  82.1615721  11.3720058  88.6081735  83.0186440  11.9176595  89.7304800
  76.8915588  12.9162788  80.5406373  76.7715213  13.3619839  81.3791854
  76.1968176  13.2648106  79.9819911  70.4822993  15.0169180  88.0906030
  70.6115374  15.2703659  89.0045442  69.8020444  15.6096888  87.7710685
  74.6522480  25.6866430  84.1896505  74.5746510  26.6374255  84.2684985
  74.0484124  25.3412303  84.8471431  77.1439710  12.8594296  96.8457871
  76.3673044  13.4188216  96.8360736  77.7830273  13.3451079  97.3672742
  84.9360490   9.6421088  90.6800848  84.2934871   9.9353622  90.0340643
  84.4315419   9.5274009  91.4854045  82.5900654  13.3884262  81.3686707
  83.5018510  13.6211648  81.1934405  82.0810301  13.9721306  80.8061786
  75.3986082  15.6679749  96.4075838  76.1400767  16.2064793  96.1310662
  74.6923068  16.2946038  96.5647390  80.8741422  17.8108889  95.0048000
  81.2824778  17.3691300  94.2602632  80.1518683  17.2361517  95.2582193
  77.2272492  12.7481496  92.3781557  78.0733687  13.1720910  92.5216206
  77.1671130  12.0915120  93.0720120  81.1970236  18.3710080  88.7600289
  80.5679099  18.5355794  88.0576357  80.8095899  18.7851690  89.5311253
  85.0759468  19.3064518  86.1144653  84.3910506  19.6863419  85.5641686
  85.1603318  19.9159844  86.8476600  80.3771937  10.4085864  94.0362731
  80.1332869  11.1627925  93.4997006  80.6531868  10.7871212  94.8709978
  82.3310400  16.9524477  92.7139996  82.5427295  17.5956237  92.0374377
  82.2840148  16.1186793  92.2461926  79.9336629   9.5642298  89.6176568
  79.0721108   9.8623551  89.9093306  79.9599064   9.7812696  88.6857601
  76.7498198  18.1084488  86.0250374  77.2136544  18.3872191  85.2354996
  76.4854996  17.2067933  85.8423465  73.6422279  17.6555970  88.9630137
  74.2123636  18.0843238  88.3247622  74.2330391  17.3738554  89.6614323
  75.6867084  14.2307640  82.8339939  76.3891128  14.6828684  83.3013865
  75.3547713  13.5891459  83.4619832  74.1347446  12.8219397  97.2091148
  73.5046106  13.5035678  97.4426545  74.0283534  12.7102479  96.2644287
  69.4292418  12.4891193  88.1357073  68.6391472  12.7448722  87.6597183
  69.9203666  13.3039531  88.2409113  83.4456228  19.8296432  90.8862353
  84.2673672  19.4276620  90.6045035  83.4418631  19.7264666  91.8378469
  71.3807164  12.8535772  85.0940549  70.5838327  12.9654467  85.6124045
  71.1532756  13.1922425  84.2281440  77.2112831  19.3780476  93.0423064
  77.2757264  19.8400883  93.8781236  76.5023755  18.7477841  93.1705374
  67.7130121  12.7421684  90.5672063  67.9638160  13.6268693  90.8329639
  68.2489670  12.5626285  89.7947155  91.5362221  16.1735181  87.2347325
  90.7825929  15.6042579  87.0791329  91.6709762  16.1397845  88.1817960
  76.9260849  21.0448583  82.9102044  76.7906524  21.8900119  83.3386892
  77.4670661  21.2467861  82.1467978  73.4128189   7.1240163  99.5716399
  73.0195134   6.5706361 100.2464044  74.2294329   7.4350741  99.9622917
  70.3790246  18.5624021  83.4829969  70.8914767  19.3567271  83.6335534
  71.0312959  17.8650312  83.4163571  72.1885131  21.6789777  85.5652723
  72.3651759  22.6007742  85.3773706  72.9841965  21.3648197  85.9947102
  76.3296150   8.5398042  97.1636656  77.0705863   9.1405195  97.0841119
  76.5614072   7.7975680  96.6054699  71.4737488  13.7254409  95.4414886
  71.3591003  12.8239667  95.7421985  70.6182005  13.9718106  95.0899702
  78.5529325  21.6672150  97.0402386  78.1093180  20.8808528  96.7223291
  79.2146539  21.8551300  96.3746277  73.3116447  23.1967951  91.5663065
  73.8623872  23.0685015  90.7940059  72.4727922  23.4962840  91.2157958
  80.6510563  21.9474950  95.0683788  80.6329039  22.7683831  94.5764057
  81.5730483  21.8229025  95.2933929  77.1083618  19.4619079  95.9107296
  77.6411954  18.7007367  95.6806604  76.5797699  19.1692731  96.6531450
  80.2753313   4.5679145  91.4400938  79.9317582   5.4580787  91.3640048
  80.6432275   4.3780803  90.5770523  68.3439163  16.8912675  84.2589540
  69.1814385  17.3009684  84.0423248  68.5217431  15.9512118  84.2289734
  80.2403595  14.5587756  79.9473373  79.7250219  15.3292361  80.1861760
  79.9680904  13.8852892  80.5706434  77.8250706   9.4037457  85.0058611
  76.9692303   9.0144307  84.8264250  78.2377658   9.4829418  84.1458397
  79.3549853   6.9383800  89.4050171  78.8514649   6.9013935  88.5917976
  79.6480460   7.8476543  89.4646828  75.5992739   7.0222530  88.4116353
  76.4645736   6.8265339  88.0522242  75.6670248   6.7932882  89.3385709
  85.2137869  17.3120111  81.8826546  84.4367312  16.9731270  81.4381708
  85.8929350  17.3172734  81.2081511  80.0289898  12.4314848  81.7733154
  79.7240034  12.7460997  82.6243297  80.9820341  12.5096268  81.8160487
  78.4736330  18.5905071  83.4226108  77.9457692  17.8557831  83.1099345
  77.9723833  19.3679748  83.1766076  83.4529176  16.7854092  88.5393154
  82.7952851  17.4753353  88.6273283  84.2569576  17.1750524  88.8827141
  73.2055058   9.2524738  85.7832720  73.7798810   9.0299919  85.0505912
  73.7926040   9.3213432  86.5361321  82.2634635  15.1398465  86.5897096
  82.7766517  15.7728456  87.0918806  82.9135859  14.5399660  86.2240456
  73.5324645  11.2829199  79.8028605  72.6961957  11.6203885  80.1237880
  73.3929415  11.1478179  78.8655742  75.5077726   6.1265987  84.5107789
  74.8542138   5.8115004  83.8864404  75.4658200   5.5041727  85.2367612
  76.6188930  16.4085282  76.4261081  75.7115992  16.1774535  76.6252230
  77.1159962  15.6122901  76.6135063  79.5257009  25.1182789  79.3457767
  78.8518708  25.4214486  79.9542725  79.9122831  25.9211869  78.9963224
  78.7415466  12.6147920  88.8355437  77.8238027  12.8362867  88.6777125
  79.1575610  12.6894231  87.9767144  79.5250514  14.0139336  83.9658117
  80.2722333  14.5260733  83.6565239  79.7942103  13.6923389  84.8262510
  77.7977164  16.5097877  80.9485071  76.8888383  16.2256909  81.0457541
  77.8272248  16.9296955  80.0888378  83.0296431  20.1204466  84.7176239
  82.5758758  19.2795376  84.7741429  82.3990398  20.7565864  85.0551019
  81.9729351  11.0496452  85.9476906  81.2352108  10.5373838  86.2787149
  82.2256124  10.6096834  85.1360183  81.4729371  21.9580963  85.6526057
  81.7652345  22.5186020  84.9338422  81.9827991  22.2509524  86.4079216
  68.3665334  14.2303391  84.9300273  68.1689734  13.6372751  84.2051340
  67.8111998  13.9255601  85.6476212  76.3462058  14.1226497  87.0494866
  76.4010668  13.1700334  86.9737343  75.5353260  14.2785936  87.5336165
  77.4953252  18.0506620  78.2873150  77.0572682  17.3342479  77.8278787
  78.2363693  18.2782735  77.7258241  74.2854418  12.7403557  84.8085245
  73.4722283  13.0397728  85.2150437  74.7813412  12.3459246  85.5259728
  76.4362996  22.7361314  86.7419510  76.3939175  22.9622160  85.8128042
  77.3525695  22.5024688  86.8905311  79.8828630  13.2045381  93.6400139
  80.2378017  13.4316855  94.4994605  80.5300761  13.5363758  93.0177395
  85.6126367  16.3263817  84.3449468  85.4744265  16.5165413  83.4170657
  85.2562585  17.0883200  84.8017519  73.7768493  10.3121912  90.4246480
  74.4167872  10.1710672  89.7269444  72.9446023  10.0256426  90.0485082
  85.6395746  18.3940344  89.3560740  86.0732253  18.3015633  90.2043794
  86.3527327  18.3697845  88.7180756  74.5528797  19.6124343  86.5381473
  75.3469395  19.1174663  86.3364048  73.8420489  19.0842206  86.1749178
  79.3723641  21.9942438  90.8893840  79.4260663  22.5633375  91.6571556
  78.5038422  22.1644323  90.5247877  70.8611560  13.7567425  82.6141225
  69.9309148  13.6951880  82.8311188  70.9569032  13.2343377  81.8177867
  70.7797109  10.2822237  85.2019467  71.0403926  11.1967571  85.0928628
  71.6014281   9.8146680  85.3516080  72.2522034  11.6959995  92.3718292
  72.9245088  11.4877357  91.7230941  71.4251821  11.4982081  91.9323524
  86.5011296  18.4364045  91.8893625  86.6947186  19.3409855  92.1352900
  86.4011914  17.9771464  92.7232210  78.1547606   8.3221936  94.3883953
  77.5075521   9.0211885  94.2948429  78.9248622   8.7558079  94.7560201
  81.5626404  18.5870788  97.4634506  81.4111911  18.3581339  96.5464589
  81.5531084  19.5441389  97.4765851  78.3311741  16.1602700  92.4480772
  79.2603801  16.3113860  92.2749740  77.9102771  16.2486721  91.5929419
  77.1300073  20.1853365  90.2179310  76.9911158  19.8172149  91.0905248
  76.3414669  20.7001004  90.0463268  77.7248225  25.2862461  81.5604846
  77.8999980  24.8150505  82.3750469  77.0381013  25.9128228  81.7886107
  78.6805288  19.5634968  87.6068148  78.3455120  19.5235738  88.5025798
  78.1809233  18.8979683  87.1338558  72.6549532  14.9702598  93.1320729
  72.5169330  14.2382836  93.7332268  73.5654455  14.8811498  92.8504917
  81.6164479  16.9091002  77.8805207  80.9993650  16.1837830  77.7838260
  81.1480968  17.6700362  77.5372282  75.2831832  14.6822557  92.6204408
  75.9931451  14.0415749  92.5791027  75.2401140  14.9335452  93.5430589
  83.2718611  21.6189910  95.5410988  83.2131157  20.9349130  94.8741571
  83.6738129  22.3608900  95.0891614  73.9960766  11.6687775  94.4400048
  73.4598123  11.2178513  95.0921644  73.4077475  11.8033684  93.6970512
  72.2909310  28.4351824  88.3344707  72.5305908  29.0670348  89.0123725
  71.4478506  28.0839864  88.6210066  73.4063025  11.1276426  77.0026512
  72.5292492  11.0065227  76.6388758  73.8820778  10.3362505  76.7505400
  83.2736018  19.5829494  93.7724967  82.3862797  19.2455416  93.8951366
  83.8434569  18.8512525  94.0093733  64.9265165  15.9153586  87.0968019
  65.6136205  15.6015316  86.5089034  64.7713294  16.8194951  86.8235270
  69.7299888  10.8043783  91.5253042  69.6458076  10.1969452  90.7903452
  68.9082594  11.2952801  91.5262539  76.8037172  24.2430947  90.7386211
  76.7307343  25.0485918  91.2505515  76.3614565  24.4422912  89.9134232
  76.5926951  23.4802717  84.2489032  75.8094473  24.0224397  84.3427257
  77.2919696  23.9976696  84.6483273  79.9023601   9.2897346  86.8923237
  80.3992301   8.5367308  86.5724308  79.1310583   9.3261663  86.3266447
  87.7553359  14.9937712  88.5341529  87.7443235  15.8762427  88.1635462
  86.8870738  14.6409262  88.3396066  79.2635855  24.1417781  92.8944369
  79.9763827  24.7765245  92.8220271  78.7725884  24.2381647  92.0784371
  80.9853382  18.0469033  84.4661661  80.0509661  18.1670496  84.2966365
  81.1630051  17.1441500  84.2021671  76.4858570  11.4314729  86.6194922
  76.1156358  10.8785769  87.3075828  76.9817663  10.8272863  86.0669922
  84.3725933  13.8886353  85.0011695  84.8386386  14.7214344  84.9271998
  84.8233434  13.4231334  85.7056953  74.3147769  21.8912224  93.7149940
  75.0157228  22.5248707  93.8679334  73.8442884  22.2326956  92.9545579
  82.4402165  20.2330174  81.9997847  82.7162008  20.1186768  82.9091721
  81.5706663  19.8347659  81.9610020  82.3442596   6.2566940  89.0402596
  81.4305676   6.4871166  89.2084803  82.7735698   6.3405384  89.8916629
  82.1149055  14.4456832  91.5402490  81.4620505  14.6932739  90.8854943
  82.4929435  13.6320970  91.2064968  79.0756229  24.4816525  85.6430661
  79.2578623  23.6638181  86.1058413  79.8989215  24.6984217  85.2055551
  79.4098394  23.4084710  82.9045709  79.9386160  22.8977164  82.2915871
  79.6726614  23.0927240  83.7691242  78.1636628  15.1876643  98.0268527
  77.4877265  15.0870772  98.6970903  78.9864262  15.0315856  98.4904525
  69.9115487  21.4248579  90.6481043  70.4968924  20.6792267  90.7808947
  69.7140325  21.7352536  91.5317707  72.7654142  24.4599826  85.6643485
  72.0964517  24.9445954  85.1807525  72.6267012  24.7069047  86.5786864
  64.5033142  13.9954179  89.3685486  64.5417241  13.4617770  90.1622604
  63.9973434  13.4689385  88.7496463  76.9059411  26.4943570  92.2626143
  77.4577719  26.6575192  93.0275229  77.2465604  27.0848008  91.5906168
  71.8823904   8.8418720  92.8648028  71.9465230   9.7033551  92.4525426
  71.8191024   8.2292721  92.1320387  71.3576176  10.9141852  96.5121062
  71.9848215  10.5318930  97.1258587  70.5004095  10.6956054  96.8776755
  81.7570285  21.3204828  98.1174798  82.3010189  21.9334786  97.6229753
  81.1757130  21.8784406  98.6341811  68.1341719  12.7218281  82.4439417
  68.4295160  11.8128960  82.3906471  67.2329755  12.7006021  82.1220420
  80.0427798  24.4425546  89.2489826  79.9178937  23.6415285  88.7400771
  80.7006889  24.9371739  88.7603796  71.6635966  10.7974278  88.4266966
  70.9422552  11.4110246  88.2874439  72.4529222  11.3332043  88.3483612
  82.1062706  22.2434566  90.8769376  81.1593042  22.1239917  90.8047702
  82.4545479  21.3557064  90.9595637  74.4662280   8.1328705  94.7007618
  74.9896681   8.3791001  95.4633927  74.2474613   8.9648739  94.2810755
  69.8629561  10.4032379  82.5678742  69.5342267   9.5229758  82.3853848
  70.2168931  10.3480048  83.4555132  79.1109140  22.0387282  87.0773728
  78.9634102  21.1103989  87.2581298  79.9362633  22.0607373  86.5930803
  72.9771384  10.6905349  82.9354220  73.3167456  11.2191270  82.2132828
  73.4243504  11.0285755  83.7112787  82.7143261  22.8615841  88.1638601
  83.6389809  22.6558702  88.0263052  82.5458565  22.6132242  89.0727942
  75.6714825   9.0742400  92.3857288  75.3311645   8.2750213  92.7877968
  74.9653831   9.3744110  91.8134121  76.3231296   6.1591712  90.8384611
  77.1457366   5.6852190  90.7163501  76.5669360   6.9382196  91.3383297
  74.9639531   9.1879971  81.1347513  75.6847893   9.5661223  80.6311230
  74.3404835   9.9068847  81.2382491  79.1070654   9.8925119  82.0705845
  79.3234268  10.7749757  81.7694673  78.6264721   9.5011333  81.3411487
  73.8469875  12.8510833  88.6476590  73.7014456  13.1651136  89.5400871
  73.3695079  13.4695733  88.0947488  75.7066258   9.8413381  88.6957479
  75.6927827   8.9454474  88.3589777  76.4238686   9.8484044  89.3295765
  77.5592389  10.2750721  90.7410607  77.3010167  11.1967792  90.7394937
  77.0277429   9.8781155  91.4311071  82.5038578  23.3801508  83.5200692
  82.6775455  22.8147931  82.7674545  82.9967469  24.1802403  83.3380182
  68.3215537  15.3916177  91.5864251  67.7769005  16.1675985  91.7184525
  69.1994887  15.7386982  91.4283372  75.1103154   8.7227761  83.9645049
  75.2319065   7.7944407  84.1635937  74.8205196   8.7366447  83.0523365
  77.9794344   6.4082671  87.1011769  78.0016041   6.4722004  86.1463749
  78.3962403   5.5687180  87.2952275  88.3577969  16.1437931  85.1390992
  88.8009115  15.3945256  84.7410115  87.4804479  16.1348067  84.7564724
  83.4913750  22.6968272  80.6197590  84.1864655  23.3174965  80.8384905
  83.8336900  21.8463624  80.8949968  69.1081559  14.5186073  94.4794408
  68.3663295  14.6668709  95.0659038  68.7874304  14.7794339  93.6161157
  85.3905173  20.1467978  82.1484921  85.9156497  20.4855251  81.4234241
  85.3027526  19.2114993  81.9648056  77.0525222  24.0602052  94.2774798
  77.3612348  23.8151198  95.1497497  77.8500704  24.2648690  93.7893668
  77.0745834  26.2139961  86.5080174  76.6350824  25.7216340  87.2013031
  77.8253951  25.6712929  86.2672250  69.5538173  22.4051502  86.5104802
  70.3796193  22.1055274  86.1303446  69.2032225  21.6359125  86.9594591
  74.5219706  21.7577970  88.5802476  73.8999715  21.0948675  88.2804704
  75.1924573  21.7839102  87.8976124  67.7546778  20.3237829  87.4693736
  66.9178686  19.8960003  87.2877737  67.7270423  20.5170272  88.4064527
  74.5944234  10.2359758  98.1734982  74.6432389  11.1121881  97.7912752
  75.1366748   9.6937151  97.6006625  85.0799079  20.7800882  97.4536119
  84.2894623  20.7625020  96.9140619  84.8432434  21.3189175  98.2085156
  85.1996954  17.6293348  94.7668848  85.2494959  17.4643355  95.7084370
  85.0910878  16.7620607  94.3766728  74.0833213  20.3081894  82.0560937
  74.2321333  20.9917358  81.4027609  74.8899656  20.2886984  82.5710392
  82.4900717  13.6124276  96.0828154  83.3910579  13.4730741  95.7912152
  82.5648691  13.7778731  97.0226332  76.8243522  10.9891131  94.9281341
  75.9546831  11.2824697  94.6563929  77.0603002  11.5731576  95.6488604
  86.7015151  20.0490289  95.0110869  86.4099959  20.4120270  95.8474330
  86.0887282  19.3357298  94.8324201  87.9010833  17.6143169  87.5313439
  88.7357725  18.0532973  87.6951000  88.0369962  17.1381822  86.7121685
  84.9502339  15.1722904  93.4790927  85.4256461  15.3650550  92.6709779
  84.0267905  15.2282090  93.2334311  71.8385846  16.3347071  83.0622005
  71.5931888  15.4309401  83.2602216  72.0081761  16.3364222  82.1201483
  79.5282556   7.2070748  92.4446761  80.0464500   7.9431775  92.1193250
  79.1737689   7.5134741  93.2793520  71.1081494  12.0675429  80.5608167
  70.4150738  12.1419784  79.9048203  70.8633245  11.3035773  81.0829684
  77.5828619  22.8030024  79.5272684  77.0102586  23.4220211  79.0743156
  78.1561412  23.3529386  80.0612606  83.6504008  12.0488664  91.7119233
  84.6021431  12.1486762  91.7331457  83.4807459  11.2566933  92.2217317
  81.6718388   9.1344247  91.8978634  81.0768320   9.4149260  91.2025122
  81.3868085   9.6238148  92.6695375  80.8025878  23.0867174  80.6581266
  81.7356551  23.0212736  80.8614142  80.7149091  23.9223441  80.1995799
  83.4313895  22.4033045  77.6185214  83.3527527  22.0692908  78.5120972
  84.2523562  22.8954812  77.6176686  86.1292086  15.2694784  90.8261532
  86.0968406  14.3310785  91.0121216  86.7392710  15.3478821  90.0927357
  77.9675417  14.1390837  76.8688736  78.9134522  14.0097045  76.9377155
  77.5889662  13.4005499  77.3458165  86.2786575  12.0605827  90.8719816
  85.7625623  11.2764284  90.6849744  87.1626523  11.7324544  91.0366335
  83.9397302   5.8046843  86.8315628  83.7422123   5.4961931  87.7158960
  84.5497007   6.5308482  86.9613558  91.9468636  16.3310791  89.9667569
  92.6772025  16.0696079  90.5275273  91.3375582  15.5939513  90.0069637
  90.0283933  14.4718653  90.5642020  89.3017097  14.3374618  89.9558512
  89.6131220  14.7795482  91.3698738  77.8514110  18.1908583  98.3289393
  78.7717119  18.3687182  98.5229440  77.8163693  17.2464628  98.1769093
  76.1518334  12.0640813  76.8043622  75.2449790  11.7673926  76.8806335
  76.4294315  11.7670631  75.9377908  67.0696275  13.3847177  87.2542668
  66.7499059  12.5312485  86.9617042  66.5229703  13.5995755  88.0100635
  70.8476182  16.1009618  90.9712175  71.0662192  17.0326725  90.9900208
  71.2601956  15.7417592  91.7566978  77.7680400   6.6077703  82.9587863
  76.9581128   6.2624788  83.3343109  78.4564817   6.2985247  83.5475475
  79.6970948   5.6855750  84.5812160  80.2501987   6.1051203  85.2402183
  79.9341035   4.7591498  84.6235116  75.7204047  11.6742823 100.3614924
  75.6200774  12.6237180 100.2927015  75.5025589  11.3461062  99.4890994
  74.9217119   8.9227748  76.9455601  75.7836283   9.2482647  77.2051418
  75.1067463   8.1359244  76.4328667  66.9384535  17.0050088  89.2235790
  66.2448006  16.5904041  88.7105744  67.6857526  17.0470625  88.6269209
  83.0749755   7.7956275  84.0890824  82.4948424   8.4541079  83.7068876
  82.8085688   6.9733620  83.6778241  81.5253322   7.1961333  86.2912144
  82.0253100   7.3077867  85.4826463  82.1688930   6.8922385  86.9312953
  75.5835317  15.1039962  99.1779985  75.1002399  15.9040322  99.3843874
  75.6696257  15.1147907  98.2247429  68.8521277  16.9368342  87.1001805
  68.8291965  17.0356029  86.1483688  69.1621914  17.7833493  87.4218971
  71.5108655  18.9944497  91.2148419  72.4651909  18.9628439  91.1478351
  71.3121179  18.5335121  92.0298645  72.1008037  17.5645613  93.7819217
  72.9200926  18.0589692  93.8054054  72.3744845  16.6477581  93.7536784
  81.8574633   9.9556365  83.1447172  80.9700488  10.2406016  82.9267367
  82.2728622   9.7950129  82.2974449  85.2089169   9.9802886  86.8601511
  85.9849560  10.4699339  87.1326128  84.4837304  10.4060940  87.3173381
  87.6461728  10.6930506  87.9175452  88.2406219  10.4526241  87.2068760
  87.7188312   9.9737636  88.5448988  69.8658884  24.5364116  88.2318617
  69.7313352  23.7764517  87.6656615  69.4490946  25.2605016  87.7647406
  81.0017847  19.7201040  77.2395192  81.7053697  19.9251042  77.8552848
  80.2780496  20.2877802  77.5044276  81.8315657  15.4710901  83.3597462
  81.7750858  15.9279453  82.5205095  82.3844000  14.7101586  83.1820305
  85.6420463  11.2600633  84.1847582  85.3857397  10.8597269  85.0155790
  85.0173331  11.9744427  84.0597721  89.9532801  13.9996706  86.6918873
  89.3932359  14.0689896  87.4650435  89.3476304  13.8237691  85.9718369
  73.0228010  25.4333433  88.4437060  72.9060394  26.3778866  88.3415750
  72.2020456  25.1306995  88.8322859  82.9104544  20.1583569  79.2893652
  83.7450148  19.7264768  79.1071127  82.7488887  19.9865583  80.2170547
  82.5650436  16.6615682  80.6549992  82.5099240  16.4959954  79.7138436
  81.9396492  17.3691715  80.8112181  67.3542951  11.8983747  94.4811414
  68.0001815  11.3882701  94.9698639  67.1460102  12.6352429  95.0554839
  79.8796344  18.9664594  99.9803554  80.7487503  19.1405247  99.6190189
  79.4003095  19.7859011  99.8579284  75.8746562   6.1623791  80.2335310
  75.8625232   7.1065631  80.3903581  76.7669984   5.9793937  79.9394771
  74.0482524  26.0861695  91.6592988  74.9509770  26.1185306  91.9759483
  73.8219894  25.1562146  91.6739324  75.8036126  24.8392682  88.3203067
  74.8531757  24.8394544  88.2067439  76.1068612  24.0925416  87.8039101
  71.6940442   9.0451364  98.5786428  72.5571904   8.6888169  98.7889753
  71.1205853   8.7065259  99.2661832  91.5388819  30.6753220  89.3848829
  92.1767229  30.5559968  88.6812169  91.4209662  31.6234064  89.4436781
  88.3478526  30.6280648  89.3210354  88.0097037  30.5121713  88.4330889
  89.2168294  30.2271813  89.3011360  84.2065341  32.4816125  85.3107245
  83.6430206  32.3906062  84.5423532  84.0917736  31.6616029  85.7909737
  88.8298309  31.7815500  95.2796559  88.8186949  31.3868298  94.4077063
  88.9918948  31.0481573  95.8730331  81.7529773  33.9767316  88.1491465
  82.5451065  33.6358141  87.7337764  81.9926423  34.0862291  89.0693618
  89.7864900  36.1487093  80.6221709  89.1352880  36.7341173  80.2355723
  90.5809263  36.6793287  80.6816747  83.7120527  33.2376230  81.0208844
  84.4851403  32.6905217  80.8821720  84.0645926  34.1020479  81.2323305
  85.5505570  34.5652612  94.2275743  85.2595436  35.4698243  94.1122409
  86.1862554  34.6069140  94.9419813  86.4761777  31.9429460  90.8177103
  87.0725349  31.7185483  90.1034066  86.5336748  31.2014206  91.4202551
  86.0486805  29.3968896  78.6527294  86.3012326  28.8750417  77.8910757
  85.1111364  29.2335041  78.7553977  91.0930088  28.4004674  86.4602037
  91.8793177  27.9824097  86.1092454  91.3568792  29.3050766  86.6283685
  91.2640165  33.8377524  81.1590694  90.6285998  33.9112151  81.8711598
  90.9337572  34.4271123  80.4809773  96.4938515  28.3379907  87.3635016
  97.2263687  27.7679124  87.5972845  95.7377871  27.9501508  87.8041521
  85.7683094  31.2997002  80.8551669  85.6519352  30.6241905  81.5232753
  85.8785354  30.8129376  80.0383822  88.1114635  30.7607149  84.5598358
  87.7472842  30.2337770  85.2711279  88.9681751  30.3705618  84.3864843
  94.0163935  22.0501481  91.8229624  93.6847260  22.9196892  91.5990839
  93.4209549  21.7337765  92.5023654  87.7520122  25.7897049  79.5559706
  87.9194524  26.6577285  79.9230178  87.5617291  25.9524330  78.6320996
  90.5095455  34.2514027  91.2225537  90.2096178  35.1539066  91.1141344
  90.1646514  33.9846211  92.0746690  83.9607936  30.7027824  87.2562241
  83.0358433  30.5704038  87.4639933  84.2092349  31.4822044  87.7532184
  93.9092599  26.7696568  88.9022974  93.0009476  26.7011976  88.6081735
  93.8580194  27.2468513  89.7304800  87.7309342  28.2454706  80.5406373
  87.6108968  28.6911757  81.3791854  87.0361931  28.5940024  79.9819911
  81.3216747  30.3461098  88.0906030  81.4509128  30.5995577  89.0045442
  80.6414199  30.9388806  87.7710685  85.4916235  41.0158348  84.1896505
  85.4140264  41.9666173  84.2684985  84.8877878  40.6704220  84.8471431
  87.9833464  28.1886213  96.8457871  87.2066798  28.7480133  96.8360736
  88.6224027  28.6742996  97.3672742  95.7754245  24.9713006  90.6800848
  95.1328625  25.2645539  90.0340643  95.2709173  24.8565926  91.4854045
  93.4294409  28.7176179  81.3686707  94.3412265  28.9503566  81.1934405
  92.9204056  29.3013223  80.8061786  86.2379837  30.9971667  96.4075838
  86.9794521  31.5356711  96.1310662  85.5316822  31.6237955  96.5647390
  91.7135176  33.1400807  95.0048000  92.1218532  32.6983218  94.2602632
  90.9912438  32.5653435  95.2582193  88.0666246  28.0773414  92.3781557
  88.9127442  28.5012827  92.5216206  88.0064884  27.4207038  93.0720120
  92.0363991  33.7001998  88.7600289  91.4072853  33.8647712  88.0576357
  91.6489653  34.1143607  89.5311253  95.9153223  34.6356436  86.1144653
  95.2304261  35.0155337  85.5641686  95.9997072  35.2451762  86.8476600
  91.2165692  25.7377782  94.0362731  90.9726624  26.4919843  93.4997006
  91.4925622  26.1163130  94.8709978  93.1704154  32.2816395  92.7139996
  93.3821050  32.9248154  92.0374377  93.1233903  31.4478711  92.2461926
  90.7730383  24.8934215  89.6176568  89.9114862  25.1915469  89.9093306
  90.7992818  25.1104614  88.6857601  87.5891953  33.4376406  86.0250374
  88.0530298  33.7164109  85.2354996  87.3248751  32.5359850  85.8423465
  84.4816034  32.9847887  88.9630137  85.0517391  33.4135156  88.3247622
  85.0724146  32.7030472  89.6614323  86.5260839  29.5599558  82.8339939
  87.2284882  30.0120602  83.3013865  86.1941467  28.9183377  83.4619832
  84.9741200  28.1511315  97.2091148  84.3439861  28.8327596  97.4426545
  84.8677288  28.0394396  96.2644287  80.2686173  27.8183111  88.1357073
  79.4785227  28.0740639  87.6597183  80.7597420  28.6331449  88.2409113
  94.2849982  35.1588350  90.8862353  95.1067426  34.7568537  90.6045035
  94.2812385  35.0556584  91.8378469  82.2200918  28.1827690  85.0940549
  81.4232081  28.2946384  85.6124045  81.9926510  28.5214342  84.2281440
  88.0506586  34.7072393  93.0423064  88.1151018  35.1692800  93.8781236
  87.3417510  34.0769758  93.1705374  78.5523876  28.0713601  90.5672063
  78.8031914  28.9560611  90.8329639  79.0883424  27.8918203  89.7947155
 102.3755975  31.5027098  87.2347325 101.6219684  30.9334497  87.0791329
 102.5103517  31.4689763  88.1817960  87.7654603  36.3740501  82.9102044
  87.6300278  37.2192036  83.3386892  88.3064416  36.5759778  82.1467978
  84.2521943  22.4532081  99.5716399  83.8588889  21.8998279 100.2464044
  85.0688083  22.7642659  99.9622917  81.2184001  33.8915939  83.4829969
  81.7308521  34.6859189  83.6335534  81.8706714  33.1942229  83.4163571
  83.0278886  37.0081695  85.5652723  83.2045514  37.9299660  85.3773706
  83.8235719  36.6940114  85.9947102  87.1689904  23.8689960  97.1636656
  87.9099617  24.4697113  97.0841119  87.4007827  23.1267597  96.6054699
  82.3131242  29.0546327  95.4414886  82.1984757  28.1531584  95.7421985
  81.4575760  29.3010024  95.0899702  89.3923080  36.9964067  97.0402386
  88.9486934  36.2100446  96.7223291  90.0540293  37.1843218  96.3746277
  84.1510201  38.5259869  91.5663065  84.7017626  38.3976932  90.7940059
  83.3121677  38.8254758  91.2157958  91.4904318  37.2766867  95.0683788
  91.4722793  38.0975748  94.5764057  92.4124238  37.1520942  95.2933929
  87.9477372  34.7910997  95.9107296  88.4805709  34.0299285  95.6806604
  87.4191453  34.4984648  96.6531450  91.1147067  19.8971063  91.4400938
  90.7711336  20.7872704  91.3640048  91.4826030  19.7072720  90.5770523
  79.1832918  32.2204593  84.2589540  80.0208140  32.6301601  84.0423248
  79.3611185  31.2804035  84.2289734  91.0797350  29.8879674  79.9473373
  90.5643973  30.6584278  80.1861760  90.8074658  29.2144810  80.5706434
  88.6644461  24.7329375  85.0058611  87.8086057  24.3436225  84.8264250
  89.0771413  24.8121335  84.1458397  90.1943607  22.2675718  89.4050171
  89.6908403  22.2305853  88.5917976  90.4874214  23.1768461  89.4646828
  86.4386493  22.3514448  88.4116353  87.3039490  22.1557256  88.0522242
  86.5064002  22.1224799  89.3385709  96.0531624  32.6412028  81.8826546
  95.2761067  32.3023188  81.4381708  96.7323105  32.6464652  81.2081511
  90.8683653  27.7606766  81.7733154  90.5633789  28.0752915  82.6243297
  91.8214095  27.8388186  81.8160487  89.3130085  33.9196989  83.4226108
  88.7851446  33.1849749  83.1099345  88.8117588  34.6971665  83.1766076
  94.2922931  32.1146010  88.5393154  93.6346605  32.8045271  88.6273283
  95.0963330  32.5042442  88.8827141  84.0448812  24.5816655  85.7832720
  84.6192564  24.3591837  85.0505912  84.6319795  24.6505350  86.5361321
  93.1028390  30.4690382  86.5897096  93.6160271  31.1020374  87.0918806
  93.7529613  29.8691578  86.2240456  84.3718400  26.6121116  79.8028605
  83.5355712  26.9495803  80.1237880  84.2323169  26.4770096  78.8655742
  86.3471480  21.4557904  84.5107789  85.6935892  21.1406922  83.8864404
  86.3051954  20.8333645  85.2367612  87.4582685  31.7377199  76.4261081
  86.5509747  31.5066453  76.6252230  87.9553717  30.9414819  76.6135063
  90.3650764  40.4474707  79.3457767  89.6912463  40.7506403  79.9542725
  90.7516586  41.2503787  78.9963224  89.5809220  27.9439838  88.8355437
  88.6631782  28.1654785  88.6777125  89.9969364  28.0186148  87.9767144
  90.3644268  29.3431254  83.9658117  91.1116087  29.8552651  83.6565239
  90.6335858  29.0215306  84.8262510  88.6370918  31.8389794  80.9485071
  87.7282138  31.5548827  81.0457541  88.6666002  32.2588873  80.0888378
  93.8690186  35.4496384  84.7176239  93.4152513  34.6087294  84.7741429
  93.2384153  36.0857782  85.0551019  92.8123105  26.3788370  85.9476906
  92.0745862  25.8665756  86.2787149  93.0649879  25.9388751  85.1360183
  92.3123125  37.2872880  85.6526057  92.6046099  37.8477938  84.9338422
  92.8221746  37.5801441  86.4079216  92.9134733  19.1564622  86.5418675
  93.2193610  18.2961985  86.2544590  93.6387338  19.7482242  86.3417669
  79.2059089  29.5595308  84.9300273  79.0083489  28.9664669  84.2051340
  78.6505753  29.2547519  85.6476212  87.1855812  29.4518415  87.0494866
  87.2404422  28.4992251  86.9737343  86.3747014  29.6077854  87.5336165
  88.3347006  33.3798538  78.2873150  87.8966436  32.6634397  77.8278787
  89.0757447  33.6074653  77.7258241  85.1248172  28.0695475  84.8085245
  84.3116038  28.3689645  85.2150437  85.6207167  27.6751163  85.5259728
  87.2756750  38.0653232  86.7419510  87.2332929  38.2914078  85.8128042
  88.1919449  37.8316606  86.8905311  90.7222384  28.5337299  93.6400139
  91.0771772  28.7608772  94.4994605  91.3694515  28.8655676  93.0177395
  96.4520121  31.6555735  84.3449468  96.3138020  31.8457331  83.4170657
  96.0956340  32.4175118  84.8017519  84.6162247  25.6413830  90.4246480
  85.2561626  25.5002589  89.7269444  83.7839778  25.3548344  90.0485082
  96.4789501  33.7232262  89.3560740  96.9126007  33.6307551  90.2043794
  97.1921081  33.6989762  88.7180756  85.3922551  34.9416261  86.5381473
  86.1863150  34.4466581  86.3364048  84.6814243  34.4134124  86.1749178
  90.2117396  37.3234356  90.8893840  90.2654418  37.8925292  91.6571556
  89.3432177  37.4936241  90.5247877  81.7005314  29.0859342  82.6141225
  80.7702903  29.0243798  82.8311188  81.7962786  28.5635295  81.8177867
  81.6190864  25.6114155  85.2019467  81.8797681  26.5259488  85.0928628
  82.4408036  25.1438598  85.3516080  83.0915789  27.0251912  92.3718292
  83.7638842  26.8169274  91.7230941  82.2645575  26.8273998  91.9323524
  97.3405050  33.7655963  91.8893625  97.5340940  34.6701773  92.1352900
  97.2405668  33.3063382  92.7232210  88.9941361  23.6513853  94.3883953
  88.3469276  24.3503803  94.2948429  89.7642376  24.0849997  94.7560201
  92.4020159  33.9162705  97.4634506  92.2505665  33.6873257  96.5464589
  92.3924838  34.8733307  97.4765851  89.1705495  31.4894618  92.4480772
  90.0997555  31.6405778  92.2749740  88.7496525  31.5778639  91.5929419
  87.9693827  35.5145283  90.2179310  87.8304913  35.1464067  91.0905248
  87.1808423  36.0292922  90.0463268  88.5641979  40.6154379  81.5604846
  88.7393735  40.1442422  82.3750469  87.8774767  41.2420145  81.7886107
  89.5199042  34.8926885  87.6068148  89.1848875  34.8527655  88.5025798
  89.0202988  34.2271601  87.1338558  83.4943286  30.2994515  93.1320729
  83.3563084  29.5674754  93.7332268  84.4048210  30.2103415  92.8504917
  92.4558234  32.2382920  77.8805207  91.8387404  31.5129748  77.7838260
  91.9874722  32.9992280  77.5372282  86.1225587  30.0114475  92.6204408
  86.8325205  29.3707667  92.5791027  86.0794895  30.2627369  93.5430589
  94.1112365  36.9481828  95.5410988  94.0524912  36.2641048  94.8741571
  94.5131884  37.6900818  95.0891614  84.8354521  26.9979692  94.4400048
  84.2991878  26.5470431  95.0921644  84.2471229  27.1325601  93.6970512
  83.1303064  43.7643742  88.3344707  83.3699663  44.3962266  89.0123725
  82.2872261  43.4131782  88.6210066  84.2456780  26.4568344  77.0026512
  83.3686246  26.3357145  76.6388758  84.7214533  25.6654422  76.7505400
  94.1129773  34.9121412  93.7724967  93.2256552  34.5747334  93.8951366
  94.6828324  34.1804443  94.0093733  75.7658920  31.2445504  87.0968019
  76.4529960  30.9307234  86.5089034  75.6107049  32.1486868  86.8235270
  80.5693642  26.1335700  91.5253042  80.4851831  25.5261370  90.7903452
  79.7476348  26.6244718  91.5262539  87.6430926  39.5722864  90.7386211
  87.5701098  40.3777836  91.2505515  87.2008319  39.7714830  89.9134232
  87.4320706  38.8094634  84.2489032  86.6488228  39.3516314  84.3427257
  88.1313451  39.3268614  84.6483273  90.7417356  24.6189264  86.8923237
  91.2386055  23.8659226  86.5724308  89.9704337  24.6553580  86.3266447
  98.5947113  30.3229629  88.5341529  98.5836990  31.2054345  88.1635462
  97.7264493  29.9701180  88.3396066  90.1029610  39.4709698  92.8944369
  90.8157582  40.1057163  92.8220271  89.6119638  39.5673564  92.0784371
  91.8247137  33.3760951  84.4661661  90.8903415  33.4962413  84.2966365
  92.0023805  32.4733418  84.2021671  87.3252325  26.7606647  86.6194922
  86.9550112  26.2077687  87.3075828  87.8211417  26.1564780  86.0669922
  95.2119688  29.2178270  85.0011695  95.6780140  30.0506262  84.9271998
  95.6627188  28.7523252  85.7056953  85.1541523  37.2204142  93.7149940
  85.8550983  37.8540625  93.8679334  84.6836638  37.5618873  92.9545579
  93.2795919  35.5622092  81.9997847  93.5555763  35.4478686  82.9091721
  92.4100418  35.1639576  81.9610020  93.1836351  21.5858857  89.0402596
  92.2699430  21.8163084  89.2084803  93.6129452  21.6697301  89.8916629
  92.9542809  29.7748749  91.5402490  92.3014259  30.0224657  90.8854943
  93.3323189  28.9612887  91.2064968  89.9149983  39.8108442  85.6430661
  90.0972378  38.9930098  86.1058413  90.7382969  40.0276135  85.2055551
  90.2492149  38.7376627  82.9045709  90.7779915  38.2269082  82.2915871
  90.5120368  38.4219158  83.7691242  89.0030382  30.5168560  98.0268527
  88.3271019  30.4162690  98.6970903  89.8258016  30.3607774  98.4904525
  80.7509241  36.7540497  90.6481043  81.3362678  36.0084185  90.7808947
  80.5534080  37.0644453  91.5317707  83.6047896  39.7891744  85.6643485
  82.9358272  40.2737872  85.1807525  83.4660766  40.0360965  86.5786864
  75.3426896  29.3246097  89.3685486  75.3810996  28.7909688  90.1622604
  74.8367189  28.7981302  88.7496463  87.7453165  41.8235488  92.2626143
  88.2971473  41.9867109  93.0275229  88.0859359  42.4139926  91.5906168
  82.7217658  24.1710637  92.8648028  82.7858985  25.0325468  92.4525426
  82.6584779  23.5584639  92.1320387  82.1969931  26.2433770  96.5121062
  82.8241970  25.8610847  97.1258587  81.3397850  26.0247972  96.8776755
  92.5964039  36.6496745  98.1174798  93.1403943  37.2626703  97.6229753
  92.0150884  37.2076324  98.6341811  78.9735474  28.0510199  82.4439417
  79.2688915  27.1420878  82.3906471  78.0723509  28.0297939  82.1220420
  90.8821552  39.7717463  89.2489826  90.7572692  38.9707203  88.7400771
  91.5400643  40.2663657  88.7603796  82.5029721  26.1266196  88.4266966
  81.7816306  26.7402163  88.2874439  83.2922976  26.6623961  88.3483612
  92.9456461  37.5726483  90.8769376  91.9986796  37.4531834  90.8047702
  93.2939234  36.6848981  90.9595637  85.3056034  23.4620622  94.7007618
  85.8290436  23.7082919  95.4633927  85.0868367  24.2940657  94.2810755
  80.7023315  25.7324297  82.5678742  80.3736021  24.8521676  82.3853848
  81.0562686  25.6771965  83.4555132  89.9502894  37.3679200  87.0773728
  89.8027856  36.4395907  87.2581298  90.7756388  37.3899290  86.5930803
  83.8165138  26.0197267  82.9354220  84.1561211  26.5483188  82.2132828
  84.2637259  26.3577673  83.7112787  93.5537016  38.1907758  88.1638601
  94.4783563  37.9850620  88.0263052  93.3852319  37.9424159  89.0727942
  86.5108579  24.4034317  92.3857288  86.1705400  23.6042130  92.7877968
  85.8047585  24.7036028  91.8134121  87.1625051  21.4883630  90.8384611
  87.9851120  21.0144108  90.7163501  87.4063114  22.2674114  91.3383297
  85.8033285  24.5171888  81.1347513  86.5241648  24.8953141  80.6311230
  85.1798590  25.2360765  81.2382491  89.9464408  25.2217037  82.0705845
  90.1628023  26.1041675  81.7694673  89.4658475  24.8303251  81.3411487
  84.6863630  28.1802750  88.6476590  84.5408210  28.4943053  89.5400871
  84.2088833  28.7987651  88.0947488  86.5460013  25.1705298  88.6957479
  86.5321581  24.2746392  88.3589777  87.2632441  25.1775962  89.3295765
  88.3986143  25.6042639  90.7410607  88.1403921  26.5259709  90.7394937
  87.8671184  25.2073073  91.4311071  93.3432332  38.7093426  83.5200692
  93.5169210  38.1439848  82.7674545  93.8361223  39.5094321  83.3380182
  79.1609292  30.7208095  91.5864251  78.6162760  31.4967903  91.7184525
  80.0388642  31.0678899  91.4283372  85.9496909  24.0519679  83.9645049
  86.0712820  23.1236325  84.1635937  85.6598951  24.0658365  83.0523365
  88.8188099  21.7374589  87.1011769  88.8409796  21.8013922  86.1463749
  89.2356158  20.8979098  87.2952275  99.1971723  31.4729849  85.1390992
  99.6402869  30.7237174  84.7410115  98.3198234  31.4639985  84.7564724
  94.3307505  38.0260190  80.6197590  95.0258409  38.6466883  80.8384905
  94.6730655  37.1755541  80.8949968  79.9475314  29.8477991  94.4794408
  79.2057050  29.9960626  95.0659038  79.6268058  30.1086257  93.6161157
  96.2298928  35.4759896  82.1484921  96.7550252  35.8147168  81.4234241
  96.1421280  34.5406911  81.9648056  87.8918976  39.3893969  94.2774798
  88.2006103  39.1443116  95.1497497  88.6894458  39.5940608  93.7893668
  87.9139588  41.5431879  86.5080174  87.4744579  41.0508258  87.2013031
  88.6647705  41.0004847  86.2672250  80.3931927  37.7343420  86.5104802
  81.2189947  37.4347192  86.1303446  80.0425979  36.9651042  86.9594591
  85.3613461  37.0869888  88.5802476  84.7393470  36.4240593  88.2804704
  86.0318327  37.1131020  87.8976124  78.5940532  35.6529746  87.4693736
  77.7572441  35.2251921  87.2877737  78.5664178  35.8462190  88.4064527
  85.4337988  25.5651676  98.1734982  85.4826144  26.4413799  97.7912752
  85.9760502  25.0229069  97.6006625  95.9192834  36.1092799  97.4536119
  95.1288377  36.0916938  96.9140619  95.6826188  36.6481093  98.2085156
  96.0390709  32.9585266  94.7668848  96.0888714  32.7935273  95.7084370
  95.9304632  32.0912525  94.3766728  84.9226967  35.6373811  82.0560937
  85.0715088  36.3209276  81.4027609  85.7293411  35.6178901  82.5710392
  93.3294471  28.9416194  96.0828154  94.2304334  28.8022659  95.7912152
  93.4042446  29.1070649  97.0226332  87.6637277  26.3183048  94.9281341
  86.7940586  26.6116614  94.6563929  87.8996757  26.9023493  95.6488604
  97.5408906  35.3782207  95.0110869  97.2493714  35.7412188  95.8474330
  96.9281037  34.6649215  94.8324201  98.7404588  32.9435087  87.5313439
  99.5751479  33.3824891  87.6951000  98.8763717  32.4673740  86.7121685
  95.7896094  30.5014822  93.4790927  96.2650215  30.6942468  92.6709779
  94.8661659  30.5574008  93.2334311  82.6779600  31.6638989  83.0622005
  82.4325642  30.7601319  83.2602216  82.8475515  31.6656139  82.1201483
  90.3676310  22.5362665  92.4446761  90.8858254  23.2723692  92.1193250
  90.0131443  22.8426659  93.2793520  81.9475248  27.3967347  80.5608167
  81.2544493  27.4711702  79.9048203  81.7027000  26.6327690  81.0829684
  90.6188905  18.9562948  87.9647658  90.8990658  18.2886137  88.5908084
  91.4039511  19.1492043  87.4522322  88.4222373  38.1321942  79.5272684
  87.8496340  38.7512129  79.0743156  88.9955167  38.6821303  80.0612606
  94.4897763  27.3780582  91.7119233  95.4415186  27.4778680  91.7331457
  94.3201213  26.5858850  92.2217317  92.5112142  24.4636165  91.8978634
  91.9162074  24.7441178  91.2025122  92.2261839  24.9530066  92.6695375
  91.6419633  38.4159092  80.6581266  92.5750306  38.3504654  80.8614142
  91.5542846  39.2515359  80.1995799  94.2707649  37.7324962  77.6185214
  94.1921281  37.3984826  78.5120972  95.0917316  38.2246730  77.6176686
  96.9685841  30.5986702  90.8261532  96.9362161  29.6602702  91.0121216
  97.5786464  30.6770738  90.0927357  88.8069172  29.4682755  76.8688736
  89.7528276  29.3388963  76.9377155  88.4283416  28.7297416  77.3458165
  97.1180329  27.3897745  90.8719816  96.6019378  26.6056202  90.6849744
  98.0020278  27.0616462  91.0366335  94.7791056  21.1338761  86.8315628
  94.5815877  20.8253849  87.7158960  95.3890762  21.8600399  86.9613558
 102.7862391  31.6602708  89.9667569 103.5165779  31.3987997  90.5275273
 102.1769336  30.9231430  90.0069637 100.8677688  29.8010571  90.5642020
 100.1410851  29.6666536  89.9558512 100.4524975  30.1087400  91.3698738
  88.6907864  33.5200501  98.3289393  89.6110874  33.6979100  98.5229440
  88.6557447  32.5756546  98.1769093  86.9912089  27.3932731  76.8043622
  86.0843544  27.0965844  76.8806335  87.2688070  27.0962549  75.9377908
  77.9090029  28.7139094  87.2542668  77.5892813  27.8604403  86.9617042
  77.3623457  28.9287672  88.0100635  81.6869937  31.4301535  90.9712175
  81.9055946  32.3618643  90.9900208  82.0995710  31.0709510  91.7566978
  88.6074154  21.9369621  82.9587863  87.7974883  21.5916706  83.3343109
  89.2958571  21.6277164  83.5475475  90.5364703  21.0147667  84.5812160
  91.0895741  21.4343121  85.2402183  90.7734789  20.0883416  84.6235116
  86.5597802  27.0034741 100.3614924  86.4594529  27.9529098 100.2927015
  86.3419344  26.6752980  99.4890994  85.7610873  24.2519666  76.9455601
  86.6230037  24.5774564  77.2051418  85.9461217  23.4651162  76.4328667
  77.7778289  32.3342006  89.2235790  77.0841760  31.9195959  88.7105744
  78.5251280  32.3762542  88.6269209  93.9143510  23.1248193  84.0890824
  93.3342179  23.7832997  83.7068876  93.6479442  22.3025537  83.6778241
  92.3647076  22.5253250  86.2912144  92.8646855  22.6369785  85.4826463
  93.0082684  22.2214303  86.9312953  86.4229072  30.4331880  99.1779985
  85.9396154  31.2332240  99.3843874  86.5090011  30.4439825  98.2247429
  79.6915032  32.2660260  87.1001805  79.6685720  32.3647947  86.1483688
  80.0015668  33.1125410  87.4218971  82.3502409  34.3236415  91.2148419
  83.3045663  34.2920357  91.1478351  82.1514933  33.8627038  92.0298645
  82.9401792  32.8937531  93.7819217  83.7594681  33.3881609  93.8054054
  83.2138599  31.9769499  93.7536784  92.6968388  25.2848283  83.1447172
  91.8094243  25.5697934  82.9267367  93.1122377  25.1242046  82.2974449
  96.0482924  25.3094804  86.8601511  96.8243314  25.7991256  87.1326128
  95.3231058  25.7352858  87.3173381  98.4855483  26.0222423  87.9175452
  99.0799973  25.7818159  87.2068760  98.5582066  25.3029554  88.5448988
  80.7052638  39.8656034  88.2318617  80.5707106  39.1056435  87.6656615
  80.2884701  40.5896934  87.7647406  91.8411601  35.0492958  77.2395192
  92.5447451  35.2542960  77.8552848  91.1174250  35.6169720  77.5044276
  92.6709412  30.8002819  83.3597462  92.6144613  31.2571370  82.5205095
  93.2237754  30.0393504  83.1820305  96.4814217  26.5892551  84.1847582
  96.2251152  26.1889186  85.0155790  95.8567085  27.3036345  84.0597721
 100.7926555  29.3288624  86.6918873 100.2326113  29.3981813  87.4650435
 100.1870059  29.1529609  85.9718369  83.8621764  40.7625351  88.4437060
  83.7454148  41.7070784  88.3415750  83.0414210  40.4598913  88.8322859
  93.7498299  35.4875487  79.2893652  94.5843903  35.0556685  79.1071127
  93.5882642  35.3157501  80.2170547  93.4044191  31.9907600  80.6549992
  93.3492995  31.8251872  79.7138436  92.7790246  32.6983633  80.8112181
  78.1936706  27.2275665  94.4811414  78.8395569  26.7174619  94.9698639
  77.9853857  27.9644346  95.0554839  90.7190098  34.2956512  99.9803554
  91.5881258  34.4697164  99.6190189  90.2396850  35.1150929  99.8579284
  86.7140316  21.4915709  80.2335310  86.7018986  22.4357549  80.3903581
  87.6063738  21.3085855  79.9394771  84.8876278  41.4153613  91.6592988
  85.7903525  41.4477223  91.9759483  84.6613648  40.4854064  91.6739324
  86.6429880  40.1684600  88.3203067  85.6925511  40.1686461  88.2067439
  86.9462366  39.4217334  87.8039101  90.5292436  18.0858486  84.4881247
  89.7624832  17.5316973  84.6337929  90.9403141  18.1580355  85.3495398
  82.5334197  24.3743282  98.5786428  83.3965658  24.0180086  98.7889753
  81.9599607  24.0357176  99.2661832 102.3782574  46.0045138  89.3848829
 103.0160984  45.8851885  88.6812169 102.2603417  46.9525982  89.4436781
  99.1872280  45.9572566  89.3210354  98.8490792  45.8413631  88.4330889
 100.0562048  45.5563731  89.3011360  95.0459096  47.8108042  85.3107245
  94.4823961  47.7197979  84.5423532  94.9311491  46.9907947  85.7909737
  99.6692063  47.1107418  95.2796559  99.6580704  46.7160216  94.4077063
  99.8312703  46.3773490  95.8730331  92.5923528  49.3059234  88.1491465
  93.3844820  48.9650059  87.7337764  92.8320178  49.4154209  89.0693618
 100.6258654  51.4779010  80.6221709  99.9746634  52.0633091  80.2355723
 101.4203017  52.0085205  80.6816747  94.5514282  48.5668147  81.0208844
  95.3245158  48.0197134  80.8821720  94.9039680  49.4312397  81.2323305
  96.3899324  49.8944530  94.2275743  96.0989190  50.7990160  94.1122409
  97.0256309  49.9361057  94.9419813  97.3155531  47.2721378  90.8177103
  97.9119103  47.0477401  90.1034066  97.3730503  46.5306124  91.4202551
  96.8880559  44.7260813  78.6527294  97.1406080  44.2042335  77.8910757
  95.9505119  44.5626959  78.7553977 101.9323842  43.7296592  86.4602037
 102.7186931  43.3116015  86.1092454 102.1962547  44.6342684  86.6283685
 102.1033920  49.1669442  81.1590694 101.4679753  49.2404069  81.8711598
 101.7731326  49.7563041  80.4809773 107.3332269  43.6671825  87.3635016
 108.0657441  43.0971042  87.5972845 106.5771625  43.2793425  87.8041521
  96.6076848  46.6288919  80.8551669  96.4913106  45.9533823  81.5232753
  96.7179108  46.1421293  80.0383822  98.9508389  46.0899067  84.5598358
  98.5866596  45.5629687  85.2711279  99.8075505  45.6997536  84.3864843
 104.8557690  37.3793399  91.8229624 104.5241015  38.2488810  91.5990839
 104.2603303  37.0629683  92.5023654  98.5913876  41.1188966  79.5559706
  98.7588278  41.9869203  79.9230178  98.4011045  41.2816248  78.6320996
 101.3489209  49.5805945  91.2225537 101.0489932  50.4830984  91.1141344
 101.0040269  49.3138128  92.0746690  94.8001691  46.0319742  87.2562241
  93.8752187  45.8995956  87.4639933  95.0486104  46.8113961  87.7532184
 104.7486353  42.0988485  88.9022974 103.8403230  42.0303894  88.6081735
 104.6973949  42.5760430  89.7304800  98.5703097  43.5746624  80.5406373
  98.4502722  44.0203674  81.3791854  97.8755685  43.9231941  79.9819911
  92.1610502  45.6753016  88.0906030  92.2902883  45.9287494  89.0045442
  91.4807953  46.2680724  87.7710685  96.3309989  56.3450265  84.1896505
  96.2534019  57.2958091  84.2684985  95.7271633  55.9996138  84.8471431
  98.8227219  43.5178131  96.8457871  98.0460553  44.0772051  96.8360736
  99.4617782  44.0034914  97.3672742 106.6147999  40.3004924  90.6800848
 105.9722380  40.5937457  90.0340643 106.1102928  40.1857844  91.4854045
 104.2688163  44.0468097  81.3686707 105.1806019  44.2795484  81.1934405
 103.7597810  44.6305141  80.8061786  97.0773591  46.3263584  96.4075838
  97.8188276  46.8648628  96.1310662  96.3710577  46.9529873  96.5647390
 102.5528931  48.4692725  95.0048000 102.9612287  48.0275135  94.2602632
 101.8306192  47.8945352  95.2582193  98.9060001  43.4065331  92.3781557
  99.7521196  43.8304745  92.5216206  98.8458638  42.7498956  93.0720120
 102.8757745  49.0293915  88.7600289 102.2466608  49.1939629  88.0576357
 102.4883408  49.4435525  89.5311253 106.7546977  49.9648353  86.1144653
 106.0698015  50.3447255  85.5641686 106.8390827  50.5743680  86.8476600
 102.0559446  41.0669700  94.0362731 101.8120378  41.8211760  93.4997006
 102.3319377  41.4455047  94.8709978 104.0097909  47.6108312  92.7139996
 104.2214804  48.2540072  92.0374377 103.9627657  46.7770629  92.2461926
 101.6124138  40.2226133  89.6176568 100.7508617  40.5207386  89.9093306
 101.6386573  40.4396532  88.6857601  98.4285707  48.7668323  86.0250374
  98.8924053  49.0456026  85.2354996  98.1642505  47.8651768  85.8423465
  95.3209788  48.3139805  88.9630137  95.8911145  48.7427073  88.3247622
  95.9117900  48.0322390  89.6614323  97.3654593  44.8891476  82.8339939
  98.0678637  45.3412519  83.3013865  97.0335222  44.2475295  83.4619832
  95.8134955  43.4803232  97.2091148  95.1833615  44.1619513  97.4426545
  95.7071043  43.3686314  96.2644287  91.1079927  43.1475028  88.1357073
  90.3178981  43.4032557  87.6597183  91.5991175  43.9623366  88.2409113
 105.1243737  50.4880268  90.8862353 105.9461181  50.0860455  90.6045035
 105.1206140  50.3848502  91.8378469  93.0594673  43.5119608  85.0940549
  92.2625836  43.6238302  85.6124045  92.8320265  43.8506260  84.2281440
  98.8900340  50.0364311  93.0423064  98.9544773  50.4984718  93.8781236
  98.1811264  49.4061676  93.1705374  89.3917630  43.4005519  90.5672063
  89.6425669  44.2852529  90.8329639  89.9277179  43.2210120  89.7947155
 113.2149730  46.8319016  87.2347325 112.4613438  46.2626414  87.0791329
 113.3497271  46.7981681  88.1817960  98.6048358  51.7032418  82.9102044
  98.4694033  52.5483954  83.3386892  99.1458170  51.9051696  82.1467978
  95.0915698  37.7823998  99.5716399  94.6982643  37.2290197 100.2464044
  95.9081838  38.0934577  99.9622917  92.0577755  49.2207856  83.4829969
  92.5702276  50.0151107  83.6335534  92.7100468  48.5234147  83.4163571
  93.8672640  52.3373613  85.5652723  94.0439268  53.2591577  85.3773706
  94.6629474  52.0232032  85.9947102  98.0083659  39.1981877  97.1636656
  98.7493372  39.7989030  97.0841119  98.2401581  38.4559515  96.6054699
  93.1524997  44.3838245  95.4414886  93.0378512  43.4823502  95.7421985
  92.2969514  44.6301941  95.0899702 100.2316834  52.3255985  97.0402386
  99.7880689  51.5392363  96.7223291 100.8934048  52.5135135  96.3746277
  94.9903956  53.8551787  91.5663065  95.5411381  53.7268850  90.7940059
  94.1515431  54.1546676  91.2157958 102.3298072  52.6058785  95.0683788
 102.3116548  53.4267666  94.5764057 103.2517992  52.4812860  95.2933929
  98.7871127  50.1202914  95.9107296  99.3199463  49.3591203  95.6806604
  98.2585208  49.8276566  96.6531450 101.9540822  35.2262980  91.4400938
 101.6105091  36.1164622  91.3640048 102.3219784  35.0364638  90.5770523
  90.0226672  47.5496511  84.2589540  90.8601894  47.9593519  84.0423248
  90.2004940  46.6095953  84.2289734 101.9191104  45.2171591  79.9473373
 101.4037728  45.9876196  80.1861760 101.6468413  44.5436728  80.5706434
  99.5038215  40.0621292  85.0058611  98.6479812  39.6728143  84.8264250
  99.9165167  40.1413253  84.1458397 101.0337362  37.5967635  89.4050171
 100.5302158  37.5597771  88.5917976 101.3267969  38.5060378  89.4646828
  97.2780248  37.6806365  88.4116353  98.1433245  37.4849174  88.0522242
  97.3457757  37.4516717  89.3385709 106.8925378  47.9703946  81.8826546
 106.1154821  47.6315106  81.4381708 107.5716859  47.9756569  81.2081511
 101.7077407  43.0898684  81.7733154 101.4027543  43.4044833  82.6243297
 102.6607850  43.1680103  81.8160487 100.1523839  49.2488907  83.4226108
  99.6245201  48.5141666  83.1099345  99.6511342  50.0263583  83.1766076
 105.1316685  47.4437927  88.5393154 104.4740360  48.1337189  88.6273283
 105.9357085  47.8334359  88.8827141  94.8842567  39.9108573  85.7832720
  95.4586319  39.6883755  85.0505912  95.4713549  39.9797268  86.5361321
 103.9422144  45.7982300  86.5897096 104.4554026  46.4312292  87.0918806
 104.5923368  45.1983496  86.2240456  95.2112154  41.9413034  79.8028605
  94.3749466  42.2787721  80.1237880  95.0716924  41.8062014  78.8655742
  97.1865235  36.7849822  84.5107789  96.5329647  36.4698839  83.8864404
  97.1445709  36.1625562  85.2367612  98.2976439  47.0669117  76.4261081
  97.3903501  46.8358371  76.6252230  98.7947471  46.2706736  76.6135063
 101.2044518  55.7766624  79.3457767 100.5306217  56.0798321  79.9542725
 101.5910340  56.5795705  78.9963224 100.4202975  43.2731756  88.8355437
  99.5025536  43.4946703  88.6777125 100.8363119  43.3478066  87.9767144
 101.2038023  44.6723171  83.9658117 101.9509842  45.1844568  83.6565239
 101.4729612  44.3507224  84.8262510  99.4764673  47.1681712  80.9485071
  98.5675892  46.8840745  81.0457541  99.5059757  47.5880791  80.0888378
 104.7083940  50.7788301  84.7176239 104.2546267  49.9379211  84.7741429
 104.0777907  51.4149700  85.0551019 103.6516860  41.7080287  85.9476906
 102.9139617  41.1957674  86.2787149 103.9043633  41.2680669  85.1360183
 103.1516880  52.6164798  85.6526057 103.4439854  53.1769855  84.9338422
 103.6615500  52.9093359  86.4079216 103.7528487  34.4856539  86.5418675
 104.0587364  33.6253903  86.2544590 104.4781092  35.0774160  86.3417669
  90.0452843  44.8887226  84.9300273  89.8477243  44.2956587  84.2051340
  89.4899507  44.5839436  85.6476212  98.0249567  44.7810333  87.0494866
  98.0798177  43.8284169  86.9737343  97.2140769  44.9369772  87.5336165
  99.1740761  48.7090456  78.2873150  98.7360191  47.9926315  77.8278787
  99.9151202  48.9366570  77.7258241  95.9641927  43.3987392  84.8085245
  95.1509792  43.6981563  85.2150437  96.4600921  43.0043081  85.5259728
  98.1150505  53.3945149  86.7419510  98.0726684  53.6205996  85.8128042
  99.0313204  53.1608524  86.8905311 101.5616139  43.8629217  93.6400139
 101.9165526  44.0900690  94.4994605 102.2088270  44.1947594  93.0177395
 107.2913875  46.9847653  84.3449468 107.1531774  47.1749249  83.4170657
 106.9350094  47.7467035  84.8017519  95.4556002  40.9705748  90.4246480
  96.0955381  40.8294507  89.7269444  94.6233532  40.6840261  90.0485082
 107.3183255  49.0524180  89.3560740 107.7519762  48.9599469  90.2043794
 108.0314836  49.0281680  88.7180756  96.2316306  50.2708178  86.5381473
  97.0256904  49.7758498  86.3364048  95.5207998  49.7426041  86.1749178
 101.0511150  52.6526274  90.8893840 101.1048172  53.2217210  91.6571556
 100.1825931  52.8228159  90.5247877  92.5399069  44.4151260  82.6141225
  91.6096657  44.3535715  82.8311188  92.6356541  43.8927213  81.8177867
  92.4584618  40.9406073  85.2019467  92.7191435  41.8551406  85.0928628
  93.2801790  40.4730515  85.3516080  93.9309543  42.3543830  92.3718292
  94.6032597  42.1461192  91.7230941  93.1039330  42.1565916  91.9323524
 108.1798805  49.0947880  91.8893625 108.3734695  49.9993691  92.1352900
 108.0799423  48.6355299  92.7232210  99.8335115  38.9805771  94.3883953
  99.1863030  39.6795721  94.2948429 100.6036131  39.4141915  94.7560201
 103.2413913  49.2454623  97.4634506 103.0899420  49.0165175  96.5464589
 103.2318593  50.2025224  97.4765851 100.0099250  46.8186536  92.4480772
 100.9391310  46.9697695  92.2749740  99.5890280  46.9070557  91.5929419
  98.8087582  50.8437200  90.2179310  98.6698667  50.4755985  91.0905248
  98.0202178  51.3584840  90.0463268  99.4035733  55.9446297  81.5604846
  99.5787489  55.4734340  82.3750469  98.7168522  56.5712063  81.7886107
 100.3592797  50.2218803  87.6068148 100.0242629  50.1819573  88.5025798
  99.8596742  49.5563519  87.1338558  94.3337041  45.6286433  93.1320729
  94.1956839  44.8966672  93.7332268  95.2441964  45.5395333  92.8504917
 103.2951988  47.5674837  77.8805207 102.6781159  46.8421665  77.7838260
 102.8268477  48.3284198  77.5372282  96.9619341  45.3406392  92.6204408
  97.6718960  44.6999584  92.5791027  96.9188649  45.5919287  93.5430589
 104.9506120  52.2773746  95.5410988 104.8918666  51.5932966  94.8741571
 105.3525638  53.0192736  95.0891614  95.6748275  42.3271610  94.4400048
  95.1385632  41.8762349  95.0921644  95.0864984  42.4617519  93.6970512
  93.9696819  59.0935659  88.3344707  94.2093417  59.7254184  89.0123725
  93.1266015  58.7423699  88.6210066  95.0850534  41.7860262  77.0026512
  94.2080001  41.6649062  76.6388758  95.5608287  40.9946340  76.7505400
 104.9523527  50.2413330  93.7724967 104.0650306  49.9039251  93.8951366
 105.5222078  49.5096361  94.0093733  86.6052674  46.5737421  87.0968019
  87.2923714  46.2599151  86.5089034  86.4500803  47.4778786  86.8235270
  91.4087397  41.4627618  91.5253042  91.3245585  40.8553287  90.7903452
  90.5870103  41.9536636  91.5262539  98.4824681  54.9014782  90.7386211
  98.4094852  55.7069753  91.2505515  98.0402074  55.1006748  89.9134232
  98.2714460  54.1386552  84.2489032  97.4881982  54.6808232  84.3427257
  98.9707205  54.6560532  84.6483273 101.5811110  39.9481181  86.8923237
 102.0779810  39.1951144  86.5724308 100.8098092  39.9845498  86.3266447
 109.4340868  45.6521547  88.5341529 109.4230744  46.5346262  88.1635462
 108.5658247  45.2993098  88.3396066 100.9423364  54.8001616  92.8944369
 101.6551336  55.4349081  92.8220271 100.4513393  54.8965482  92.0784371
 102.6640891  48.7052869  84.4661661 101.7297170  48.8254331  84.2966365
 102.8417560  47.8025335  84.2021671  98.1646079  42.0898564  86.6194922
  97.7943867  41.5369605  87.3075828  98.6605172  41.4856698  86.0669922
 106.0513442  44.5470188  85.0011695 106.5173895  45.3798179  84.9271998
 106.5020943  44.0815169  85.7056953  95.9935278  52.5496059  93.7149940
  96.6944737  53.1832542  93.8679334  95.5230393  52.8910791  92.9545579
 104.1189674  50.8914009  81.9997847 104.3949517  50.7770604  82.9091721
 103.2494172  50.4931494  81.9610020 104.0230105  36.9150775  89.0402596
 103.1093185  37.1455002  89.2084803 104.4523207  36.9989219  89.8916629
 103.7936564  45.1040667  91.5402490 103.1408014  45.3516574  90.8854943
 104.1716944  44.2904805  91.2064968 100.7543738  55.1400360  85.6430661
 100.9366132  54.3222016  86.1058413 101.5776724  55.3568052  85.2055551
 101.0885903  54.0668545  82.9045709 101.6173669  53.5561000  82.2915871
 101.3514123  53.7511075  83.7691242  99.8424137  45.8460478  98.0268527
  99.1664774  45.7454607  98.6970903 100.6651771  45.6899692  98.4904525
  91.5902996  52.0832414  90.6481043  92.1756433  51.3376102  90.7808947
  91.3927834  52.3936371  91.5317707  94.4441651  55.1183662  85.6643485
  93.7752026  55.6029789  85.1807525  94.3054521  55.3652882  86.5786864
  86.1820650  44.6538015  89.3685486  86.2204750  44.1201605  90.1622604
  85.6760943  44.1273220  88.7496463  98.5846920  57.1527405  92.2626143
  99.1365228  57.3159027  93.0275229  98.9253113  57.7431843  91.5906168
  93.5611413  39.5002555  92.8648028  93.6252739  40.3617386  92.4525426
  93.4978533  38.8876557  92.1320387  93.0363685  41.5725688  96.5121062
  93.6635724  41.1902765  97.1258587  92.1791604  41.3539890  96.8776755
 103.4357794  51.9788663  98.1174798 103.9797698  52.5918621  97.6229753
 102.8544639  52.5368241  98.6341811  89.8129228  43.3802117  82.4439417
  90.1082669  42.4712795  82.3906471  88.9117264  43.3589856  82.1220420
 101.7215307  55.1009381  89.2489826 101.5966446  54.2999121  88.7400771
 102.3794398  55.5955574  88.7603796  93.3423475  41.4558113  88.4266966
  92.6210061  42.0694081  88.2874439  94.1316731  41.9915878  88.3483612
 103.7850215  52.9018401  90.8769376 102.8380551  52.7823752  90.8047702
 104.1332988  52.0140899  90.9595637  96.1449789  38.7912540  94.7007618
  96.6684190  39.0374836  95.4633927  95.9262122  39.6232575  94.2810755
  91.5417070  41.0616214  82.5678742  91.2129776  40.1813593  82.3853848
  91.8956440  41.0063883  83.4555132 100.7896649  52.6971117  87.0773728
 100.6421611  51.7687825  87.2581298 101.6150142  52.7191208  86.5930803
  94.6558893  41.3489184  82.9354220  94.9954965  41.8775106  82.2132828
  95.1031013  41.6869590  83.7112787 104.3930770  53.5199676  88.1638601
 105.3177318  53.3142537  88.0263052 104.2246074  53.2716077  89.0727942
  97.3502334  39.7326235  92.3857288  97.0099154  38.9334048  92.7877968
  96.6441340  40.0327946  91.8134121  98.0018805  36.8175547  90.8384611
  98.8244875  36.3436026  90.7163501  98.2456869  37.5966031  91.3383297
  96.6427040  39.8463806  81.1347513  97.3635402  40.2245059  80.6311230
  96.0192344  40.5652683  81.2382491 100.7858163  40.5508955  82.0705845
 101.0021777  41.4333593  81.7694673 100.3052230  40.1595168  81.3411487
  95.5257384  43.5094668  88.6476590  95.3801965  43.8234971  89.5400871
  95.0482588  44.1279568  88.0947488  97.3853767  40.4997216  88.6957479
  97.3715336  39.6038309  88.3589777  98.1026195  40.5067880  89.3295765
  99.2379898  40.9334556  90.7410607  98.9797676  41.8551627  90.7394937
  98.7064938  40.5364991  91.4311071 104.1826087  54.0385343  83.5200692
 104.3562964  53.4731766  82.7674545 104.6754978  54.8386238  83.3380182
  90.0003046  46.0500012  91.5864251  89.4556514  46.8259820  91.7184525
  90.8782396  46.3970817  91.4283372  96.7890663  39.3811596  83.9645049
  96.9106574  38.4528243  84.1635937  96.4992705  39.3950282  83.0523365
  99.6581853  37.0666507  87.1011769  99.6803550  37.1305840  86.1463749
 100.0749912  36.2271015  87.2952275 110.0365478  46.8021766  85.1390992
 110.4796624  46.0529092  84.7410115 109.1591988  46.7931903  84.7564724
 105.1701259  53.3552108  80.6197590 105.8652164  53.9758800  80.8384905
 105.5124409  52.5047459  80.8949968  90.7869068  45.1769909  94.4794408
  90.0450804  45.3252544  95.0659038  90.4661813  45.4378174  93.6161157
 107.0692682  50.8051813  82.1484921 107.5944006  51.1439086  81.4234241
 106.9815035  49.8698829  81.9648056  98.7312731  54.7185887  94.2774798
  99.0399857  54.4735034  95.1497497  99.5288213  54.9232525  93.7893668
  98.7533343  56.8723797  86.5080174  98.3138333  56.3800175  87.2013031
  99.5041460  56.3296764  86.2672250  91.2325682  53.0635337  86.5104802
  92.0583702  52.7639109  86.1303446  90.8819734  52.2942960  86.9594591
  96.2007215  52.4161806  88.5802476  95.5787224  51.7532511  88.2804704
  96.8712082  52.4422938  87.8976124  89.4334287  50.9821664  87.4693736
  88.5966195  50.5543838  87.2877737  89.4057932  51.1754107  88.4064527
  96.2731743  40.8943594  98.1734982  96.3219898  41.7705716  97.7912752
  96.8154257  40.3520987  97.6006625 106.7586588  51.4384717  97.4536119
 105.9682132  51.4208856  96.9140619 106.5219943  51.9773011  98.2085156
 106.8784463  48.2877183  94.7668848 106.9282468  48.1227191  95.7084370
 106.7698387  47.4204442  94.3766728  95.7620722  50.9665729  82.0560937
  95.9108842  51.6501193  81.4027609  96.5687165  50.9470819  82.5710392
 104.1688226  44.2708111  96.0828154 105.0698088  44.1314576  95.7912152
 104.2436200  44.4362566  97.0226332  98.5031031  41.6474966  94.9281341
  97.6334340  41.9408532  94.6563929  98.7390511  42.2315411  95.6488604
 108.3802660  50.7074125  95.0110869 108.0887468  51.0704105  95.8474330
 107.7674791  49.9941133  94.8324201 109.5798342  48.2727005  87.5313439
 110.4145234  48.7116809  87.6951000 109.7157471  47.7965658  86.7121685
 106.6289848  45.8306739  93.4790927 107.1043970  46.0234386  92.6709779
 105.7055414  45.8865925  93.2334311  93.5173355  46.9930907  83.0622005
  93.2719397  46.0893237  83.2602216  93.6869270  46.9948057  82.1201483
 101.2070065  37.8654583  92.4446761 101.7252009  38.6015610  92.1193250
 100.8525198  38.1718576  93.2793520  92.7869003  42.7259264  80.5608167
  92.0938247  42.8003619  79.9048203  92.5420754  41.9619608  81.0829684
 101.4582659  34.2854866  87.9647658 101.7384413  33.6178055  88.5908084
 102.2433266  34.4783961  87.4522322  99.2616128  53.4613859  79.5272684
  98.6890095  54.0804047  79.0743156  99.8348921  54.0113221  80.0612606
 105.3291517  42.7072500  91.7119233 106.2808940  42.8070597  91.7331457
 105.1594968  41.9150768  92.2217317 103.3505897  39.7928083  91.8978634
 102.7555829  40.0733095  91.2025122 103.0655594  40.2821984  92.6695375
 102.4813387  53.7451010  80.6581266 103.4144060  53.6796571  80.8614142
 102.3936600  54.5807276  80.1995799 105.1101404  53.0616880  77.6185214
 105.0315036  52.7276744  78.5120972 105.9311071  53.5538648  77.6176686
 107.8079595  45.9278619  90.8261532 107.7755915  44.9894620  91.0121216
 108.4180219  46.0062656  90.0927357  99.6462926  44.7974672  76.8688736
 100.5922031  44.6680880  76.9377155  99.2677171  44.0589334  77.3458165
 107.9574084  42.7189663  90.8719816 107.4413132  41.9348119  90.6849744
 108.8414032  42.3908379  91.0366335 105.6184811  36.4630678  86.8315628
 105.4209632  36.1545766  87.7158960 106.2284516  37.1892317  86.9613558
 113.6256145  46.9894626  89.9667569 114.3559533  46.7279914  90.5275273
 113.0163090  46.2523348  90.0069637 111.7071442  45.1302489  90.5642020
 110.9804606  44.9958454  89.9558512 111.2918729  45.4379317  91.3698738
  99.5301619  48.8492418  98.3289393 100.4504628  49.0271017  98.5229440
  99.4951202  47.9048464  98.1769093  97.8305843  42.7224649  76.8043622
  96.9237299  42.4257761  76.8806335  98.1081824  42.4254467  75.9377908
  88.7483784  44.0431012  87.2542668  88.4286568  43.1896320  86.9617042
  88.2017212  44.2579590  88.0100635  92.5263691  46.7593453  90.9712175
  92.7449701  47.6910561  90.9900208  92.9389465  46.4001427  91.7566978
  99.4467909  37.2661538  82.9587863  98.6368637  36.9208623  83.3343109
 100.1352326  36.9569082  83.5475475 101.3758457  36.3439585  84.5812160
 101.9289496  36.7635039  85.2402183 101.6128544  35.4175333  84.6235116
  97.3991556  42.3326659 100.3614924  97.2988283  43.2821016 100.2927015
  97.1813098  42.0044898  99.4890994  96.6004628  39.5811584  76.9455601
  97.4623792  39.9066482  77.2051418  96.7854972  38.7943080  76.4328667
  88.6172044  47.6633923  89.2235790  87.9235515  47.2487876  88.7105744
  89.3645035  47.7054460  88.6269209 104.7537264  38.4540110  84.0890824
 104.1735933  39.1124914  83.7068876 104.4873197  37.6317455  83.6778241
 103.2040831  37.8545168  86.2912144 103.7040609  37.9661703  85.4826463
 103.8476439  37.5506221  86.9312953  97.2622826  45.7623798  99.1779985
  96.7789908  46.5624158  99.3843874  97.3483766  45.7731742  98.2247429
  90.5308786  47.5952177  87.1001805  90.5079474  47.6939865  86.1483688
  90.8409423  48.4417328  87.4218971  93.1896164  49.6528332  91.2148419
  94.1439418  49.6212275  91.1478351  92.9908688  49.1918956  92.0298645
  93.7795546  48.2229448  93.7819217  94.5988435  48.7173527  93.8054054
  94.0532354  47.3061416  93.7536784 103.5362142  40.6140201  83.1447172
 102.6487997  40.8989851  82.9267367 103.9516131  40.4533964  82.2974449
 106.8876678  40.6386722  86.8601511 107.6637069  41.1283174  87.1326128
 106.1624813  41.0644776  87.3173381 109.3249237  41.3514341  87.9175452
 109.9193728  41.1110077  87.2068760 109.3975821  40.6321471  88.5448988
  91.5446393  55.1947952  88.2318617  91.4100861  54.4348353  87.6656615
  91.1278455  55.9188852  87.7647406 102.6805356  50.3784875  77.2395192
 103.3841206  50.5834878  77.8552848 101.9568005  50.9461637  77.5044276
 103.5103166  46.1294737  83.3597462 103.4538367  46.5863288  82.5205095
 104.0631508  45.3685421  83.1820305 107.3207972  41.9184468  84.1847582
 107.0644906  41.5181104  85.0155790 106.6960840  42.6328262  84.0597721
 111.6320310  44.6580542  86.6918873 111.0719868  44.7273731  87.4650435
 111.0263813  44.4821526  85.9718369  94.7015519  56.0917269  88.4437060
  94.5847903  57.0362701  88.3415750  93.8807965  55.7890830  88.8322859
 104.5892053  50.8167405  79.2893652 105.4237657  50.3848603  79.1071127
 104.4276396  50.6449418  80.2170547 104.2437945  47.3199518  80.6549992
 104.1886749  47.1543789  79.7138436 103.6184001  48.0275551  80.8112181
  89.0330460  42.5567582  94.4811414  89.6789324  42.0466536  94.9698639
  88.8247611  43.2936264  95.0554839 101.5583853  49.6248430  99.9803554
 102.4275012  49.7989082  99.6190189 101.0790604  50.4442847  99.8579284
  97.5534071  36.8207627  80.2335310  97.5412741  37.7649467  80.3903581
  98.4457493  36.6377772  79.9394771  95.7270033  56.7445531  91.6592988
  96.6297279  56.7769141  91.9759483  95.5007403  55.8145982  91.6739324
  97.4823635  55.4976517  88.3203067  96.5319266  55.4978379  88.2067439
  97.7856121  54.7509252  87.8039101 101.3686190  33.4150403  84.4881247
 100.6018586  32.8608890  84.6337929 101.7796895  33.4872272  85.3495398
  93.3727951  39.7035199  98.5786428  94.2359413  39.3472004  98.7889753
  92.7993362  39.3649094  99.2661832 113.2176328  61.3337056  89.3848829
 113.8554738  61.2143803  88.6812169 113.0997171  62.2817900  89.4436781
 110.0266035  61.2864484  89.3210354 109.6884546  61.1705548  88.4330889
 110.8955803  60.8855649  89.3011360 105.8852850  63.1399960  85.3107245
 105.3217715  63.0489897  84.5423532 105.7705245  62.3199865  85.7909737
 110.5085818  62.4399335  95.2796559 110.4974458  62.0452134  94.4077063
 110.6706457  61.7065408  95.8730331 103.4317282  64.6351152  88.1491465
 104.2238574  64.2941976  87.7337764 103.6713932  64.7446127  89.0693618
 111.4652409  66.8070928  80.6221709 110.8140389  67.3925008  80.2355723
 112.2596772  67.3377123  80.6816747 105.3908036  63.8960065  81.0208844
 106.1638912  63.3489052  80.8821720 105.7433435  64.7604314  81.2323305
 107.2293079  65.2236447  94.2275743 106.9382945  66.1282078  94.1122409
 107.8650063  65.2652975  94.9419813 108.1549286  62.6013296  90.8177103
 108.7512858  62.3769318  90.1034066 108.2124257  61.8598041  91.4202551
 107.7274314  60.0552731  78.6527294 107.9799835  59.5334252  77.8910757
 106.7898873  59.8918877  78.7553977 112.7717597  59.0588509  86.4602037
 113.5580686  58.6407933  86.1092454 113.0356301  59.9634602  86.6283685
 112.9427674  64.4961360  81.1590694 112.3073507  64.5695986  81.8711598
 112.6125081  65.0854959  80.4809773 118.1726024  58.9963743  87.3635016
 118.9051196  58.4262960  87.5972845 117.4165380  58.6085343  87.8041521
 107.4470603  61.9580837  80.8551669 107.3306861  61.2825740  81.5232753
 107.5572863  61.4713211  80.0383822 109.7902144  61.4190984  84.5598358
 109.4260351  60.8921605  85.2711279 110.6469260  61.0289453  84.3864843
 115.6951444  52.7085317  91.8229624 115.3634769  53.5780728  91.5990839
 115.0997058  52.3921601  92.5023654 109.4307631  56.4480884  79.5559706
 109.5982033  57.3161120  79.9230178 109.2404800  56.6108166  78.6320996
 112.1882964  64.9097863  91.2225537 111.8883687  65.8122902  91.1141344
 111.8434023  64.6430046  92.0746690 105.6395445  61.3611660  87.2562241
 104.7145942  61.2287874  87.4639933 105.8879858  62.1405879  87.7532184
 115.5880108  57.4280403  88.9022974 114.6796985  57.3595811  88.6081735
 115.5367703  57.9052348  89.7304800 109.4096851  58.9038541  80.5406373
 109.2896477  59.3495592  81.3791854 108.7149440  59.2523859  79.9819911
 103.0004256  61.0044933  88.0906030 103.1296637  61.2579412  89.0045442
 102.3201708  61.5972641  87.7710685 107.1703744  71.6742183  84.1896505
 107.0927773  72.6250008  84.2684985 106.5665387  71.3288056  84.8471431
 109.6620973  58.8470049  96.8457871 108.8854307  59.4063969  96.8360736
 110.3011536  59.3326832  97.3672742 117.4541754  55.6296841  90.6800848
 116.8116134  55.9229375  90.0340643 116.9496682  55.5149762  91.4854045
 115.1081918  59.3760015  81.3686707 116.0199774  59.6087401  81.1934405
 114.5991565  59.9597059  80.8061786 107.9167346  61.6555502  96.4075838
 108.6582030  62.1940546  96.1310662 107.2104331  62.2821791  96.5647390
 113.3922685  63.7984642  95.0048000 113.8006041  63.3567053  94.2602632
 112.6699947  63.2237270  95.2582193 109.7453755  58.7357249  92.3781557
 110.5914951  59.1596663  92.5216206 109.6852393  58.0790873  93.0720120
 113.7151500  64.3585833  88.7600289 113.0860362  64.5231547  88.0576357
 113.3277162  64.7727443  89.5311253 117.5940732  65.2940271  86.1144653
 116.9091770  65.6739172  85.5641686 117.6784581  65.9035598  86.8476600
 112.8953201  56.3961618  94.0362731 112.6514133  57.1503678  93.4997006
 113.1713131  56.7746965  94.8709978 114.8491663  62.9400230  92.7139996
 115.0608559  63.5831990  92.0374377 114.8021412  62.1062546  92.2461926
 112.4517892  55.5518051  89.6176568 111.5902371  55.8499304  89.9093306
 112.4780327  55.7688449  88.6857601 109.2679462  64.0960241  86.0250374
 109.7317807  64.3747944  85.2354996 109.0036260  63.1943686  85.8423465
 106.1603543  63.6431723  88.9630137 106.7304900  64.0718991  88.3247622
 106.7511655  63.3614307  89.6614323 108.2048348  60.2183393  82.8339939
 108.9072391  60.6704437  83.3013865 107.8728976  59.5767212  83.4619832
 106.6528709  58.8095150  97.2091148 106.0227370  59.4911431  97.4426545
 106.5464797  58.6978232  96.2644287 101.9473682  58.4766946  88.1357073
 101.1572736  58.7324475  87.6597183 102.4384929  59.2915284  88.2409113
 115.9637491  65.8172185  90.8862353 116.7854935  65.4152373  90.6045035
 115.9599894  65.7140419  91.8378469 103.8988427  58.8411525  85.0940549
 103.1019590  58.9530220  85.6124045 103.6714019  59.1798178  84.2281440
 109.7294095  65.3656229  93.0423064 109.7938527  65.8276636  93.8781236
 109.0205019  64.7353594  93.1705374 100.2311385  58.7297437  90.5672063
 100.4819423  59.6144447  90.8329639 100.7670933  58.5502038  89.7947155
 109.4442112  67.0324336  82.9102044 109.3087787  67.8775872  83.3386892
 109.9851925  67.2343614  82.1467978 105.9309452  53.1115916  99.5716399
 105.5376398  52.5582115 100.2464044 106.7475592  53.4226494  99.9622917
 102.8971510  64.5499774  83.4829969 103.4096030  65.3443024  83.6335534
 103.5494223  63.8526065  83.4163571 104.7066395  67.6665530  85.5652723
 104.8833023  68.5883495  85.3773706 105.5023228  67.3523950  85.9947102
 108.8477413  54.5273795  97.1636656 109.5887126  55.1280948  97.0841119
 109.0795336  53.7851433  96.6054699 103.9918751  59.7130162  95.4414886
 103.8772266  58.8115420  95.7421985 103.1363269  59.9593859  95.0899702
 111.0710589  67.6547903  97.0402386 110.6274443  66.8684281  96.7223291
 111.7327802  67.8427053  96.3746277 105.8297710  69.1843704  91.5663065
 106.3805135  69.0560768  90.7940059 104.9909186  69.4838593  91.2157958
 113.1691827  67.9350703  95.0683788 113.1510302  68.7559584  94.5764057
 114.0911747  67.8104778  95.2933929 109.6264881  65.4494832  95.9107296
 110.1593218  64.6883120  95.6806604 109.0978962  65.1568484  96.6531450
 112.7934576  50.5554898  91.4400938 112.4498845  51.4456540  91.3640048
 113.1613539  50.3656556  90.5770523 100.8620427  62.8788428  84.2589540
 101.6995649  63.2885437  84.0423248 101.0398694  61.9387871  84.2289734
 112.7584859  60.5463509  79.9473373 112.2431482  61.3168114  80.1861760
 112.4862167  59.8728645  80.5706434 110.3431970  55.3913210  85.0058611
 109.4873566  55.0020060  84.8264250 110.7558922  55.4705171  84.1458397
 111.8731116  52.9259553  89.4050171 111.3695912  52.8889688  88.5917976
 112.1661723  53.8352296  89.4646828 108.1174002  53.0098283  88.4116353
 108.9826999  52.8141092  88.0522242 108.1851511  52.7808635  89.3385709
 117.7319133  63.2995864  81.8826546 116.9548576  62.9607023  81.4381708
 118.4110614  63.3048487  81.2081511 112.5471162  58.4190601  81.7733154
 112.2421297  58.7336750  82.6243297 113.5001604  58.4972021  81.8160487
 110.9917594  64.5780825  83.4226108 110.4638955  63.8433584  83.1099345
 110.4905096  65.3555501  83.1766076 115.9710440  62.7729845  88.5393154
 115.3134114  63.4629106  88.6273283 116.7750839  63.1626277  88.8827141
 105.7236321  55.2400491  85.7832720 106.2980073  55.0175672  85.0505912
 106.3107304  55.3089185  86.5361321 114.7815899  61.1274218  86.5897096
 115.2947780  61.7604210  87.0918806 115.4317122  60.5275413  86.2240456
 106.0505908  57.2704952  79.8028605 105.2143221  57.6079638  80.1237880
 105.9110678  57.1353932  78.8655742 108.0258989  52.1141740  84.5107789
 107.3723401  51.7990757  83.8864404 107.9839463  51.4917480  85.2367612
 109.1370194  62.3961035  76.4261081 108.2297256  62.1650288  76.6252230
 109.6341226  61.5998654  76.6135063 112.0438273  71.1058542  79.3457767
 111.3699972  71.4090239  79.9542725 112.4304095  71.9087622  78.9963224
 111.2596729  58.6023673  88.8355437 110.3419291  58.8238620  88.6777125
 111.6756873  58.6769984  87.9767144 112.0431777  60.0015089  83.9658117
 112.7903596  60.5136486  83.6565239 112.3123367  59.6799142  84.8262510
 110.3158427  62.4973630  80.9485071 109.4069647  62.2132662  81.0457541
 110.3453511  62.9172708  80.0888378 115.5477695  66.1080219  84.7176239
 115.0940022  65.2671129  84.7741429 114.9171662  66.7441618  85.0551019
 114.4910614  57.0372205  85.9476906 113.7533371  56.5249591  86.2787149
 114.7437388  56.5972587  85.1360183 113.9910634  67.9456716  85.6526057
 114.2833608  68.5061773  84.9338422 114.5009255  68.2385277  86.4079216
 114.5922242  49.8148457  86.5418675 114.8981118  48.9545821  86.2544590
 115.3174847  50.4066077  86.3417669 100.8846598  60.2179144  84.9300273
 100.6870998  59.6248504  84.2051340 100.3293262  59.9131354  85.6476212
 108.8643321  60.1102250  87.0494866 108.9191931  59.1576087  86.9737343
 108.0534523  60.2661689  87.5336165 110.0134515  64.0382373  78.2873150
 109.5753945  63.3218232  77.8278787 110.7544956  64.2658488  77.7258241
 106.8035681  58.7279310  84.8085245 105.9903547  59.0273481  85.2150437
 107.2994676  58.3334999  85.5259728 108.9544259  68.7237067  86.7419510
 108.9120438  68.9497913  85.8128042 109.8706958  68.4900441  86.8905311
 112.4009893  59.1921134  93.6400139 112.7559281  59.4192608  94.4994605
 113.0482024  59.5239511  93.0177395 118.1307630  62.3139570  84.3449468
 117.9925529  62.5041166  83.4170657 117.7743849  63.0758953  84.8017519
 106.2949756  56.2997666  90.4246480 106.9349135  56.1586425  89.7269444
 105.4627287  56.0132179  90.0485082 118.1577010  64.3816097  89.3560740
 118.5913516  64.2891386  90.2043794 118.8708590  64.3573598  88.7180756
 107.0710060  65.6000096  86.5381473 107.8650659  65.1050416  86.3364048
 106.3601752  65.0717959  86.1749178 111.8904904  67.9818191  90.8893840
 111.9441927  68.5509128  91.6571556 111.0219686  68.1520076  90.5247877
 103.3792823  59.7443178  82.6141225 102.4490412  59.6827633  82.8311188
 103.4750295  59.2219130  81.8177867 103.2978373  56.2697990  85.2019467
 103.5585190  57.1843324  85.0928628 104.1195545  55.8022433  85.3516080
 104.7703298  57.6835748  92.3718292 105.4426351  57.4753110  91.7230941
 103.9433084  57.4857834  91.9323524 119.0192559  64.4239798  91.8893625
 119.2128449  65.3285609  92.1352900 118.9193177  63.9647217  92.7232210
 110.6728870  54.3097689  94.3883953 110.0256785  55.0087638  94.2948429
 111.4429885  54.7433833  94.7560201 114.0807668  64.5746541  97.4634506
 113.9293174  64.3457092  96.5464589 114.0712347  65.5317142  97.4765851
 110.8493004  62.1478453  92.4480772 111.7785064  62.2989613  92.2749740
 110.4284034  62.2362474  91.5929419 109.6481336  66.1729118  90.2179310
 109.5092422  65.8047902  91.0905248 108.8595932  66.6876757  90.0463268
 110.2429488  71.2738214  81.5604846 110.4181244  70.8026258  82.3750469
 109.5562276  71.9003981  81.7886107 111.1986551  65.5510721  87.6068148
 110.8636384  65.5111491  88.5025798 110.6990497  64.8855437  87.1338558
 105.1730795  60.9578351  93.1320729 105.0350593  60.2258589  93.7332268
 106.0835719  60.8687251  92.8504917 114.1345743  62.8966755  77.8805207
 113.5174913  62.1713583  77.7838260 113.6662231  63.6576115  77.5372282
 107.8013096  60.6698310  92.6204408 108.5112714  60.0291502  92.5791027
 107.7582404  60.9211205  93.5430589 115.7899874  67.6065663  95.5410988
 115.7312421  66.9224883  94.8741571 116.1919393  68.3484653  95.0891614
 106.5142030  57.6563528  94.4400048 105.9779387  57.2054266  95.0921644
 105.9258738  57.7909437  93.6970512 104.8090573  74.4227577  88.3344707
 105.0487171  75.0546101  89.0123725 103.9659770  74.0715617  88.6210066
 105.9244289  57.1152179  77.0026512 105.0473755  56.9940980  76.6388758
 106.4002042  56.3238258  76.7505400 115.7917282  65.5705247  93.7724967
 114.9044060  65.2331169  93.8951366 116.3615833  64.8388278  94.0093733
  97.4446429  61.9029339  87.0968019  98.1317469  61.5891069  86.5089034
  97.2894558  62.8070704  86.8235270 102.2481151  56.7919536  91.5253042
 102.1639340  56.1845205  90.7903452 101.4263857  57.2828554  91.5262539
 109.3218435  70.2306700  90.7386211 109.2488607  71.0361671  91.2505515
 108.8795828  70.4298665  89.9134232 109.1108215  69.4678470  84.2489032
 108.3275737  70.0100150  84.3427257 109.8100960  69.9852449  84.6483273
 112.4204865  55.2773099  86.8923237 112.9173564  54.5243061  86.5724308
 111.6491846  55.3137416  86.3266447 120.2734622  60.9813465  88.5341529
 120.2624499  61.8638180  88.1635462 119.4052002  60.6285015  88.3396066
 111.7817119  70.1293534  92.8944369 112.4945091  70.7640998  92.8220271
 111.2907147  70.2257400  92.0784371 113.5034646  64.0344786  84.4661661
 112.5690924  64.1546249  84.2966365 113.6811314  63.1317253  84.2021671
 109.0039834  57.4190482  86.6194922 108.6337621  56.8661522  87.3075828
 109.4998926  56.8148616  86.0669922 116.8907197  59.8762106  85.0011695
 117.3567649  60.7090097  84.9271998 117.3414697  59.4107087  85.7056953
 106.8329032  67.8787977  93.7149940 107.5338492  68.5124460  93.8679334
 106.3624147  68.2202709  92.9545579 114.9583428  66.2205927  81.9997847
 115.2343272  66.1062521  82.9091721 114.0887927  65.8223412  81.9610020
 114.8623860  52.2442693  89.0402596 113.9486939  52.4746919  89.2084803
 115.2916961  52.3281137  89.8916629 114.6330318  60.4332585  91.5402490
 113.9801768  60.6808492  90.8854943 115.0110698  59.6196723  91.2064968
 111.5937492  70.4692278  85.6430661 111.7759887  69.6513934  86.1058413
 112.4170478  70.6859970  85.2055551 111.9279658  69.3960463  82.9045709
 112.4567424  68.8852917  82.2915871 112.1907877  69.0802993  83.7691242
 110.6817891  61.1752396  98.0268527 110.0058528  61.0746525  98.6970903
 111.5045525  61.0191609  98.4904525 102.4296750  67.4124332  90.6481043
 103.0150187  66.6668020  90.7808947 102.2321589  67.7228289  91.5317707
 105.2835405  70.4475580  85.6643485 104.6145781  70.9321707  85.1807525
 105.1448275  70.6944800  86.5786864  97.0214405  59.9829932  89.3685486
  97.0598504  59.4493523  90.1622604  96.5154698  59.4565138  88.7496463
 109.4240674  72.4819323  92.2626143 109.9758982  72.6450945  93.0275229
 109.7646868  73.0723761  91.5906168 104.4005167  54.8294473  92.8648028
 104.4646494  55.6909304  92.4525426 104.3372288  54.2168474  92.1320387
 103.8757440  56.9017605  96.5121062 104.5029479  56.5194683  97.1258587
 103.0185359  56.6831807  96.8776755 114.2751548  67.3080581  98.1174798
 114.8191452  67.9210539  97.6229753 113.6938393  67.8660159  98.6341811
 100.6522983  58.7094034  82.4439417 100.9476424  57.8004713  82.3906471
  99.7511018  58.6881774  82.1220420 112.5609061  70.4301299  89.2489826
 112.4360201  69.6291038  88.7400771 113.2188152  70.9247492  88.7603796
 104.1817230  56.7850031  88.4266966 103.4603815  57.3985999  88.2874439
 104.9710485  57.3207796  88.3483612 114.6243970  68.2310319  90.8769376
 113.6774305  68.1115670  90.8047702 114.9726743  67.3432817  90.9595637
 106.9843543  54.1204458  94.7007618 107.5077945  54.3666754  95.4633927
 106.7655876  54.9524492  94.2810755 102.3810824  56.3908132  82.5678742
 102.0523530  55.5105511  82.3853848 102.7350195  56.3355801  83.4555132
 111.6290403  68.0263035  87.0773728 111.4815365  67.0979742  87.2581298
 112.4543897  68.0483126  86.5930803 105.4952647  56.6781102  82.9354220
 105.8348720  57.2067023  82.2132828 105.9424768  57.0161508  83.7112787
 115.2324525  68.8491594  88.1638601 116.1571072  68.6434455  88.0263052
 115.0639828  68.6007995  89.0727942 108.1896088  55.0618153  92.3857288
 107.8492908  54.2625966  92.7877968 107.4835094  55.3619864  91.8134121
 108.8412560  52.1467465  90.8384611 109.6638629  51.6727943  90.7163501
 109.0850623  52.9257949  91.3383297 107.4820794  55.1755724  81.1347513
 108.2029157  55.5536976  80.6311230 106.8586099  55.8944600  81.2382491
 111.6251917  55.8800873  82.0705845 111.8415532  56.7625510  81.7694673
 111.1445984  55.4887086  81.3411487 106.3651139  58.8386586  88.6476590
 106.2195719  59.1526889  89.5400871 105.8876342  59.4571486  88.0947488
 108.2247522  55.8289134  88.6957479 108.2109090  54.9330227  88.3589777
 108.9419950  55.8359797  89.3295765 110.0773652  56.2626474  90.7410607
 109.8191430  57.1843545  90.7394937 109.5458693  55.8656908  91.4311071
 115.0219841  69.3677261  83.5200692 115.1956719  68.8023684  82.7674545
 115.5148732  70.1678156  83.3380182 100.8396801  61.3791930  91.5864251
 100.2950269  62.1551738  91.7184525 101.7176151  61.7262735  91.4283372
 107.6284418  54.7103514  83.9645049 107.7500329  53.7820160  84.1635937
 107.3386460  54.7242200  83.0523365 110.4975608  52.3958424  87.1011769
 110.5197305  52.4597758  86.1463749 110.9143667  51.5562933  87.2952275
 120.8759232  62.1313684  85.1390992 121.3190378  61.3821009  84.7410115
 119.9985743  62.1223820  84.7564724 116.0095014  68.6844025  80.6197590
 116.7045918  69.3050718  80.8384905 116.3518164  67.8339377  80.8949968
 101.6262823  60.5061826  94.4794408 100.8844559  60.6544462  95.0659038
 101.3055567  60.7670092  93.6161157 117.9086437  66.1343731  82.1484921
 118.4337761  66.4731004  81.4234241 117.8208789  65.1990746  81.9648056
 109.5706485  70.0477805  94.2774798 109.8793612  69.8026951  95.1497497
 110.3681967  70.2524443  93.7893668 109.5927097  72.2015714  86.5080174
 109.1532088  71.7092093  87.2013031 110.3435214  71.6588682  86.2672250
 102.0719436  68.3927255  86.5104802 102.8977456  68.0931027  86.1303446
 101.7213488  67.6234878  86.9594591 107.0400970  67.7453723  88.5802476
 106.4180979  67.0824428  88.2804704 107.7105836  67.7714855  87.8976124
 100.2728041  66.3113582  87.4693736  99.4359950  65.8835756  87.2877737
 100.2451687  66.5046025  88.4064527 107.1125497  56.2235511  98.1734982
 107.1613653  57.0997634  97.7912752 107.6548011  55.6812904  97.6006625
 117.5980343  66.7676635  97.4536119 116.8075886  66.7500773  96.9140619
 117.3613697  67.3064928  98.2085156 117.7178218  63.6169101  94.7668848
 117.7676223  63.4519108  95.7084370 117.6092141  62.7496360  94.3766728
 106.6014476  66.2957647  82.0560937 106.7502597  66.9793111  81.4027609
 107.4080920  66.2762737  82.5710392 115.0081980  59.6000029  96.0828154
 115.9091843  59.4606494  95.7912152 115.0829955  59.7654484  97.0226332
 109.3424786  56.9766884  94.9281341 108.4728095  57.2700450  94.6563929
 109.5784266  57.5607329  95.6488604 119.2196415  66.0366043  95.0110869
 118.9281223  66.3996023  95.8474330 118.6068546  65.3233051  94.8324201
 120.4192097  63.6018922  87.5313439 121.2538988  64.0408726  87.6951000
 120.5551226  63.1257576  86.7121685 117.4683603  61.1598657  93.4790927
 117.9437724  61.3526303  92.6709779 116.5449168  61.2157843  93.2334311
 104.3567109  62.3222824  83.0622005 104.1113151  61.4185154  83.2602216
 104.5263024  62.3239975  82.1201483 112.0463819  53.1946501  92.4446761
 112.5645763  53.9307528  92.1193250 111.6918952  53.5010494  93.2793520
 103.6262757  58.0551182  80.5608167 102.9332002  58.1295537  79.9048203
 103.3814509  57.2911526  81.0829684 112.2976414  49.6146783  87.9647658
 112.5778167  48.9469972  88.5908084 113.0827020  49.8075879  87.4522322
 110.1009882  68.7905777  79.5272684 109.5283849  69.4095964  79.0743156
 110.6742676  69.3405139  80.0612606 116.1685272  58.0364417  91.7119233
 117.1202695  58.1362515  91.7331457 115.9988722  57.2442686  92.2217317
 114.1899651  55.1220000  91.8978634 113.5949583  55.4025013  91.2025122
 113.9049348  55.6113901  92.6695375 113.3207142  69.0742927  80.6581266
 114.2537815  69.0088489  80.8614142 113.2330355  69.9099194  80.1995799
 115.9495158  68.3908798  77.6185214 115.8708790  68.0568661  78.5120972
 116.7704825  68.8830566  77.6176686 118.6473350  61.2570537  90.8261532
 118.6149670  60.3186538  91.0121216 119.2573973  61.3354574  90.0927357
 110.4856681  60.1266590  76.8688736 111.4315785  59.9972798  76.9377155
 110.1070925  59.3881252  77.3458165 118.7967838  58.0481580  90.8719816
 118.2806887  57.2640037  90.6849744 119.6807787  57.7200297  91.0366335
 116.4578565  51.7922596  86.8315628 116.2603386  51.4837684  87.7158960
 117.0678271  52.5184235  86.9613558 110.3695373  64.1784336  98.3289393
 111.2898383  64.3562935  98.5229440 110.3344956  63.2340381  98.1769093
 108.6699598  58.0516566  76.8043622 107.7631053  57.7549679  76.8806335
 108.9475579  57.7546384  75.9377908  99.5877538  59.3722930  87.2542668
  99.2680322  58.5188238  86.9617042  99.0410966  59.5871508  88.0100635
 103.3657446  62.0885371  90.9712175 103.5843455  63.0202478  90.9900208
 103.7783219  61.7293345  91.7566978 110.2861663  52.5953456  82.9587863
 109.4762392  52.2500541  83.3343109 110.9746080  52.2861000  83.5475475
 112.2152212  51.6731503  84.5812160 112.7683250  52.0926956  85.2402183
 112.4522298  50.7467251  84.6235116 108.2385311  57.6618576 100.3614924
 108.1382038  58.6112933 100.2927015 108.0206853  57.3336815  99.4890994
 107.4398382  54.9103501  76.9455601 108.3017546  55.2358400  77.2051418
 107.6248726  54.1234997  76.4328667  99.4565798  62.9925841  89.2235790
  98.7629269  62.5779794  88.7105744 100.2038789  63.0346378  88.6269209
 115.5931019  53.7832028  84.0890824 115.0129688  54.4416832  83.7068876
 115.3266951  52.9609373  83.6778241 114.0434585  53.1837086  86.2912144
 114.5434363  53.2953620  85.4826463 114.6870193  52.8798139  86.9312953
 108.1016581  61.0915715  99.1779985 107.6183663  61.8916075  99.3843874
 108.1877520  61.1023660  98.2247429 101.3702541  62.9244095  87.1001805
 101.3473229  63.0231782  86.1483688 101.6803177  63.7709246  87.4218971
 104.0289918  64.9820250  91.2148419 104.9833172  64.9504192  91.1478351
 103.8302442  64.5210874  92.0298645 104.6189301  63.5521366  93.7819217
 105.4382190  64.0465445  93.8054054 104.8926108  62.6353334  93.7536784
 114.3755897  55.9432118  83.1447172 113.4881752  56.2281769  82.9267367
 114.7909886  55.7825882  82.2974449 117.7270433  55.9678639  86.8601511
 118.5030823  56.4575092  87.1326128 117.0018567  56.3936694  87.3173381
 120.1642992  56.6806259  87.9175452 120.7587482  56.4401994  87.2068760
 120.2369575  55.9613389  88.5448988 102.3840147  70.5239869  88.2318617
 102.2494615  69.7640270  87.6656615 101.9672210  71.2480769  87.7647406
 113.5199110  65.7076793  77.2395192 114.2234960  65.9126796  77.8552848
 112.7961759  66.2753555  77.5044276 114.3496921  61.4586654  83.3597462
 114.2932122  61.9155206  82.5205095 114.9025263  60.6977339  83.1820305
 118.1601726  57.2476386  84.1847582 117.9038661  56.8473022  85.0155790
 117.5354594  57.9620180  84.0597721 122.4714064  59.9872459  86.6918873
 121.9113622  60.0565649  87.4650435 121.8657568  59.8113444  85.9718369
 105.5409273  71.4209186  88.4437060 105.4241657  72.3654619  88.3415750
 104.7201719  71.1182748  88.8322859 115.4285808  66.1459322  79.2893652
 116.2631412  65.7140521  79.1071127 115.2670151  65.9741336  80.2170547
 115.0831700  62.6491436  80.6549992 115.0280504  62.4835707  79.7138436
 114.4577755  63.3567468  80.8112181  99.8724215  57.8859500  94.4811414
 100.5183078  57.3758454  94.9698639  99.6641366  58.6228182  95.0554839
 112.3977607  64.9540347  99.9803554 113.2668767  65.1281000  99.6190189
 111.9184358  65.7734764  99.8579284 108.3927825  52.1499545  80.2335310
 108.3806495  53.0941384  80.3903581 109.2851247  51.9669690  79.9394771
 106.5663787  72.0737448  91.6592988 107.4691034  72.1061059  91.9759483
 106.3401157  71.1437899  91.6739324 108.3217389  70.8268435  88.3203067
 107.3713020  70.8270297  88.2067439 108.6249875  70.0801170  87.8039101
 112.2079945  48.7442321  84.4881247 111.4412341  48.1900808  84.6337929
 112.6190650  48.8164190  85.3495398 104.2121706  55.0327117  98.5786428
 105.0753167  54.6763922  98.7889753 103.6387116  54.6941012  99.2661832
 120.8659789  76.6156401  89.3210354 120.5278301  76.4997466  88.4330889
 121.7349557  76.2147567  89.3011360 116.7246605  78.4691878  85.3107245
 116.1611470  78.3781815  84.5423532 116.6099000  77.6491782  85.7909737
 121.3479572  77.7691253  95.2796559 121.3368213  77.3744051  94.4077063
 121.5100211  77.0357326  95.8730331 114.2711037  79.9643069  88.1491465
 115.0632329  79.6233894  87.7337764 114.5107687  80.0738044  89.0693618
 116.2301791  79.2251983  81.0208844 117.0032667  78.6780970  80.8821720
 116.5827189  80.0896232  81.2323305 118.0686833  80.5528365  94.2275743
 117.7776699  81.4573996  94.1122409 118.7043818  80.5944893  94.9419813
 118.9943040  77.9305213  90.8177103 119.5906612  77.7061236  90.1034066
 119.0518012  77.1889959  91.4202551 118.5668068  75.3844649  78.6527294
 118.8193589  74.8626170  77.8910757 117.6292628  75.2210794  78.7553977
 118.2864357  77.2872755  80.8551669 118.1700615  76.6117658  81.5232753
 118.3966617  76.8005129  80.0383822 120.6295898  76.7482902  84.5598358
 120.2654105  76.2213523  85.2711279 121.4863014  76.3581371  84.3864843
 120.2701385  71.7772802  79.5559706 120.4375787  72.6453038  79.9230178
 120.0798554  71.9400083  78.6320996 116.4789200  76.6903577  87.2562241
 115.5539696  76.5579791  87.4639933 116.7273613  77.4697797  87.7532184
 120.2490606  74.2330459  80.5406373 120.1290231  74.6787510  81.3791854
 119.5543194  74.5815777  79.9819911 113.8398011  76.3336851  88.0906030
 113.9690392  76.5871330  89.0045442 113.1595462  76.9264559  87.7710685
 118.0097498  87.0034101  84.1896505 117.9321528  87.9541926  84.2684985
 117.4059142  86.6579973  84.8471431 120.5014728  74.1761966  96.8457871
 119.7248062  74.7355886  96.8360736 121.1405291  74.6618749  97.3672742
 118.7561100  76.9847420  96.4075838 119.4975784  77.5232464  96.1310662
 118.0498086  77.6113708  96.5647390 120.5847510  74.0649167  92.3781557
 121.4308705  74.4888580  92.5216206 120.5246147  73.4082791  93.0720120
 120.1073216  79.4252159  86.0250374 120.5711562  79.7039862  85.2354996
 119.8430014  78.5235603  85.8423465 116.9997297  78.9723640  88.9630137
 117.5698654  79.4010909  88.3247622 117.5905409  78.6906225  89.6614323
 119.0442102  75.5475311  82.8339939 119.7466146  75.9996355  83.3013865
 118.7122731  74.9059130  83.4619832 117.4922464  74.1387068  97.2091148
 116.8621124  74.8203349  97.4426545 117.3858552  74.0270149  96.2644287
 112.7867436  73.8058864  88.1357073 111.9966490  74.0616392  87.6597183
 113.2778684  74.6207202  88.2409113 114.7382182  74.1703443  85.0940549
 113.9413345  74.2822137  85.6124045 114.5107774  74.5090095  84.2281440
 120.5687849  80.6948146  93.0423064 120.6332282  81.1568554  93.8781236
 119.8598773  80.0645511  93.1705374 111.0705139  74.0589354  90.5672063
 111.3213178  74.9436364  90.8329639 111.6064688  73.8793956  89.7947155
 120.2835867  82.3616254  82.9102044 120.1481542  83.2067790  83.3386892
 120.8245679  82.5635531  82.1467978 116.7703207  68.4407834  99.5716399
 116.3770152  67.8874032 100.2464044 117.5869347  68.7518412  99.9622917
 113.7365264  79.8791692  83.4829969 114.2489785  80.6734942  83.6335534
 114.3887977  79.1817982  83.4163571 115.5460149  82.9957448  85.5652723
 115.7226777  83.9175413  85.3773706 116.3416983  82.6815867  85.9947102
 119.6871168  69.8565713  97.1636656 120.4280881  70.4572866  97.0841119
 119.9189090  69.1143351  96.6054699 114.8312506  75.0422080  95.4414886
 114.7166021  74.1407337  95.7421985 113.9757023  75.2885777  95.0899702
 116.6691465  84.5135622  91.5663065 117.2198890  84.3852685  90.7940059
 115.8302940  84.8130511  91.2157958 120.4658636  80.7786750  95.9107296
 120.9986972  80.0175038  95.6806604 119.9372717  80.4860402  96.6531450
 111.7014181  78.2080346  84.2589540 112.5389403  78.6177354  84.0423248
 111.8792449  77.2679788  84.2289734 121.1825724  70.7205128  85.0058611
 120.3267321  70.3311978  84.8264250 121.5952676  70.7997088  84.1458397
 118.9567757  68.3390201  88.4116353 119.8220754  68.1433009  88.0522242
 119.0245266  68.1100552  89.3385709 121.8311348  79.9072742  83.4226108
 121.3032710  79.1725502  83.1099345 121.3298851  80.6847419  83.1766076
 116.5630076  70.5692408  85.7832720 117.1373828  70.3467590  85.0505912
 117.1501058  70.6381103  86.5361321 116.8899663  72.5996869  79.8028605
 116.0536975  72.9371556  80.1237880 116.7504433  72.4645849  78.8655742
 118.8652744  67.4433657  84.5107789 118.2117156  67.1282675  83.8864404
 118.8233218  66.8209398  85.2367612 119.9763948  77.7252952  76.4261081
 119.0691010  77.4942206  76.6252230 120.4734980  76.9290572  76.6135063
 121.1552182  77.8265547  80.9485071 120.2463401  77.5424580  81.0457541
 121.1847266  78.2464626  80.0888378 111.7240352  75.5471061  84.9300273
 111.5264752  74.9540422  84.2051340 111.1687016  75.2423272  85.6476212
 119.7037076  75.4394168  87.0494866 119.7585686  74.4868004  86.9737343
 118.8928278  75.5953607  87.5336165 120.8528270  79.3674291  78.2873150
 120.4147700  78.6510150  77.8278787 121.5938711  79.5950406  77.7258241
 117.6429436  74.0571228  84.8085245 116.8297301  74.3565398  85.2150437
 118.1388430  73.6626916  85.5259728 119.7938014  84.0528985  86.7419510
 119.7514193  84.2789831  85.8128042 120.7100713  83.8192359  86.8905311
 117.1343511  71.6289583  90.4246480 117.7742890  71.4878342  89.7269444
 116.3021041  71.3424097  90.0485082 117.9103815  80.9292014  86.5381473
 118.7044413  80.4342334  86.3364048 117.1995507  80.4009877  86.1749178
 114.2186578  75.0735095  82.6141225 113.2884166  75.0119551  82.8311188
 114.3144050  74.5511048  81.8177867 114.1372127  71.5989908  85.2019467
 114.3978944  72.5135241  85.0928628 114.9589299  71.1314351  85.3516080
 115.6097052  73.0127665  92.3718292 116.2820106  72.8045027  91.7230941
 114.7826839  72.8149751  91.9323524 121.5122624  69.6389606  94.3883953
 120.8650539  70.3379556  94.2948429 122.2823640  70.0725750  94.7560201
 120.4875090  81.5021036  90.2179310 120.3486176  81.1339820  91.0905248
 119.6989687  82.0168675  90.0463268 121.0823242  86.6030132  81.5604846
 121.2574998  86.1318175  82.3750469 120.3956030  87.2295898  81.7886107
 122.0380306  80.8802638  87.6068148 121.7030138  80.8403408  88.5025798
 121.5384251  80.2147354  87.1338558 116.0124550  76.2870268  93.1320729
 115.8744348  75.5550507  93.7332268 116.9229473  76.1979168  92.8504917
 118.6406850  75.9990228  92.6204408 119.3506469  75.3583420  92.5791027
 118.5976158  76.2503122  93.5430589 117.3535784  72.9855446  94.4400048
 116.8173141  72.5346184  95.0921644 116.7652493  73.1201354  93.6970512
 115.6484328  89.7519495  88.3344707 115.8880926  90.3838019  89.0123725
 114.8053524  89.4007535  88.6210066 116.7638043  72.4444097  77.0026512
 115.8867510  72.3232898  76.6388758 117.2395796  71.6530175  76.7505400
 108.2840183  77.2321257  87.0968019 108.9711223  76.9182987  86.5089034
 108.1288312  78.1362621  86.8235270 113.0874905  72.1211453  91.5253042
 113.0033094  71.5137123  90.7903452 112.2657612  72.6120472  91.5262539
 120.1612190  85.5598617  90.7386211 120.0882361  86.3653589  91.2505515
 119.7189583  85.7590583  89.9134232 119.9501969  84.7970387  84.2489032
 119.1669491  85.3392067  84.3427257 120.6494714  85.3144367  84.6483273
 119.8433588  72.7482400  86.6194922 119.4731376  72.1953440  87.3075828
 120.3392681  72.1440533  86.0669922 117.6722787  83.2079895  93.7149940
 118.3732246  83.8416378  93.8679334 117.2017902  83.5494626  92.9545579
 121.5211646  76.5044313  98.0268527 120.8452283  76.4038443  98.6970903
 122.3439280  76.3483527  98.4904525 113.2690505  82.7416250  90.6481043
 113.8543942  81.9959938  90.7808947 113.0715343  83.0520207  91.5317707
 116.1229160  85.7767497  85.6643485 115.4539535  86.2613625  85.1807525
 115.9842030  86.0236718  86.5786864 107.8608159  75.3121850  89.3685486
 107.8992259  74.7785441  90.1622604 107.3548452  74.7857056  88.7496463
 120.2634429  87.8111241  92.2626143 120.8152737  87.9742862  93.0275229
 120.6040622  88.4015679  91.5906168 115.2398922  70.1586391  92.8648028
 115.3040248  71.0201221  92.4525426 115.1766042  69.5460392  92.1320387
 114.7151194  72.2309523  96.5121062 115.3423233  71.8486600  97.1258587
 113.8579113  72.0123725  96.8776755 111.4916737  74.0385952  82.4439417
 111.7870178  73.1296631  82.3906471 110.5904773  74.0173692  82.1220420
 115.0210984  72.1141949  88.4266966 114.2997570  72.7277916  88.2874439
 115.8104240  72.6499714  88.3483612 117.8237298  69.4496375  94.7007618
 118.3471699  69.6958672  95.4633927 117.6049631  70.2816410  94.2810755
 113.2204579  71.7200050  82.5678742 112.8917285  70.8397429  82.3853848
 113.5743949  71.6647719  83.4555132 116.3346402  72.0073020  82.9354220
 116.6742474  72.5358941  82.2132828 116.7818522  72.3453426  83.7112787
 119.0289843  70.3910070  92.3857288 118.6886663  69.5917883  92.7877968
 118.3228849  70.6911781  91.8134121 119.6806314  67.4759383  90.8384611
 120.5032384  67.0019861  90.7163501 119.9244378  68.2549867  91.3383297
 118.3214549  70.5047641  81.1347513 119.0422911  70.8828894  80.6311230
 117.6979853  71.2236518  81.2382491 117.2044893  74.1678503  88.6476590
 117.0589474  74.4818806  89.5400871 116.7270097  74.7863404  88.0947488
 119.0641276  71.1581051  88.6957479 119.0502845  70.2622145  88.3589777
 119.7813704  71.1651715  89.3295765 120.9167407  71.5918392  90.7410607
 120.6585185  72.5135462  90.7394937 120.3852447  71.1948826  91.4311071
 111.6790555  76.7083848  91.5864251 111.1344023  77.4843656  91.7184525
 112.5569905  77.0554652  91.4283372 118.4678172  70.0395432  83.9645049
 118.5894083  69.1112078  84.1635937 118.1780214  70.0534118  83.0523365
 121.3369362  67.7250342  87.1011769 121.3591059  67.7889675  86.1463749
 121.7537421  66.8854851  87.2952275 112.4656577  75.8353744  94.4794408
 111.7238313  75.9836379  95.0659038 112.1449322  76.0962010  93.6161157
 120.4100240  85.3769722  94.2774798 120.7187366  85.1318869  95.1497497
 121.2075722  85.5816361  93.7893668 120.4320852  87.5307632  86.5080174
 119.9925842  87.0384011  87.2013031 121.1828969  86.9880600  86.2672250
 112.9113191  83.7219173  86.5104802 113.7371211  83.4222945  86.1303446
 112.5607243  82.9526795  86.9594591 117.8794724  83.0745641  88.5802476
 117.2574733  82.4116346  88.2804704 118.5499591  83.1006773  87.8976124
 111.1121796  81.6405499  87.4693736 110.2753704  81.2127674  87.2877737
 111.0845441  81.8337943  88.4064527 117.9519252  71.5527429  98.1734982
 118.0007407  72.4289552  97.7912752 118.4941766  71.0104822  97.6006625
 117.4408231  81.6249564  82.0560937 117.5896351  82.3085029  81.4027609
 118.2474674  81.6054654  82.5710392 120.1818540  72.3058801  94.9281341
 119.3121849  72.5992368  94.6563929 120.4178020  72.8899246  95.6488604
 115.1960864  77.6514742  83.0622005 114.9506906  76.7477072  83.2602216
 115.3656778  77.6531892  82.1201483 114.4656511  73.3843100  80.5608167
 113.7725756  73.4587455  79.9048203 114.2208263  72.6203443  81.0829684
 120.9403636  84.1197695  79.5272684 120.3677604  84.7387882  79.0743156
 121.5136430  84.6697057  80.0612606 121.3250435  75.4558508  76.8688736
 122.2709540  75.3264716  76.9377155 120.9464680  74.7173169  77.3458165
 121.2089128  79.5076254  98.3289393 122.1292137  79.6854853  98.5229440
 121.1738711  78.5632299  98.1769093 119.5093352  73.3808484  76.8043622
 118.6024808  73.0841597  76.8806335 119.7869333  73.0838302  75.9377908
 110.4271293  74.7014847  87.2542668 110.1074077  73.8480156  86.9617042
 109.8804721  74.9163426  88.0100635 114.2051200  77.4177288  90.9712175
 114.4237210  78.3494396  90.9900208 114.6176974  77.0585263  91.7566978
 121.1255418  67.9245374  82.9587863 120.3156146  67.5792459  83.3343109
 121.8139835  67.6152917  83.5475475 119.0779065  72.9910494 100.3614924
 118.9775792  73.9404851 100.2927015 118.8600607  72.6628733  99.4890994
 118.2792137  70.2395419  76.9455601 119.1411301  70.5650317  77.2051418
 118.4642481  69.4526915  76.4328667 110.2959553  78.3217759  89.2235790
 109.6023024  77.9071712  88.7105744 111.0432544  78.3638295  88.6269209
 118.9410335  76.4207633  99.1779985 118.4577417  77.2207993  99.3843874
 119.0271274  76.4315578  98.2247429 112.2096295  78.2536013  87.1001805
 112.1866983  78.3523700  86.1483688 112.5196932  79.1001163  87.4218971
 114.8683673  80.3112168  91.2148419 115.8226926  80.2796110  91.1478351
 114.6696197  79.8502791  92.0298645 115.4583055  78.8813284  93.7819217
 116.2775944  79.3757362  93.8054054 115.7319863  77.9645252  93.7536784
 113.2233902  85.8531787  88.2318617 113.0888370  85.0932188  87.6656615
 112.8065964  86.5772687  87.7647406 116.3803028  86.7501104  88.4437060
 116.2635412  87.6946537  88.3415750 115.5595474  86.4474666  88.8322859
 110.7117969  73.2151418  94.4811414 111.3576833  72.7050372  94.9698639
 110.5035120  73.9520099  95.0554839 119.2321580  67.4791462  80.2335310
 119.2200250  68.4233302  80.3903581 120.1245002  67.2961608  79.9394771
 117.4057542  87.4029366  91.6592988 118.3084788  87.4352976  91.9759483
 117.1794912  86.4729817  91.6739324 119.1611144  86.1560353  88.3203067
 118.2106775  86.1562214  88.2067439 119.4643630  85.4093087  87.8039101
 115.0515460  70.3619035  98.5786428 115.9146922  70.0055839  98.7889753
 114.4780871  70.0232929  99.2661832 121.9098894  89.3881272  90.5672063
 122.1606932  90.2728282  90.8329639 122.4458442  89.2085873  89.7947155
 119.1233938  92.5613174  87.0968019 119.8104978  92.2474904  86.5089034
 118.9682067  93.4654539  86.8235270 118.7001914  90.6413768  89.3685486
 118.7386013  90.1077358  90.1622604 118.1942207  90.1148973  88.7496463
 121.9515550  96.9697417  87.4693736 121.1147459  96.5419591  87.2877737
 121.9239196  97.1629860  88.4064527 121.2665047  90.0306765  87.2542668
 120.9467831  89.1772073  86.9617042 120.7198475  90.2455343  88.0100635
 121.1353307  93.6509677  89.2235790 120.4416778  93.2363629  88.7105744
 121.8826298  93.6930213  88.6269209 121.5511724  88.5443335  94.4811414
 122.1970587  88.0342289  94.9698639 121.3428875  89.2812017  95.0554839
  74.6522481   2.6928553  70.9141811  74.5746511   3.6436378  70.9930292
  74.0484125   2.3474425  71.5716737  72.2909311   5.4413947  75.0590013
  72.5305909   6.0732471  75.7369032  71.4478508   5.0901987  75.3455372
  72.7654143   1.4661949  72.3888792  72.0964519   1.9508077  71.9052832
  72.6267013   1.7131170  73.3032170  76.9059412   3.5005693  78.9871450
  77.4577720   3.6637314  79.7520535  77.2465605   4.0910130  78.3151475
  77.0745835   3.2202084  73.2325481  76.6350826   2.7278463  73.9258338
  77.8253952   2.6775051  72.9917556  69.8658885   1.5426239  74.9563923
  69.7313353   0.7826640  74.3901922  69.4490947   2.2667139  74.4892712
  73.0228011   2.4395556  75.1682366  72.9060395   3.3840989  75.0661056
  72.2020457   2.1369118  75.5568165  74.0482525   3.0923818  78.3838295
  74.9509772   3.1247428  78.7004790  73.8219895   2.1624269  78.3984630
  88.3478527   7.6342771  76.0455660  88.0097038   7.5183836  75.1576195
  89.2168295   7.2333936  76.0256666  84.2065342   9.4878247  72.0352551
  83.6430208   9.3968184  71.2668839  84.0917738   8.6678152  72.5155044
  88.8298310   8.7877623  82.0041866  88.8186951   8.3930421  81.1322369
  88.9918949   8.0543695  82.5975637  81.7529774  10.9829439  74.8736772
  82.5451066  10.6420264  74.4583071  81.9926425  11.0924414  75.7938925
  89.7864901  13.1549215  67.3467016  89.1352881  13.7403296  66.9601030
  90.5809264  13.6855410  67.4062054  83.7120528  10.2438352  67.7454150
  84.4851404   9.6967339  67.6067026  84.0645927  11.1082602  67.9568612
  85.5505571  11.5714735  80.9521050  85.2595437  12.4760365  80.8367716
  86.1862555  11.6131262  81.6665119  86.4761778   8.9491583  77.5422409
  87.0725350   8.7247605  76.8279372  86.5336749   8.2076329  78.1447857
  86.0486806   6.4031018  65.3772600  86.3012327   5.8812540  64.6156063
  85.1111365   6.2397164  65.4799284  91.2640166  10.8439647  67.8836000
  90.6285999  10.9174274  68.5956905  90.9337573  11.4333246  67.2055080
  85.7683095   8.3059124  67.5796975  85.6519353   7.6304028  68.2478060
  85.8785355   7.8191498  66.7629128  88.1114636   7.7669271  71.2843665
  87.7472843   7.2399892  71.9956586  88.9681752   7.3767740  71.1110150
  90.5095456  11.2576150  77.9470843  90.2096179  12.1601189  77.8386651
  90.1646516  10.9908333  78.7991996  83.9607937   7.7089947  73.9807548
  83.0358434   7.5766161  74.1885240  84.2092351   8.4884166  74.4777490
  81.3216749   7.3523220  74.8151337  81.4509130   7.6057699  75.7290749
  80.6414200   7.9450928  74.4955992  85.4916236  18.0220470  70.9141811
  85.4140266  18.9728295  70.9930292  84.8877879  17.6766343  71.5716737
  86.2379838   8.0033789  83.1321145  86.9794522   8.5418833  82.8555969
  85.5316823   8.6300078  83.2892697  91.7135178  10.1462930  81.7293307
  92.1218534   9.7045340  80.9847939  90.9912439   9.5715557  81.9827499
  92.0363992  10.7064120  75.4845595  91.4072855  10.8709834  74.7821663
  91.6489654  11.1205730  76.2556559  95.9153224  11.6418558  72.8389959
  95.2304262  12.0217459  72.2886993  95.9997073  12.2513885  73.5721907
  93.1704156   9.2878517  79.4385303  93.3821051   9.9310277  78.7619684
  93.1233904   8.4540834  78.9707233  87.5891954  10.4438528  72.7495681
  88.0530300  10.7226231  71.9600303  87.3248752   9.5421973  72.5668771
  84.4816035   9.9910010  75.6875444  85.0517392  10.4197278  75.0492928
  85.0724147   9.7092595  76.3859629  86.5260840   6.5661681  69.5585246
  87.2284883   7.0182724  70.0259172  86.1941469   5.9245500  70.1865139
  84.9741202   5.1573437  83.9336455  84.3439862   5.8389718  84.1671852
  84.8677290   5.0456519  82.9889593  80.2686174   4.8245233  74.8602379
  79.4785228   5.0802762  74.3842490  80.7597421   5.6393571  74.9654420
  94.2849984  12.1650473  77.6107660  95.1067427  11.7630660  77.3290342
  94.2812387  12.0618707  78.5623776  82.2200919   5.1889813  71.8185856
  81.4232083   5.3008507  72.3369352  81.9926512   5.5276465  70.9526746
  88.0506587  11.7134516  79.7668371  88.1151020  12.1754923  80.6026542
  87.3417511  11.0831881  79.8950680  78.5523877   5.0775724  77.2917370
  78.8031915   5.9622734  77.5574946  79.0883425   4.8980325  76.5192462
  87.7654605  13.3802623  69.6347351  87.6300280  14.2254159  70.0632199
  88.3064417  13.5821901  68.8713285  81.2184002  10.8978061  70.2075276
  81.7308523  11.6921312  70.3580841  81.8706715  10.2004352  70.1408877
  83.0278887  14.0143818  72.2898029  83.2045515  14.9361782  72.1019013
  83.8235720  13.7002237  72.7192409  82.3131243   6.0608450  82.1660192
  82.1984759   5.1593707  82.4667291  81.4575761   6.3072146  81.8145009
  89.3923081  14.0026190  83.7647693  88.9486935  13.2162568  83.4468597
  90.0540295  14.1905340  83.0991584  84.1510202  15.5321991  78.2908371
  84.7017627  15.4039055  77.5185365  83.3121678  15.8316880  77.9403264
  91.4904319  14.2828990  81.7929094  91.4722795  15.1037871  81.3009363
  92.4124239  14.1583065  82.0179235  87.9477373  11.7973119  82.6352603
  88.4805710  11.0361407  82.4051911  87.4191454  11.5046771  83.3776757
  79.1832919   9.2266716  70.9834847  80.0208141   9.6363724  70.7668554
  79.3611187   8.2866158  70.9535040  96.0531625   9.6474151  68.6071853
  95.2761068   9.3085310  68.1627015  96.7323106   9.6526774  67.9326818
  89.3130086  10.9259112  70.1471415  88.7851448  10.1911871  69.8344652
  88.8117589  11.7033788  69.9011383  94.2922932   9.1208132  75.2638461
  93.6346607   9.8107394  75.3518590  95.0963331   9.5104564  75.6072447
  87.4582686   8.7439322  63.1506388  86.5509748   8.5128575  63.3497537
  87.9553718   7.9476941  63.3380369  90.3650765  17.4536829  66.0703074
  89.6912464  17.7568526  66.6788032  90.7516587  18.2565910  65.7208531
  88.6370920   8.8451917  67.6730378  87.7282139   8.5610950  67.7702847
  88.6666003   9.2650995  66.8133685  93.8690187  12.4558506  71.4421545
  93.4152514  11.6149416  71.4986736  93.2384154  13.0919905  71.7796325
  92.3123126  14.2935003  72.3771363  92.6046101  14.8540060  71.6583729
  92.8221747  14.5863564  73.1324523  79.2059090   6.5657431  71.6545580
  79.0083490   5.9726792  70.9296647  78.6505754   6.2609641  72.3721519
  88.3347007  10.3860661  65.0118456  87.8966437   9.6696519  64.5524094
  89.0757448  10.6136775  64.4503548  87.2756752  15.0715354  73.4664817
  87.2332930  15.2976200  72.5373349  88.1919450  14.8378729  73.6150618
  96.4789502  10.7294385  76.0806046  96.9126009  10.6369674  76.9289100
  97.1921083  10.7051885  75.4426062  85.3922552  11.9478383  73.2626779
  86.1863151  11.4528703  73.0609354  84.6814245  11.4196246  72.8994485
  90.2117397  14.3296479  77.6139147  90.2654419  14.8987415  78.3816863
  89.3432178  14.4998364  77.2493184  81.7005316   6.0921465  69.3386532
  80.7702904   6.0305920  69.5556494  81.7962788   5.5697418  68.5423173
  97.3405051  10.7718085  78.6138932  97.5340942  11.6763896  78.8598207
  97.2405670  10.3125504  79.4477517  92.4020160  10.9224828  84.1879812
  92.2505667  10.6935380  83.2709896  92.3924840  11.8795429  84.2011157
  89.1705497   8.4956741  79.1726079  90.0997557   8.6467900  78.9995046
  88.7496527   8.5840762  78.3174725  87.9693828  12.5207405  76.9424616
  87.8304914  12.1526190  77.8150555  87.1808425  13.0355045  76.7708574
  88.5641980  17.6216502  68.2850153  88.7393736  17.1504545  69.0995776
  87.8774768  18.2482268  68.5131414  89.5199043  11.8989008  74.3313454
  89.1848876  11.8589778  75.2271104  89.0202989  11.2333724  73.8583864
  83.4943287   7.3056638  79.8566035  83.3563085   6.5736877  80.4577574
  84.4048211   7.2165538  79.5750223  92.4558235   9.2445042  64.6050514
  91.8387406   8.5191870  64.5083567  91.9874724  10.0054402  64.2617588
  86.1225588   7.0176597  79.3449715  86.8325207   6.3769789  79.3036333
  86.0794896   7.2689492  80.2675896  94.1112367  13.9543951  82.2656294
  94.0524913  13.2703171  81.5986877  94.5131885  14.6962941  81.8136920
  83.1303066  20.7705864  75.0590013  83.3699664  21.4024389  75.7369032
  82.2872262  20.4193904  75.3455372  94.1129774  11.9183534  80.4970274
  93.2256553  11.5809456  80.6196673  94.6828325  11.1866566  80.7339039
  75.7658921   8.2507626  73.8213325  76.4529961   7.9369356  73.2334341
  75.6107050   9.1548991  73.5480577  87.6430927  16.5784987  77.4631517
  87.5701099  17.3839958  77.9750822  87.2008321  16.7776953  76.6379539
  87.4320707  15.8156757  70.9734339  86.6488229  16.3578437  71.0672563
  88.1313452  16.3330736  71.3728580  90.1029611  16.4771821  79.6189676
  90.8157583  17.1119286  79.5465577  89.6119640  16.5735687  78.8029678
  91.8247138  10.3823074  71.1906967  90.8903417  10.5024536  71.0211672
  92.0023806   9.4795540  70.9266977  85.1541524  14.2266264  80.4395247
  85.8550984  14.8602747  80.5924641  84.6836639  14.5680996  79.6790886
  93.2795920  12.5684214  68.7243154  93.5555764  12.4540809  69.6337028
  92.4100419  12.1701699  68.6855327  89.9149984  16.8170565  72.3675967
  90.0972379  15.9992221  72.8303720  90.7382970  17.0338257  71.9300857
  90.2492150  15.7438750  69.6291016  90.7779916  15.2331205  69.0161178
  90.5120369  15.4281280  70.4936549  89.0030383   7.5230683  84.7513834
  88.3271020   7.4224812  85.4216209  89.8258017   7.3669897  85.2149831
  80.7509243  13.7602619  77.3726349  81.3362679  13.0146307  77.5054254
  80.5534081  14.0706576  78.2563013  83.6047898  16.7953867  72.3888792
  82.9358273  17.2799994  71.9052832  83.4660767  17.0423087  73.3032170
  75.3426897   6.3308220  76.0930792  75.3810997   5.7971810  76.8867911
  74.8367190   5.8043425  75.4741770  87.7453166  18.8297610  78.9871450
  88.2971474  18.9929232  79.7520535  88.0859360  19.4202048  78.3151475
  92.5964041  13.6558868  84.8420104  93.1403945  14.2688826  84.3475059
  92.0150886  14.2138446  85.3587117  78.9735475   5.0572322  69.1684724
  79.2688916   4.1483000  69.1151778  78.0723511   5.0360061  68.8465726
  90.8821554  16.7779586  75.9735132  90.7572693  15.9769326  75.4646078
  91.5400645  17.2725779  75.4849102  92.9456462  14.5788606  77.6014682
  91.9986798  14.4593957  77.5293009  93.2939235  13.6911104  77.6840944
  89.9502895  14.3741322  73.8019035  89.8027858  13.4458030  73.9826605
  90.7756389  14.3961413  73.3176110  93.5537017  15.1969881  74.8883907
  94.4783565  14.9912742  74.7508358  93.3852321  14.9486282  75.7973249
  84.6863631   5.1864873  75.3721896  84.5408212   5.5005176  76.2646178
  84.2088835   5.8049773  74.8192795  93.3432333  15.7155548  70.2445999
  93.5169211  15.1501971  69.4919851  93.8361225  16.5156443  70.0625489
  79.1609293   7.7270217  78.3109558  78.6162761   8.5030025  78.4429832
  80.0388643   8.0741022  78.1528679  94.3307506  15.0322313  67.3442897
  95.0258410  15.6529005  67.5630212  94.6730656  14.1817664  67.6195275
  79.9475315   6.8540114  81.2039714  79.2057051   7.0022749  81.7904345
  79.6268059   7.1148379  80.3406464  96.2298929  12.4822018  68.8730228
  96.7550253  12.8209291  68.1479548  96.1421282  11.5469034  68.6893362
  87.8918978  16.3956092  81.0020104  88.2006104  16.1505239  81.8742804
  88.6894460  16.6002730  80.5138975  87.9139590  18.5494002  73.2325481
  87.4744580  18.0570380  73.9258338  88.6647707  18.0066969  72.9917556
  80.3931929  14.7405542  73.2350109  81.2189949  14.4409314  72.8548753
  80.0425981  13.9713165  73.6839898  85.3613462  14.0932011  75.3047783
  84.7393471  13.4302716  75.0050011  86.0318329  14.1193142  74.6221430
  78.5940534  12.6591869  74.1939043  77.7572442  12.2314043  74.0123044
  78.5664179  12.8524312  75.1309834  95.9192835  13.1154922  84.1781426
  95.1288379  13.0979061  83.6385925  95.6826190  13.6543216  84.9330462
  96.0390710   9.9647388  81.4914154  96.0888715   9.7997396  82.4329677
  95.9304633   9.0974647  81.1012035  84.9226969  12.6435934  68.7806243
  85.0715089  13.3271398  68.1272916  85.7293412  12.6241024  69.2955699
  97.5408907  12.3844330  81.7356176  97.2493715  12.7474310  82.5719637
  96.9281038  11.6711338  81.5569508  82.6779602   8.6701112  69.7867312
  82.4325644   7.7663442  69.9847522  82.8475516   8.6718262  68.8446790
  88.4222374  15.1384064  66.2517991  87.8496341  15.7574252  65.7988462
  88.9955168  15.6883426  66.7857913  91.6419634  15.4221215  67.3826573
  92.5750307  15.3566776  67.5859448  91.5542847  16.2577481  66.9241106
  94.2707651  14.7387085  64.3430520  94.1921282  14.4046948  65.2366278
  95.0917318  15.2308853  64.3421993  88.6907865  10.5262623  85.0534700
  89.6110875  10.7041222  85.2474747  88.6557448   9.5818669  84.9014399
  77.9090030   5.7201217  73.9787975  77.5892815   4.8666525  73.6862349
  77.3623459   5.9349795  74.7345942  81.6869938   8.4363658  77.6957481
  81.9055948   9.3680766  77.7145515  82.0995712   8.0771632  78.4812285
  77.7778290   9.3404128  75.9481096  77.0841762   8.9258081  75.4351051
  78.5251281   9.3824665  75.3514515  86.4229073   7.4394003  85.9025292
  85.9396155   8.2394363  86.1089181  86.5090012   7.4501947  84.9492736
  79.6915033   9.2722382  73.8247111  79.6685721   9.3710069  72.8728994
  80.0015669  10.1187533  74.1464277  82.3502411  11.3298537  77.9393726
  83.3045664  11.2982480  77.8723657  82.1514934  10.8689161  78.7543952
  82.9401793   9.8999653  80.5064523  83.7594682  10.3943732  80.5299361
  83.2138601   8.9831621  80.4782091  80.7052640  16.8718157  74.9563923
  80.5707107  16.1118558  74.3901922  80.2884702  17.5959057  74.4892712
  91.8411603  12.0555080  63.9640499  92.5447453  12.2605083  64.5798154
  91.1174251  12.6231842  64.2289582  83.8621765  17.7687474  75.1682366
  83.7454150  18.7132906  75.0661056  83.0414212  17.4661035  75.5568165
  93.7498300  12.4937609  66.0138959  94.5843904  12.0618808  65.8316434
  93.5882643  12.3219623  66.9415853  93.4044192   8.9969723  67.3795298
  93.3492996   8.8313994  66.4383742  92.7790247   9.7045756  67.5357488
  78.1936707   4.2337787  81.2056720  78.8395571   3.7236741  81.6943946
  77.9853858   4.9706469  81.7800146  90.7190099  11.3018635  86.7048861
  91.5881259  11.4759287  86.3435496  90.2396851  12.1213051  86.5824590
  84.8876280  18.4215736  78.3838295  85.7903526  18.4539346  78.7004790
  84.6613650  17.4916187  78.3984630  86.6429882  17.1746722  75.0448373
  85.6925513  17.1748584  74.9312745  86.9462368  16.4279457  74.5284408
 102.3782575  23.0107261  76.1094136 103.0160985  22.8914008  75.4057476
 102.2603418  23.9588105  76.1682088  99.1872281  22.9634689  76.0455660
  98.8490793  22.8475753  75.1576195 100.0562049  22.5625854  76.0256666
  95.0459097  24.8170165  72.0352551  94.4823962  24.7260102  71.2668839
  94.9311492  23.9970070  72.5155044  99.6692064  24.1169540  82.0041866
  99.6580705  23.7222339  81.1322369  99.8312704  23.3835613  82.5975637
  92.5923529  26.3121357  74.8736772  93.3844821  25.9712181  74.4583071
  92.8320179  26.4216332  75.7938925 100.6258656  28.4841133  67.3467016
  99.9746635  29.0695213  66.9601030 101.4203019  29.0147328  67.4062054
  94.5514283  25.5730270  67.7454150  95.3245159  25.0259257  67.6067026
  94.9039682  26.4374519  67.9568612  96.3899325  26.9006652  80.9521050
  96.0989191  27.8052283  80.8367716  97.0256310  26.9423180  81.6665119
  97.3155532  24.2783501  77.5422409  97.9119105  24.0539523  76.8279372
  97.3730504  23.5368246  78.1447857  96.8880561  21.7322936  65.3772600
  97.1406081  21.2104457  64.6156063  95.9505120  21.5689081  65.4799284
 101.9323844  20.7358714  73.1847344 102.7186933  20.3178138  72.8337761
 102.1962548  21.6404807  73.3528992 102.1033921  26.1731565  67.8836000
 101.4679754  26.2466191  68.5956905 101.7731327  26.7625164  67.2055080
 107.3332271  20.6733948  74.0880322 108.0657443  20.1033164  74.3218152
 106.5771626  20.2855548  74.5286828  96.6076849  23.6351042  67.5796975
  96.4913108  22.9595945  68.2478060  96.7179109  23.1483416  66.7629128
  98.9508390  23.0961189  71.2843665  98.5866598  22.5691810  71.9956586
  99.8075506  22.7059658  71.1110150 104.8557691  14.3855522  78.5474931
 104.5241016  15.2550933  78.3236146 104.2603304  14.0691806  79.2268961
  98.5913877  18.1251089  66.2805013  98.7588280  18.9931325  66.6475484
  98.4011046  18.2878371  65.3566302 101.3489211  26.5868068  77.9470843
 101.0489934  27.4893107  77.8386651 101.0040270  26.3200251  78.7991996
  94.8001692  23.0381865  73.9807548  93.8752188  22.9058079  74.1885240
  95.0486105  23.8176084  74.4777490 104.7486354  19.1050608  75.6268281
 103.8403232  19.0366016  75.3327042 104.6973950  19.5822553  76.4550106
  98.5703098  20.5808746  67.2651680  98.4502723  21.0265797  68.1037160
  97.8755687  20.9294064  66.7065218  92.1610503  22.6815138  74.8151337
  92.2902884  22.9349617  75.7290749  91.4807954  23.2742846  74.4955992
  96.3309990  33.3512388  70.9141811  96.2534020  34.3020213  70.9930292
  95.7271634  33.0058261  71.5716737  98.8227220  20.5240253  83.5703178
  98.0460554  21.0834174  83.5606043  99.4617783  21.0097036  84.0918048
 106.6148001  17.3067046  77.4046155 105.9722381  17.5999579  76.7585949
 106.1102929  17.1919967  78.2099351 104.2688164  21.0530219  68.0932014
 105.1806020  21.2857606  67.9179712 103.7597811  21.6367264  67.5307093
  97.0773592  23.3325707  83.1321145  97.8188277  23.8710751  82.8555969
  96.3710578  23.9591996  83.2892697 102.5528932  25.4754847  81.7293307
 102.9612288  25.0337258  80.9847939 101.8306194  24.9007475  81.9827499
  98.9060002  20.4127454  79.1026864  99.7521197  20.8366868  79.2461513
  98.8458640  19.7561078  79.7965427 102.8757747  26.0356038  75.4845595
 102.2466609  26.2001752  74.7821663 102.4883409  26.4497647  76.2556559
 106.7546979  26.9710476  72.8389959 106.0698017  27.3509377  72.2886993
 106.8390828  27.5805802  73.5721907 102.0559447  18.0731822  80.7608037
 101.8120379  18.8273883  80.2242313 102.3319378  18.4517170  81.5955284
 104.0097910  24.6170435  79.4385303 104.2214805  25.2602195  78.7619684
 103.9627658  23.7832751  78.9707233 101.6124139  17.2288255  76.3421875
 100.7508618  17.5269509  76.6338612 101.6386574  17.4458654  75.4102908
  98.4285709  25.7730446  72.7495681  98.8924054  26.0518149  71.9600303
  98.1642507  24.8713891  72.5668771  95.3209790  25.3201928  75.6875444
  95.8911147  25.7489196  75.0492928  95.9117901  25.0384512  76.3859629
  97.3654595  21.8953598  69.5585246  98.0678638  22.3474642  70.0259172
  97.0335223  21.2537417  70.1865139  95.8134956  20.4865355  83.9336455
  95.1833617  21.1681636  84.1671852  95.7071044  20.3748437  82.9889593
  91.1079929  20.1537151  74.8602379  90.3178983  20.4094680  74.3842490
  91.5991176  20.9685489  74.9654420 105.1243738  27.4942390  77.6107660
 105.9461182  27.0922578  77.3290342 105.1206141  27.3910624  78.5623776
  93.0594674  20.5181730  71.8185856  92.2625837  20.6300425  72.3369352
  92.8320266  20.8568383  70.9526746  98.8900342  27.0426434  79.7668371
  98.9544774  27.5046841  80.6026542  98.1811265  26.4123798  79.8950680
  89.3917632  20.4067642  77.2917370  89.6425670  21.2914651  77.5574946
  89.9277180  20.2272243  76.5192462 113.2149731  23.8381139  73.9592632
 112.4613440  23.2688537  73.8036636 113.3497272  23.8043803  74.9063266
  98.6048359  28.7094541  69.6347351  98.4694034  29.5546077  70.0632199
  99.1458172  28.9113819  68.8713285  95.0915699  14.7886121  86.2961706
  94.6982644  14.2352319  86.9709350  95.9081839  15.0996699  86.6868224
  92.0577757  26.2269979  70.2075276  92.5702277  27.0213229  70.3580841
  92.7100469  25.5296270  70.1408877  93.8672641  29.3435735  72.2898029
  94.0439270  30.2653700  72.1019013  94.6629475  29.0294155  72.7192409
  98.0083660  16.2044000  83.8881963  98.7493373  16.8051153  83.8086425
  98.2401583  15.4621638  83.3300005  93.1524998  21.3900367  82.1660192
  93.0378513  20.4885624  82.4667291  92.2969516  21.6364064  81.8145009
 100.2316836  29.3318108  83.7647693  99.7880690  28.5454486  83.4468597
 100.8934049  29.5197258  83.0991584  94.9903957  30.8613909  78.2908371
  95.5411382  30.7330972  77.5185365  94.1515433  31.1608798  77.9403264
 102.3298074  29.6120907  81.7929094 102.3116549  30.4329789  81.3009363
 103.2517994  29.4874983  82.0179235  98.7871128  27.1265037  82.6352603
  99.3199465  26.3653325  82.4051911  98.2585209  26.8338689  83.3776757
 101.9540823  12.2325103  78.1646244 101.6105092  13.1226745  78.0885355
 102.3219785  12.0426761  77.3015829  90.0226673  24.5558633  70.9834847
  90.8601895  24.9655642  70.7668554  90.2004941  23.6158076  70.9535040
 101.9191106  22.2233714  66.6718679 101.4037729  22.9938319  66.9107067
 101.6468414  21.5498850  67.2951741  99.5038217  17.0683415  71.7303918
  98.6479813  16.6790265  71.5509557  99.9165168  17.1475376  70.8703703
 101.0337363  14.6029758  76.1295478 100.5302159  14.5659893  75.3163283
 101.3267970  15.5122501  76.1892134  97.2780249  14.6868488  75.1361659
  98.1433246  14.4911296  74.7767549  97.3457758  14.4578840  76.0631016
 106.8925380  24.9766069  68.6071853 106.1154822  24.6377228  68.1627015
 107.5716861  24.9818692  67.9326818 101.7077409  20.0960806  68.4978461
 101.4027544  20.4106955  69.3488604 102.6607851  20.1742226  68.5405794
 100.1523841  26.2551029  70.1471415  99.6245202  25.5203789  69.8344652
  99.6511343  27.0325706  69.9011383 105.1316687  24.4500050  75.2638461
 104.4740361  25.1399311  75.3518590 105.9357086  24.8396482  75.6072447
  94.8842568  16.9170696  72.5078026  95.4586320  16.6945877  71.7751219
  95.4713551  16.9859390  73.2606627 103.9422145  22.8044423  73.3142403
 104.4554027  23.4374414  73.8164112 104.5923369  22.2045618  72.9485763
  95.2112155  18.9475157  66.5273911  94.3749468  19.2849843  66.8483186
  95.0716925  18.8124137  65.5901048  97.1865236  13.7911945  71.2353096
  96.5329648  13.4760962  70.6109710  97.1445710  13.1687685  71.9612919
  98.2976441  24.0731240  63.1506388  97.3903502  23.8420493  63.3497537
  98.7947473  23.2768859  63.3380369 101.2044520  32.7828747  66.0703074
 100.5306218  33.0860444  66.6788032 101.5910342  33.5857827  65.7208531
 100.4202976  20.2793878  75.5600743  99.5025538  20.5008825  75.4022431
 100.8363120  20.3540189  74.7012451 101.2038024  21.6785294  70.6903423
 101.9509843  22.1906691  70.3810546 101.4729614  21.3569347  71.5507817
  99.4764674  24.1743835  67.6730378  98.5675893  23.8902867  67.7702847
  99.5059758  24.5942913  66.8133685 104.7083942  27.7850424  71.4421545
 104.2546269  26.9441334  71.4986736 104.0777908  28.4211822  71.7796325
 103.6516861  18.7142410  72.6722213 102.9139618  18.2019796  73.0032455
 103.9043635  18.2742792  71.8605490 103.1516881  29.6226921  72.3771363
 103.4439855  30.1831978  71.6583729 103.6615501  29.9155482  73.1324523
  90.0452845  21.8949349  71.6545580  89.8477244  21.3018709  70.9296647
  89.4899509  21.5901559  72.3721519  98.0249568  21.7872455  73.7740173
  98.0798178  20.8346292  73.6982650  97.2140770  21.9431894  74.2581472
  99.1740762  25.7152578  65.0118456  98.7360192  24.9988437  64.5524094
  99.9151203  25.9428693  64.4503548  95.9641928  20.4049515  71.5330552
  95.1509794  20.7043685  71.9395744  96.4600922  20.0105204  72.2505034
  98.1150506  30.4007272  73.4664817  98.0726685  30.6268118  72.5373349
  99.0313205  30.1670646  73.6150618 101.5616140  20.8691339  80.3645446
 101.9165528  21.0962813  81.2239912 102.2088271  21.2009716  79.7422701
 107.2913877  23.9909775  71.0694775 107.1531775  24.1811371  70.1415964
 106.9350096  24.7529158  71.5262826  95.4556003  17.9767870  77.1491787
  96.0955382  17.8356630  76.4514750  94.6233533  17.6902384  76.7730389
 107.3183256  26.0586302  76.0806046 107.7519763  25.9661591  76.9289100
 108.0314837  26.0343803  75.4426062  96.2316307  27.2770301  73.2626779
  97.0256905  26.7820621  73.0609354  95.5207999  26.7488164  72.8994485
 101.0511151  29.6588396  77.6139147 101.1048174  30.2279333  78.3816863
 100.1825933  29.8290281  77.2493184  92.5399070  21.4213383  69.3386532
  91.6096658  21.3597838  69.5556494  92.6356542  20.8989335  68.5423173
  92.4584619  17.9468195  71.9264774  92.7191437  18.8613529  71.8173934
  93.2801792  17.4792638  72.0761387  93.9309545  19.3605953  79.0963598
  94.6032598  19.1523315  78.4476247  93.1039331  19.1628039  78.6568831
 108.1798806  26.1010003  78.6138932 108.3734696  27.0055813  78.8598207
 108.0799424  25.6417422  79.4477517  99.8335117  15.9867893  81.1129259
  99.1863032  16.6857843  81.0193736 100.6036132  16.4204037  81.4805507
 103.2413915  26.2516746  84.1879812 103.0899421  26.0227297  83.2709896
 103.2318594  27.2087347  84.2011157 100.0099251  23.8248658  79.1726079
 100.9391311  23.9759818  78.9995046  99.5890281  23.9132679  78.3174725
  98.8087583  27.8499323  76.9424616  98.6698668  27.4818107  77.8150555
  98.0202179  28.3646962  76.7708574  99.4035735  32.9508419  68.2850153
  99.5787490  32.4796462  69.0995776  98.7168523  33.5774185  68.5131414
 100.3592798  27.2280926  74.3313454 100.0242631  27.1881695  75.2271104
  99.8596744  26.5625641  73.8583864  94.3337042  22.6348556  79.8566035
  94.1956840  21.9028794  80.4577574  95.2441965  22.5457456  79.5750223
 103.2951990  24.5736960  64.6050514 102.6781160  23.8483788  64.5083567
 102.8268478  25.3346320  64.2617588  96.9619343  22.3468515  79.3449715
  97.6718961  21.7061707  79.3036333  96.9188651  22.5981410  80.2675896
 104.9506121  29.2835868  82.2656294 104.8918667  28.5995088  81.5986877
 105.3525640  30.0254858  81.8136920  95.6748277  19.3333733  81.1645355
  95.1385634  18.8824471  81.8166951  95.0864985  19.4679642  80.4215819
  93.9696820  36.0997782  75.0590013  94.2093418  36.7316306  75.7369032
  93.1266017  35.7485822  75.3455372  95.0850535  18.7922384  63.7271818
  94.2080002  18.6711185  63.3634065  95.5608289  18.0008462  63.4750707
 104.9523529  27.2475452  80.4970274 104.0650307  26.9101374  80.6196673
 105.5222080  26.5158483  80.7339039  86.6052676  23.5799544  73.8213325
  87.2923715  23.2661274  73.2334341  86.4500804  24.4840909  73.5480577
  91.4087398  18.4689740  78.2498349  91.3245586  17.8615410  77.5148759
  90.5870104  18.9598759  78.2507845  98.4824682  31.9076904  77.4631517
  98.4094853  32.7131876  77.9750822  98.0402075  32.1068870  76.6379539
  98.2714462  31.1448675  70.9734339  97.4881983  31.6870355  71.0672563
  98.9707207  31.6622654  71.3728580 101.5811112  16.9543304  73.6168544
 102.0779811  16.2013266  73.2969614 100.8098093  16.9907621  73.0511753
 109.4340869  22.6583670  75.2586836 109.4230745  23.5408385  74.8880769
 108.5658248  22.3055220  75.0641373 100.9423365  31.8063739  79.6189676
 101.6551338  32.4411203  79.5465577 100.4513394  31.9027605  78.8029678
 102.6640892  25.7114991  71.1906967 101.7297171  25.8316454  71.0211672
 102.8417561  24.8087458  70.9266977  98.1646080  19.0960687  73.3440229
  97.7943868  18.5431727  74.0321134  98.6605173  18.4918820  72.7915229
 106.0513444  21.5532310  71.7257002 106.5173896  22.3860302  71.6517304
 106.5020944  21.0877292  72.4302260  95.9935279  29.5558182  80.4395247
  96.6944738  30.1894665  80.5924641  95.5230394  29.8972914  79.6790886
 104.1189675  27.8976132  68.7243154 104.3949519  27.7832726  69.6337028
 103.2494174  27.4993617  68.6855327 104.0230106  13.9212897  75.7647903
 103.1093186  14.1517124  75.9330110 104.4523208  14.0051342  76.6161935
 103.7936565  22.1102789  78.2647797 103.1408015  22.3578697  77.6100250
 104.1716945  21.2966928  77.9310274 100.7543739  32.1462483  72.3675967
 100.9366133  31.3284139  72.8303720 101.5776725  32.3630175  71.9300857
 101.0885904  31.0730668  69.6291016 101.6173671  30.5623122  69.0161178
 101.3514124  30.7573198  70.4936549  99.8424138  22.8522601  84.7513834
  99.1664775  22.7516730  85.4216209 100.6651772  22.6961814  85.2149831
  91.5902997  29.0894537  77.3726349  92.1756434  28.3438225  77.5054254
  91.3927835  29.3998494  78.2563013  94.4441652  32.1245784  72.3888792
  93.7752027  32.6091912  71.9052832  94.3054522  32.3715005  73.3032170
  86.1820652  21.6600137  76.0930792  86.2204751  21.1263728  76.8867911
  85.6760945  21.1335343  75.4741770  98.5846921  34.1589528  78.9871450
  99.1365229  34.3221149  79.7520535  98.9253114  34.7493966  78.3151475
  93.5611414  16.5064678  79.5893335  93.6252741  17.3679509  79.1770732
  93.4978534  15.8938679  78.8565693  93.0363687  18.5787810  83.2366369
  93.6635725  18.1964888  83.8503893  92.1791605  18.3602012  83.6022062
 103.4357795  28.9850785  84.8420104 103.9797699  29.5980744  84.3475059
 102.8544640  29.5430364  85.3587117  89.8129229  20.3864239  69.1684724
  90.1082670  19.4774918  69.1151778  88.9117265  20.3651979  68.8465726
 101.7215308  32.1071503  75.9735132 101.5966448  31.3061243  75.4646078
 102.3794399  32.6017697  75.4849102  93.3423476  18.4620236  75.1512272
  92.6210062  19.0756204  75.0119746  94.1316732  18.9978001  75.0728918
 103.7850216  29.9080524  77.6014682 102.8380552  29.7885875  77.5293009
 104.1332990  29.0203022  77.6840944  96.1449790  15.7974662  81.4252924
  96.6684192  16.0436959  82.1879234  95.9262123  16.6294697  81.0056062
  91.5417071  18.0678337  69.2924049  91.2129777  17.1875716  69.1099155
  91.8956442  18.0126006  70.1800438 100.7896650  29.7033240  73.8019035
 100.6421612  28.7749947  73.9826605 101.6150143  29.7253330  73.3176110
  94.6558894  18.3551307  69.6599527  94.9954967  18.8837228  68.9378135
  95.1031015  18.6931713  70.4358093 104.3930772  30.5261799  74.8883907
 105.3177319  30.3204660  74.7508358 104.2246075  30.2778200  75.7973249
  97.3502335  16.7388358  79.1102595  97.0099155  15.9396171  79.5123275
  96.6441341  17.0390068  78.5379428  98.0018807  13.8237670  77.5629918
  98.8244876  13.3498148  77.4408808  98.2456870  14.6028154  78.0628604
  96.6427041  16.8525928  67.8592819  97.3635404  17.2307181  67.3556536
  96.0192345  17.5714805  67.9627797 100.7858164  17.5571077  68.7951152
 101.0021778  18.4395715  68.4939980 100.3052231  17.1657291  68.0656794
  95.5257385  20.5156791  75.3721896  95.3801966  20.8297094  76.2646178
  95.0482589  21.1341691  74.8192795  97.3853768  17.5059339  75.4202786
  97.3715337  16.6100432  75.0835084  98.1026196  17.5130002  76.0541072
  99.2379899  17.9396679  77.4655913  98.9797677  18.8613749  77.4640244
  98.7064939  17.5427113  78.1556377 104.1826088  31.0447466  70.2445999
 104.3562965  30.4793888  69.4919851 104.6754979  31.8448361  70.0625489
  90.0003048  23.0562135  78.3109558  89.4556516  23.8321943  78.4429832
  90.8782398  23.4032940  78.1528679  96.7890664  16.3873719  70.6890356
  96.9106575  15.4590365  70.8881244  96.4992707  16.4012405  69.7768671
  99.6581855  14.0728629  73.8257076  99.6803552  14.1367962  72.8709055
 100.0749914  13.2333138  74.0197582 110.0365479  23.8083889  71.8636298
 110.4796625  23.0591214  71.4655422 109.1591989  23.7994025  71.4810030
 105.1701260  30.3614230  67.3442897 105.8652165  30.9820923  67.5630212
 105.5124410  29.5109582  67.6195275  90.7869070  22.1832031  81.2039714
  90.0450806  22.3314667  81.7904345  90.4661814  22.4440297  80.3406464
 107.0692683  27.8113936  68.8730228 107.5944008  28.1501209  68.1479548
 106.9815036  26.8760951  68.6893362  98.7312732  31.7248010  81.0020104
  99.0399859  31.4797156  81.8742804  99.5288214  31.9294648  80.5138975
  98.7533344  33.8785919  73.2325481  98.3138334  33.3862298  73.9258338
  99.5041461  33.3358887  72.9917556  91.2325683  30.0697460  73.2350109
  92.0583703  29.7701232  72.8548753  90.8819735  29.3005082  73.6839898
  96.2007216  29.4223928  75.3047783  95.5787226  28.7594633  75.0050011
  96.8712083  29.4485060  74.6221430  89.4334288  27.9883786  74.1939043
  88.5966197  27.5605961  74.0123044  89.4057934  28.1816230  75.1309834
  96.2731744  17.9005716  84.8980289  96.3219899  18.7767839  84.5158058
  96.8154258  17.3583109  84.3251932 106.7586590  28.4446840  84.1781426
 105.9682133  28.4270978  83.6385925 106.5219944  28.9835133  84.9330462
 106.8784465  25.2939306  81.4914154 106.9282469  25.1289313  82.4329677
 106.7698388  24.4266565  81.1012035  95.7620723  27.9727852  68.7806243
  95.9108844  28.6563316  68.1272916  96.5687167  27.9532942  69.2955699
 104.1688227  21.2770234  82.8073461 105.0698090  21.1376699  82.5157459
 104.2436201  21.4424689  83.7471638  98.5031032  18.6537089  81.6526647
  97.6334342  18.9470655  81.3809236  98.7390513  19.2377534  82.3733911
 108.3802661  27.7136247  81.7356176 108.0887470  28.0766228  82.5719637
 107.7674793  27.0003256  81.5569508 109.5798344  25.2789127  74.2558746
 110.4145235  25.7178931  74.4196306 109.7157472  24.8027780  73.4366992
 106.6289850  22.8368862  80.2036234 107.1043971  23.0296508  79.3955085
 105.7055415  22.8928048  79.9579617  93.5173356  23.9993029  69.7867312
  93.2719398  23.0955359  69.9847522  93.6869271  24.0010180  68.8446790
 101.2070066  14.8716706  79.1692068 101.7252010  15.6077733  78.8438556
 100.8525199  15.1780699  80.0038827  92.7869004  19.7321387  67.2853474
  92.0938249  19.8065742  66.6293510  92.5420756  18.9681730  67.8074990
  99.2616129  30.4675982  66.2517991  98.6890096  31.0866169  65.7988462
  99.8348922  31.0175344  66.7857913 105.3291519  19.7134622  78.4364539
 106.2808942  19.8132720  78.4576763 105.1594969  18.9212891  78.9462624
 103.3505898  16.7990205  78.6223940 102.7555830  17.0795218  77.9270429
 103.0655595  17.2884106  79.3940681 102.4813389  30.7513132  67.3826573
 103.4144062  30.6858694  67.5859448 102.3936601  31.5869399  66.9241106
 105.1101405  30.0679003  64.3430520 105.0315037  29.7338866  65.2366278
 105.9311072  30.5600770  64.3421993 107.8079596  22.9340742  77.5506839
 107.7755917  21.9956743  77.7366523 108.4180220  23.0124779  76.8172664
  99.6462927  21.8036795  63.5934043 100.5922032  21.6743003  63.6622461
  99.2677172  21.0651457  64.0703471 107.9574085  19.7251785  77.5965122
 107.4413134  18.9410242  77.4095051 108.8414033  19.3970502  77.7611642
 105.6184812  13.4692801  73.5560935 105.4209633  13.1607889  74.4404267
 106.2284517  14.1954440  73.6858865 113.6256146  23.9956749  76.6912876
 114.3559535  23.7342037  77.2520579 113.0163092  23.2585471  76.7314944
 111.7071443  22.1364611  77.2887327 110.9804607  22.0020576  76.6803819
 111.2918730  22.4441440  78.0944045  99.5301620  25.8554541  85.0534700
 100.4504629  26.0333140  85.2474747  99.4951203  24.9110586  84.9014399
  97.8305844  19.7286771  63.5288928  96.9237300  19.4319884  63.6051642
  98.1081825  19.4316589  62.6623215  88.7483785  21.0493135  73.9787975
  88.4286569  20.1958443  73.6862349  88.2017213  21.2641713  74.7345942
  92.5263692  23.7655576  77.6957481  92.7449702  24.6972683  77.7145515
  92.9389466  23.4063550  78.4812285  99.4467910  14.2723661  69.6833170
  98.6368638  13.9270746  70.0588416 100.1352327  13.9631205  70.2720781
 101.3758458  13.3501708  71.3057466 101.9289497  13.7697161  71.9647489
 101.6128545  12.4237456  71.3480422  97.3991558  19.3388781  87.0860230
  97.2988285  20.2883138  87.0172321  97.1813100  19.0107020  86.2136300
  96.6004629  16.5873706  63.6700908  97.4623793  16.9128605  63.9296725
  96.7854973  15.8005202  63.1573973  88.6172045  24.6696046  75.9481096
  87.9235516  24.2549999  75.4351051  89.3645036  24.7116583  75.3514515
 104.7537266  15.4602233  70.8136131 104.1735935  16.1187037  70.4314183
 104.4873198  14.6379577  70.4023548 103.2040832  14.8607291  73.0157451
 103.7040610  14.9723825  72.2071770 103.8476440  14.5568343  73.6558259
  97.2622828  22.7685920  85.9025292  96.7789909  23.5686280  86.1089181
  97.3483767  22.7793865  84.9492736  90.5308787  24.6014300  73.8247111
  90.5079475  24.7001987  72.8728994  90.8409424  25.4479451  74.1464277
  93.1896165  26.6590455  77.9393726  94.1439419  26.6274397  77.8723657
  92.9908689  26.1981079  78.7543952  93.7795547  25.2291571  80.5064523
  94.5988436  25.7235650  80.5299361  94.0532355  24.3123539  80.4782091
 103.5362144  17.6202323  69.8692479 102.6487999  17.9051974  69.6512674
 103.9516133  17.4596087  69.0219756 106.8876680  17.6448844  73.5846818
 107.6637070  18.1345297  73.8571435 106.1624814  18.0706898  74.0418688
 109.3249238  18.3576463  74.6420759 109.9193729  18.1172199  73.9314067
 109.3975822  17.6383594  75.2694295  91.5446394  32.2010074  74.9563923
  91.4100862  31.4410475  74.3901922  91.1278456  32.9250974  74.4892712
 102.6805357  27.3846998  63.9640499 103.3841207  27.5897000  64.5798154
 101.9568006  27.9523760  64.2289582 103.5103167  23.1356859  70.0842769
 103.4538369  23.5925411  69.2450401 104.0631510  22.3747544  69.9065612
 107.3207973  18.9246591  70.9092888 107.0644907  18.5243227  71.7401096
 106.6960841  19.6390385  70.7843028 111.6320311  21.6642664  73.4164180
 111.0719869  21.7335854  74.1895742 111.0263814  21.4883649  72.6963676
  94.7015520  33.0979391  75.1682366  94.5847904  34.0424824  75.0661056
  93.8807966  32.7952953  75.5568165 104.5892054  27.8229527  66.0138959
 105.4237658  27.3910726  65.8316434 104.4276397  27.6511541  66.9415853
 104.2437947  24.3261640  67.3795298 104.1886750  24.1605912  66.4383742
 103.6184002  25.0337673  67.5357488  89.0330462  19.5629705  81.2056720
  89.6789325  19.0528659  81.6943946  88.8247613  20.2998386  81.7800146
 101.5583854  26.6310552  86.7048861 102.4275013  26.8051205  86.3435496
 101.0790605  27.4504969  86.5824590  97.5534072  13.8269749  66.9580617
  97.5412742  14.7711589  67.1148887  98.4457494  13.6439895  66.6640078
  95.7270034  33.7507653  78.3838295  96.6297281  33.7831264  78.7004790
  95.5007404  32.8208104  78.3984630  97.4823636  32.5038640  75.0448373
  96.5319267  32.5040501  74.9312745  97.7856122  31.7571374  74.5284408
  93.3727953  16.7097322  85.3031735  94.2359414  16.3534127  85.5135059
  92.7993363  16.3711217  85.9907139 113.2176330  38.3399178  76.1094136
 113.8554739  38.2205926  75.4057476 113.0997172  39.2880022  76.1682088
 110.0266036  38.2926606  76.0455660 109.6884547  38.1767671  75.1576195
 110.8955804  37.8917771  76.0256666 105.8852851  40.1462083  72.0352551
 105.3217717  40.0552020  71.2668839 105.7705247  39.3261987  72.5155044
 110.5085819  39.4461458  82.0041866 110.4974460  39.0514256  81.1322369
 110.6706458  38.7127531  82.5975637 103.4317283  41.6413274  74.8736772
 104.2238575  41.3004099  74.4583071 103.6713934  41.7508249  75.7938925
 111.4652410  43.8133050  67.3467016 110.8140390  44.3987131  66.9601030
 112.2596773  44.3439245  67.4062054 105.3908037  40.9022188  67.7454150
 106.1638913  40.3551175  67.6067026 105.7433436  41.7666437  67.9568612
 107.2293080  42.2298570  80.9521050 106.9382946  43.1344201  80.8367716
 107.8650064  42.2715097  81.6665119 108.1549287  39.6075418  77.5422409
 108.7512859  39.3831441  76.8279372 108.2124258  38.8660164  78.1447857
 107.7274315  37.0614854  65.3772600 107.9799836  36.5396375  64.6156063
 106.7898874  36.8980999  65.4799284 112.7717598  36.0650632  73.1847344
 113.5580687  35.6470055  72.8337761 113.0356302  36.9696724  73.3528992
 112.9427675  41.5023482  67.8836000 112.3073508  41.5758109  68.5956905
 112.6125082  42.0917081  67.2055080 118.1726025  36.0025865  74.0880322
 118.9051197  35.4325082  74.3218152 117.4165381  35.6147466  74.5286828
 107.4470604  38.9642960  67.5796975 107.3306862  38.2887863  68.2478060
 107.5572864  38.4775334  66.7629128 109.7902145  38.4253107  71.2843665
 109.4260352  37.8983728  71.9956586 110.6469261  38.0351576  71.1110150
 115.6951445  29.7147439  78.5474931 115.3634770  30.5842850  78.3236146
 115.0997059  29.3983723  79.2268961 109.4307632  33.4543006  66.2805013
 109.5982034  34.3223243  66.6475484 109.2404801  33.6170288  65.3566302
 112.1882965  41.9159985  77.9470843 111.8883688  42.8185024  77.8386651
 111.8434025  41.6492169  78.7991996 105.6395446  38.3673782  73.9807548
 104.7145943  38.2349996  74.1885240 105.8879860  39.1468001  74.4777490
 115.5880109  34.4342526  75.6268281 114.6796986  34.3657934  75.3327042
 115.5367705  34.9114471  76.4550106 109.4096853  35.9100664  67.2651680
 109.2896478  36.3557715  68.1037160 108.7149441  36.2585982  66.7065218
 103.0004258  38.0107056  74.8151337 103.1296639  38.2641535  75.7290749
 102.3201709  38.6034764  74.4955992 107.1703745  48.6804306  70.9141811
 107.0927775  49.6312131  70.9930292 106.5665388  48.3350178  71.5716737
 109.6620975  35.8532171  83.5703178 108.8854309  36.4126091  83.5606043
 110.3011538  36.3388954  84.0918048 117.4541755  32.6358964  77.4046155
 116.8116135  32.9291497  76.7585949 116.9496684  32.5211884  78.2099351
 115.1081919  36.3822137  68.0932014 116.0199775  36.6149524  67.9179712
 114.5991566  36.9659181  67.5307093 107.9167347  38.6617625  83.1321145
 108.6582031  39.2002668  82.8555969 107.2104332  39.2883913  83.2892697
 113.3922687  40.8046765  81.7293307 113.8006043  40.3629176  80.9847939
 112.6699948  40.2299393  81.9827499 109.7453757  35.7419372  79.1026864
 110.5914952  36.1658785  79.2461513 109.6852394  35.0852996  79.7965427
 113.7151501  41.3647956  75.4845595 113.0860364  41.5293670  74.7821663
 113.3277163  41.7789565  76.2556559 117.5940733  42.3002393  72.8389959
 116.9091771  42.6801295  72.2886993 117.6784582  42.9097720  73.5721907
 112.8953202  33.4023740  80.7608037 112.6514134  34.1565801  80.2242313
 113.1713132  33.7809088  81.5955284 114.8491665  39.9462352  79.4385303
 115.0608560  40.5894112  78.7619684 114.8021413  39.1124669  78.9707233
 112.4517894  32.5580173  76.3421875 111.5902373  32.8561427  76.6338612
 112.4780328  32.7750572  75.4102908 109.2679463  41.1022364  72.7495681
 109.7317809  41.3810067  71.9600303 109.0036261  40.2005808  72.5668771
 106.1603544  40.6493845  75.6875444 106.7304901  41.0781114  75.0492928
 106.7511656  40.3676430  76.3859629 108.2048349  37.2245516  69.5585246
 108.9072392  37.6766560  70.0259172 107.8728978  36.5829335  70.1865139
 106.6528711  35.8157273  83.9336455 106.0227371  36.4973554  84.1671852
 106.5464799  35.7040354  82.9889593 101.9473683  35.4829069  74.8602379
 101.1572737  35.7386597  74.3842490 102.4384930  36.2977407  74.9654420
 115.9637493  42.8234308  77.6107660 116.7854936  42.4214495  77.3290342
 115.9599895  42.7202542  78.5623776 103.8988428  35.8473648  71.8185856
 103.1019592  35.9592342  72.3369352 103.6714021  36.1860300  70.9526746
 109.7294096  42.3718351  79.7668371 109.7938529  42.8338758  80.6026542
 109.0205020  41.7415716  79.8950680 100.2311386  35.7359559  77.2917370
 100.4819424  36.6206569  77.5574946 100.7670934  35.5564161  76.5192462
 109.4442114  44.0386459  69.6347351 109.3087789  44.8837994  70.0632199
 109.9851926  44.2405736  68.8713285 105.9309453  30.1178039  86.2961706
 105.5376399  29.5644237  86.9709350 106.7475594  30.4288617  86.6868224
 102.8971511  41.5561897  70.2075276 103.4096032  42.3505147  70.3580841
 103.5494224  40.8588187  70.1408877 104.7066396  44.6727653  72.2898029
 104.8833024  45.5945618  72.1019013 105.5023229  44.3586072  72.7192409
 108.8477414  31.5335918  83.8881963 109.5887128  32.1343071  83.8086425
 109.0795337  30.7913555  83.3300005 103.9918752  36.7192285  82.1660192
 103.8772267  35.8177542  82.4667291 103.1363270  36.9655982  81.8145009
 111.0710590  44.6610025  83.7647693 110.6274444  43.8746404  83.4468597
 111.7327804  44.8489176  83.0991584 105.8297711  46.1905827  78.2908371
 106.3805136  46.0622890  77.5185365 104.9909187  46.4900716  77.9403264
 113.1691828  44.9412825  81.7929094 113.1510304  45.7621706  81.3009363
 114.0911748  44.8166900  82.0179235 109.6264882  42.4556955  82.6352603
 110.1593219  41.6945243  82.4051911 109.0978963  42.1630606  83.3776757
 112.7934577  27.5617021  78.1646244 112.4498847  28.4518662  78.0885355
 113.1613540  27.3718678  77.3015829 100.8620428  39.8850551  70.9834847
 101.6995650  40.2947559  70.7668554 101.0398696  38.9449993  70.9535040
 112.7584860  37.5525632  66.6718679 112.2431483  38.3230236  66.9107067
 112.4862168  36.8790768  67.2951741 110.3431971  32.3975332  71.7303918
 109.4873567  32.0082183  71.5509557 110.7558923  32.4767293  70.8703703
 111.8731118  29.9321676  76.1295478 111.3695913  29.8951811  75.3163283
 112.1661725  30.8414418  76.1892134 108.1174004  30.0160405  75.1361659
 108.9827000  29.8203214  74.7767549 108.1851512  29.7870757  76.0631016
 117.7319134  40.3057986  68.6071853 116.9548577  39.9669146  68.1627015
 118.4110615  40.3110609  67.9326818 112.5471163  35.4252724  68.4978461
 112.2421299  35.7398873  69.3488604 113.5001605  35.5034144  68.5405794
 110.9917595  41.5842947  70.1471415 110.4638957  40.8495707  69.8344652
 110.4905098  42.3617623  69.9011383 115.9710441  39.7791968  75.2638461
 115.3134115  40.4691229  75.3518590 116.7750840  40.1688400  75.6072447
 105.7236323  32.2462613  72.5078026 106.2980075  32.0237795  71.7751219
 106.3107305  32.3151308  73.2606627 114.7815900  38.1336340  73.3142403
 115.2947782  38.7666332  73.8164112 115.4317124  37.5337536  72.9485763
 106.0505910  34.2767074  66.5273911 105.2143222  34.6141761  66.8483186
 105.9110679  34.1416054  65.5901048 108.0258990  29.1203862  71.2353096
 107.3723403  28.8052879  70.6109710 107.9839464  28.4979603  71.9612919
 109.1370195  39.4023157  63.1506388 108.2297257  39.1712411  63.3497537
 109.6341227  38.6060777  63.3380369 112.0438274  48.1120665  66.0703074
 111.3699973  48.4152361  66.6788032 112.4304096  48.9149745  65.7208531
 111.2596731  35.6085796  75.5600743 110.3419292  35.8300743  75.4022431
 111.6756874  35.6832106  74.7012451 112.0431778  37.0077212  70.6903423
 112.7903597  37.5198609  70.3810546 112.3123368  36.6861264  71.5507817
 110.3158429  39.5035752  67.6730378 109.4069648  39.2194785  67.7702847
 110.3453512  39.9234831  66.8133685 115.5477696  43.1142342  71.4421545
 115.0940023  42.2733252  71.4986736 114.9171663  43.7503740  71.7796325
 114.4910616  34.0434328  72.6722213 113.7533372  33.5311714  73.0032455
 114.7437389  33.6034709  71.8605490 113.9910635  44.9518838  72.3771363
 114.2833610  45.5123896  71.6583729 114.5009256  45.2447399  73.1324523
 114.5922243  26.8210580  73.2663982 114.8981120  25.9607943  72.9789897
 115.3174848  27.4128200  73.0662976 100.8846599  37.2241266  71.6545580
 100.6870999  36.6310627  70.9296647 100.3293263  36.9193477  72.3721519
 108.8643323  37.1164373  73.7740173 108.9191932  36.1638209  73.6982650
 108.0534525  37.2723812  74.2581472 110.0134516  41.0444496  65.0118456
 109.5753946  40.3280355  64.5524094 110.7544957  41.2720611  64.4503548
 106.8035683  35.7341433  71.5330552 105.9903548  36.0335603  71.9395744
 107.2994677  35.3397121  72.2505034 108.9544260  45.7299190  73.4664817
 108.9120439  45.9560036  72.5373349 109.8706959  45.4962564  73.6150618
 112.4009894  36.1983257  80.3645446 112.7559282  36.4254730  81.2239912
 113.0482026  36.5301634  79.7422701 118.1307631  39.3201693  71.0694775
 117.9925530  39.5103289  70.1415964 117.7743850  40.0821076  71.5262826
 106.2949757  33.3059788  77.1491787 106.9349137  33.1648547  76.4514750
 105.4627288  33.0194301  76.7730389 118.1577011  41.3878220  76.0806046
 118.5913518  41.2953509  76.9289100 118.8708592  41.3635720  75.4426062
 107.0710061  42.6062219  73.2626779 107.8650660  42.1112539  73.0609354
 106.3601754  42.0780082  72.8994485 111.8904906  44.9880314  77.6139147
 111.9441928  45.5571250  78.3816863 111.0219687  45.1582199  77.2493184
 103.3792825  36.7505300  69.3386532 102.4490413  36.6889756  69.5556494
 103.4750297  36.2281253  68.5423173 103.2978374  33.2760113  71.9264774
 103.5585191  34.1905446  71.8173934 104.1195546  32.8084556  72.0761387
 104.7703299  34.6897870  79.0963598 105.4426353  34.4815232  78.4476247
 103.9433086  34.4919956  78.6568831 119.0192560  41.4301921  78.6138932
 119.2128450  42.3347731  78.8598207 118.9193179  40.9709340  79.4477517
 110.6728871  31.3159811  81.1129259 110.0256786  32.0149761  81.0193736
 111.4429887  31.7495955  81.4805507 114.0807669  41.5808663  84.1879812
 113.9293175  41.3519215  83.2709896 114.0712349  42.5379265  84.2011157
 110.8493005  39.1540576  79.1726079 111.7785065  39.3051736  78.9995046
 110.4284035  39.2424597  78.3174725 109.6481337  43.1791241  76.9424616
 109.5092423  42.8110025  77.8150555 108.8595933  43.6938880  76.7708574
 110.2429489  48.2800337  68.2850153 110.4181245  47.8088380  69.0995776
 109.5562277  48.9066103  68.5131414 111.1986552  42.5572843  74.3313454
 110.8636385  42.5173613  75.2271104 110.6990498  41.8917559  73.8583864
 105.1730796  37.9640473  79.8566035 105.0350594  37.2320712  80.4577574
 106.0835720  37.8749373  79.5750223 114.1345744  39.9028878  64.6050514
 113.5174915  39.1775706  64.5083567 113.6662233  40.6638238  64.2617588
 107.8013097  37.6760433  79.3449715 108.5112716  37.0353625  79.3036333
 107.7582405  37.9273327  80.2675896 115.7899876  44.6127786  82.2656294
 115.7312422  43.9287006  81.5986877 116.1919394  45.3546776  81.8136920
 106.5142031  34.6625650  81.1645355 105.9779388  34.2116389  81.8166951
 105.9258739  34.7971559  80.4215819 104.8090575  51.4289700  75.0590013
 105.0487173  52.0608224  75.7369032 103.9659771  51.0777740  75.3455372
 105.9244290  34.1214302  63.7271818 105.0473756  34.0003103  63.3634065
 106.4002043  33.3300380  63.4750707 115.7917283  42.5767370  80.4970274
 114.9044062  42.2393292  80.6196673 116.3615834  41.8450401  80.7339039
  97.4446430  38.9091462  73.8213325  98.1317470  38.5953192  73.2334341
  97.2894559  39.8132826  73.5480577 102.2481152  33.7981658  78.2498349
 102.1639341  33.1907328  77.5148759 101.4263859  34.2890676  78.2507845
 109.3218436  47.2368822  77.4631517 109.2488608  48.0423794  77.9750822
 108.8795829  47.4360788  76.6379539 109.1108216  46.4740592  70.9734339
 108.3275738  47.0162272  71.0672563 109.8100961  46.9914572  71.3728580
 112.4204866  32.2835222  73.6168544 112.9173566  31.5305184  73.2969614
 111.6491848  32.3199538  73.0511753 120.2734624  37.9875587  75.2586836
 120.2624500  38.8700303  74.8880769 119.4052003  37.6347138  75.0641373
 111.7817120  47.1355656  79.6189676 112.4945092  47.7703121  79.5465577
 111.2907149  47.2319522  78.8029678 113.5034647  41.0406909  71.1906967
 112.5690926  41.1608371  71.0211672 113.6811315  40.1379376  70.9266977
 109.0039835  34.4252605  73.3440229 108.6337622  33.8723645  74.0321134
 109.4998927  33.8210738  72.7915229 116.8907198  36.8824228  71.7257002
 117.3567650  37.7152220  71.6517304 117.3414699  36.4169210  72.4302260
 106.8329033  44.8850100  80.4395247 107.5338493  45.5186583  80.5924641
 106.3624148  45.2264831  79.6790886 114.9583429  43.2268049  68.7243154
 115.2343273  43.1124644  69.6337028 114.0887928  42.8285534  68.6855327
 114.8623861  29.2504815  75.7647903 113.9486941  29.4809042  75.9330110
 115.2916962  29.3343259  76.6161935 114.6330319  37.4394707  78.2647797
 113.9801770  37.6870615  77.6100250 115.0110699  36.6258845  77.9310274
 111.5937493  47.4754400  72.3675967 111.7759888  46.6576056  72.8303720
 112.4170479  47.6922093  71.9300857 111.9279659  46.4022585  69.6291016
 112.4567425  45.8915040  69.0161178 112.1907878  46.0865116  70.4936549
 110.6817892  38.1814518  84.7513834 110.0058529  38.0808648  85.4216209
 111.5045526  38.0253732  85.2149831 102.4296752  44.4186455  77.3726349
 103.0150188  43.6730143  77.5054254 102.2321590  44.7290411  78.2563013
 105.2835407  47.4537702  72.3888792 104.6145782  47.9383830  71.9052832
 105.1448276  47.7006923  73.3032170  97.0214406  36.9892055  76.0930792
  97.0598506  36.4555646  76.8867911  96.5154699  36.4627260  75.4741770
 109.4240675  49.4881446  78.9871450 109.9758983  49.6513067  79.7520535
 109.7646869  50.0785883  78.3151475 104.4005169  31.8356595  79.5893335
 104.4646495  32.6971426  79.1770732 104.3372289  31.2230597  78.8565693
 103.8757441  33.9079728  83.2366369 104.5029480  33.5256805  83.8503893
 103.0185360  33.6893930  83.6022062 114.2751550  44.3142703  84.8420104
 114.8191454  44.9272661  84.3475059 113.6938394  44.8722282  85.3587117
 100.6522984  35.7156157  69.1684724 100.9476425  34.8066835  69.1151778
  99.7511020  35.6943897  68.8465726 112.5609063  47.4363421  75.9735132
 112.4360202  46.6353161  75.4646078 113.2188154  47.9309615  75.4849102
 104.1817231  33.7912154  75.1512272 103.4603817  34.4048121  75.0119746
 104.9710487  34.3269918  75.0728918 114.6243971  45.2372441  77.6014682
 113.6774307  45.1177792  77.5293009 114.9726744  44.3494939  77.6840944
 106.9843544  31.1266580  81.4252924 107.5077946  31.3728877  82.1879234
 106.7655878  31.9586615  81.0056062 102.3810825  33.3970255  69.2924049
 102.0523532  32.5167634  69.1099155 102.7350196  33.3417923  70.1800438
 111.6290404  45.0325157  73.8019035 111.4815367  44.1041865  73.9826605
 112.4543898  45.0545248  73.3176110 105.4952649  33.6843225  69.6599527
 105.8348721  34.2129146  68.9378135 105.9424769  34.0223631  70.4358093
 115.2324526  45.8553716  74.8883907 116.1571074  45.6496578  74.7508358
 115.0639829  45.6070117  75.7973249 108.1896089  32.0680275  79.1102595
 107.8492910  31.2688088  79.5123275 107.4835096  32.3681986  78.5379428
 108.8412561  29.1529588  77.5629918 109.6638631  28.6790066  77.4408808
 109.0850625  29.9320071  78.0628604 107.4820796  32.1817846  67.8592819
 108.2029158  32.5599099  67.3556536 106.8586100  32.9006723  67.9627797
 111.6251919  32.8862995  68.7951152 111.8415533  33.7687633  68.4939980
 111.1445986  32.4949209  68.0656794 106.3651140  35.8448708  75.3721896
 106.2195721  36.1589011  76.2646178 105.8876344  36.4633609  74.8192795
 108.2247523  32.8351256  75.4202786 108.2109092  31.9392350  75.0835084
 108.9419951  32.8421920  76.0541072 110.0773654  33.2688597  77.4655913
 109.8191431  34.1905667  77.4640244 109.5458694  32.8719031  78.1556377
 115.0219842  46.3739384  70.2445999 115.1956720  45.8085806  69.4919851
 115.5148734  47.1740279  70.0625489 100.8396802  38.3854053  78.3109558
 100.2950270  39.1613861  78.4429832 101.7176152  38.7324857  78.1528679
 107.6284419  31.7165637  70.6890356 107.7500330  30.7882283  70.8881244
 107.3386461  31.7304323  69.7768671 110.4975609  29.4020547  73.8257076
 110.5197306  29.4659880  72.8709055 110.9143668  28.5625056  74.0197582
 120.8759233  39.1375807  71.8636298 121.3190380  38.3883132  71.4655422
 119.9985744  39.1285943  71.4810030 116.0095015  45.6906148  67.3442897
 116.7045919  46.3112841  67.5630212 116.3518165  44.8401499  67.6195275
 101.6262824  37.5123949  81.2039714 100.8844560  37.6606584  81.7904345
 101.3055568  37.7732215  80.3406464 117.9086438  43.1405854  68.8730228
 118.4337762  43.4793126  68.1479548 117.8208790  42.2052869  68.6893362
 109.5706487  47.0539927  81.0020104 109.8793613  46.8089074  81.8742804
 110.3681969  47.2586566  80.5138975 109.5927099  49.2077837  73.2325481
 109.1532089  48.7154216  73.9258338 110.3435216  48.6650805  72.9917556
 102.0719438  45.3989378  73.2350109 102.8977458  45.0993150  72.8548753
 101.7213490  44.6297000  73.6839898 107.0400971  44.7515846  75.3047783
 106.4180980  44.0886551  75.0050011 107.7105838  44.7776978  74.6221430
 100.2728043  43.3175704  74.1939043  99.4359951  42.8897879  74.0123044
 100.2451688  43.5108148  75.1309834 107.1125498  33.2297634  84.8980289
 107.1613654  34.1059757  84.5158058 107.6548013  32.6875027  84.3251932
 117.5980344  43.7738757  84.1781426 116.8075888  43.7562896  83.6385925
 117.3613699  44.3127051  84.9330462 117.7178219  40.6231224  81.4914154
 117.7676224  40.4581231  82.4329677 117.6092142  39.7558483  81.1012035
 106.6014478  43.3019769  68.7806243 106.7502598  43.9855234  68.1272916
 107.4080921  43.2824859  69.2955699 115.0081981  36.6062152  82.8073461
 115.9091844  36.4668616  82.5157459 115.0829956  36.7716606  83.7471638
 109.3424787  33.9829006  81.6526647 108.4728096  34.2762572  81.3809236
 109.5784267  34.5669451  82.3733911 119.2196416  43.0428165  81.7356176
 118.9281224  43.4058146  82.5719637 118.6068547  42.3295173  81.5569508
 120.4192098  40.6081045  74.2558746 121.2538990  41.0470849  74.4196306
 120.5551227  40.1319698  73.4366992 117.4683604  38.1660780  80.2036234
 117.9437726  38.3588426  79.3955085 116.5449169  38.2219966  79.9579617
 104.3567111  39.3284947  69.7867312 104.1113153  38.4247277  69.9847522
 104.5263025  39.3302097  68.8446790 112.0463821  30.2008623  79.1692068
 112.5645764  30.9369650  78.8438556 111.6918953  30.5072617  80.0038827
 103.6262758  35.0613305  67.2853474 102.9332003  35.1357659  66.6293510
 103.3814510  34.2973648  67.8074990 112.2976415  26.6208906  74.6892964
 112.5778169  25.9532095  75.3153391 113.0827022  26.8138001  74.1767628
 110.1009883  45.7967900  66.2517991 109.5283850  46.4158087  65.7988462
 110.6742677  46.3467261  66.7857913 116.1685273  35.0426540  78.4364539
 117.1202696  35.1424637  78.4576763 115.9988724  34.2504808  78.9462624
 114.1899653  32.1282123  78.6223940 113.5949585  32.4087136  77.9270429
 113.9049349  32.6176024  79.3940681 113.3207143  46.0805050  67.3826573
 114.2537816  46.0150612  67.5859448 113.2330356  46.9161317  66.9241106
 115.9495160  45.3970920  64.3430520 115.8708791  45.0630784  65.2366278
 116.7704827  45.8892688  64.3421993 118.6473351  38.2632660  77.5506839
 118.6149671  37.3248660  77.7366523 119.2573975  38.3416696  76.8172664
 110.4856682  37.1328712  63.5934043 111.4315786  37.0034921  63.6622461
 110.1070927  36.3943374  64.0703471 118.7967839  35.0543703  77.5965122
 118.2806888  34.2702160  77.4095051 119.6807788  34.7262420  77.7611642
 116.4578566  28.7984719  73.5560935 116.2603387  28.4899807  74.4404267
 117.0678272  29.5246357  73.6858865 110.3695374  41.1846459  85.0534700
 111.2898384  41.3625058  85.2474747 110.3344957  40.2402504  84.9014399
 108.6699599  35.0578689  63.5288928 107.7631054  34.7611802  63.6051642
 108.9475580  34.7608507  62.6623215  99.5877539  36.3785052  73.9787975
  99.2680324  35.5250360  73.6862349  99.0410967  36.5933630  74.7345942
 103.3657447  39.0947493  77.6957481 103.5843457  40.0264601  77.7145515
 103.7783221  38.7355468  78.4812285 110.2861665  29.6015579  69.6833170
 109.4762393  29.2562664  70.0588416 110.9746082  29.2923122  70.2720781
 112.2152213  28.6793625  71.3057466 112.7683252  29.0989079  71.9647489
 112.4522299  27.7529374  71.3480422 108.2385312  34.6680699  87.0860230
 108.1382039  35.6175056  87.0172321 108.0206854  34.3398938  86.2136300
 107.4398384  31.9165624  63.6700908 108.3017548  32.2420522  63.9296725
 107.6248728  31.1297120  63.1573973  99.4565799  39.9987964  75.9481096
  98.7629271  39.5841917  75.4351051 100.2038790  40.0408500  75.3514515
 115.5931020  30.7894151  70.8136131 115.0129689  31.4478955  70.4314183
 115.3266953  29.9671495  70.4023548 114.0434586  30.1899208  73.0157451
 114.5434365  30.3015743  72.2071770 114.6870194  29.8860261  73.6558259
 108.1016582  38.0977838  85.9025292 107.6183664  38.8978198  86.1089181
 108.1877521  38.1085783  84.9492736 101.3702542  39.9306218  73.8247111
 101.3473230  40.0293905  72.8728994 101.6803178  40.7771368  74.1464277
 104.0289920  41.9882373  77.9393726 104.9833173  41.9566315  77.8723657
 103.8302443  41.5272996  78.7543952 104.6189302  40.5583489  80.5064523
 105.4382191  41.0527567  80.5299361 104.8926110  39.6415457  80.4782091
 114.3755898  32.9494241  69.8692479 113.4881753  33.2343892  69.6512674
 114.7909887  32.7888004  69.0219756 117.7270434  32.9740762  73.5846818
 118.5030824  33.4637214  73.8571435 117.0018568  33.3998816  74.0418688
 120.1642993  33.6868381  74.6420759 120.7587484  33.4464117  73.9314067
 120.2369576  32.9675512  75.2694295 102.3840148  47.5301992  74.9563923
 102.2494616  46.7702393  74.3901922 101.9672211  48.2542892  74.4892712
 113.5199112  42.7138916  63.9640499 114.2234962  42.9188918  64.5798154
 112.7961760  43.2815678  64.2289582 114.3496922  38.4648777  70.0842769
 114.2932123  38.9217328  69.2450401 114.9025264  37.7039461  69.9065612
 118.1601728  34.2538509  70.9092888 117.9038662  33.8535144  71.7401096
 117.5354596  34.9682303  70.7843028 122.4714066  36.9934582  73.4164180
 121.9113624  37.0627771  74.1895742 121.8657569  36.8175567  72.6963676
 105.5409274  48.4271309  75.1682366 105.4241659  49.3716742  75.0661056
 104.7201721  48.1244871  75.5568165 115.4285809  43.1521445  66.0138959
 116.2631413  42.7202643  65.8316434 115.2670152  42.9803458  66.9415853
 115.0831701  39.6553558  67.3795298 115.0280505  39.4897830  66.4383742
 114.4577756  40.3629591  67.5357488  99.8724216  34.8921622  81.2056720
 100.5183080  34.3820576  81.6943946  99.6641367  35.6290304  81.7800146
 112.3977608  41.9602470  86.7048861 113.2668768  42.1343122  86.3435496
 111.9184360  42.7796887  86.5824590 108.3927827  29.1561667  66.9580617
 108.3806496  30.1003507  67.1148887 109.2851248  28.9731813  66.6640078
 106.5663788  49.0799571  78.3838295 107.4691035  49.1123181  78.7004790
 106.3401159  48.1500022  78.3984630 108.3217391  47.8330558  75.0448373
 107.3713022  47.8332419  74.9312745 108.6249877  47.0863292  74.5284408
 112.2079946  25.7504444  71.2126553 111.4412342  25.1962930  71.3583236
 112.6190651  25.8226313  72.0740705 104.2121707  32.0389240  85.3031735
 105.0753169  31.6826044  85.5135059 103.6387118  31.7003134  85.9907139
 120.8659790  53.6218524  76.0455660 120.5278302  53.5059589  75.1576195
 121.7349558  53.2209689  76.0256666 116.7246606  55.4754000  72.0352551
 116.1611471  55.3843937  71.2668839 116.6099001  54.6553905  72.5155044
 121.3479573  54.7753376  82.0041866 121.3368214  54.3806174  81.1322369
 121.5100213  54.0419448  82.5975637 114.2711038  56.9705192  74.8736772
 115.0632330  56.6296017  74.4583071 114.5107688  57.0800167  75.7938925
 116.2301792  56.2314105  67.7454150 117.0032668  55.6843092  67.6067026
 116.5827191  57.0958355  67.9568612 118.0686834  57.5590488  80.9521050
 117.7776700  58.4636118  80.8367716 118.7043819  57.6007015  81.6665119
 118.9943041  54.9367336  77.5422409 119.5906614  54.7123358  76.8279372
 119.0518013  54.1952082  78.1447857 118.5668070  52.3906771  65.3772600
 118.8193590  51.8688293  64.6156063 117.6292629  52.2272917  65.4799284
 118.2864358  54.2934877  67.5796975 118.1700617  53.6179781  68.2478060
 118.3966618  53.8067251  66.7629128 120.6295899  53.7545024  71.2843665
 120.2654107  53.2275645  71.9956586 121.4863015  53.3643494  71.1110150
 120.2701386  48.7834924  66.2805013 120.4375789  49.6515161  66.6475484
 120.0798555  48.9462206  65.3566302 116.4789201  53.6965700  73.9807548
 115.5539697  53.5641914  74.1885240 116.7273614  54.4759919  74.4777490
 120.2490607  51.2392582  67.2651680 120.1290232  51.6849632  68.1037160
 119.5543196  51.5877899  66.7065218 113.8398012  53.3398973  74.8151337
 113.9690393  53.5933452  75.7290749 113.1595463  53.9326681  74.4955992
 118.0097499  64.0096223  70.9141811 117.9321529  64.9604048  70.9930292
 117.4059143  63.6642096  71.5716737 120.5014729  51.1824089  83.5703178
 119.7248063  51.7418009  83.5606043 121.1405292  51.6680872  84.0918048
 118.7561101  53.9909542  83.1321145 119.4975786  54.5294586  82.8555969
 118.0498087  54.6175831  83.2892697 120.5847511  51.0711289  79.1026864
 121.4308706  51.4950703  79.2461513 120.5246149  50.4144914  79.7965427
 120.1073218  56.4314281  72.7495681 120.5711563  56.7101984  71.9600303
 119.8430016  55.5297726  72.5668771 116.9997299  55.9785763  75.6875444
 117.5698656  56.4073031  75.0492928 117.5905410  55.6968348  76.3859629
 119.0442104  52.5537434  69.5585246 119.7466147  53.0058477  70.0259172
 118.7122732  51.9121253  70.1865139 117.4922465  51.1449190  83.9336455
 116.8621126  51.8265471  84.1671852 117.3858553  51.0332272  82.9889593
 112.7867438  50.8120986  74.8602379 111.9966492  51.0678515  74.3842490
 113.2778685  51.6269324  74.9654420 114.7382183  51.1765566  71.8185856
 113.9413346  51.2884260  72.3369352 114.5107775  51.5152218  70.9526746
 120.5687851  57.7010269  79.7668371 120.6332283  58.1630676  80.6026542
 119.8598774  57.0707634  79.8950680 111.0705141  51.0651477  77.2917370
 111.3213179  51.9498487  77.5574946 111.6064689  50.8856078  76.5192462
 120.2835868  59.3678376  69.6347351 120.1481543  60.2129912  70.0632199
 120.8245681  59.5697654  68.8713285 116.7703208  45.4469956  86.2961706
 116.3770153  44.8936155  86.9709350 117.5869348  45.7580535  86.6868224
 113.7365266  56.8853814  70.2075276 114.2489786  57.6797065  70.3580841
 114.3887978  56.1880105  70.1408877 115.5460150  60.0019571  72.2898029
 115.7226779  60.9237535  72.1019013 116.3416984  59.6877990  72.7192409
 119.6871169  46.8627835  83.8881963 120.4280882  47.4634988  83.8086425
 119.9189092  46.1205473  83.3300005 114.8312507  52.0484203  82.1660192
 114.7166022  51.1469460  82.4667291 113.9757025  52.2947899  81.8145009
 116.6691466  61.5197744  78.2908371 117.2198891  61.3914808  77.5185365
 115.8302942  61.8192633  77.9403264 120.4658637  57.7848872  82.6352603
 120.9986974  57.0237160  82.4051911 119.9372718  57.4922524  83.3776757
 111.7014182  55.2142469  70.9834847 112.5389404  55.6239477  70.7668554
 111.8792450  54.2741911  70.9535040 121.1825726  47.7267250  71.7303918
 120.3267322  47.3374101  71.5509557 121.5952677  47.8059211  70.8703703
 118.9567758  45.3452323  75.1361659 119.8220755  45.1495132  74.7767549
 119.0245267  45.1162675  76.0631016 121.8311350  56.9134865  70.1471415
 121.3032711  56.1787624  69.8344652 121.3298852  57.6909541  69.9011383
 116.5630077  47.5754531  72.5078026 117.1373829  47.3529713  71.7751219
 117.1501060  47.6443226  73.2606627 116.8899664  49.6058992  66.5273911
 116.0536976  49.9433679  66.8483186 116.7504434  49.4707972  65.5901048
 118.8652745  44.4495780  71.2353096 118.2117157  44.1344797  70.6109710
 118.8233219  43.8271520  71.9612919 119.9763950  54.7315075  63.1506388
 119.0691011  54.5004328  63.3497537 120.4734982  53.9352694  63.3380369
 121.1552183  54.8327670  67.6730378 120.2463402  54.5486703  67.7702847
 121.1847267  55.2526748  66.8133685 111.7240354  52.5533184  71.6545580
 111.5264753  51.9602545  70.9296647 111.1687018  52.2485394  72.3721519
 119.7037077  52.4456291  73.7740173 119.7585687  51.4930127  73.6982650
 118.8928279  52.6015730  74.2581472 120.8528271  56.3736414  65.0118456
 120.4147701  55.6572273  64.5524094 121.5938712  56.6012528  64.4503548
 117.6429437  51.0633350  71.5330552 116.8297303  51.3627521  71.9395744
 118.1388431  50.6689039  72.2505034 119.7938015  61.0591107  73.4664817
 119.7514194  61.2851953  72.5373349 120.7100714  60.8254482  73.6150618
 117.1343512  48.6351706  77.1491787 117.7742891  48.4940465  76.4514750
 116.3021042  48.3486219  76.7730389 117.9103816  57.9354136  73.2626779
 118.7044414  57.4404456  73.0609354 117.1995508  57.4071999  72.8994485
 114.2186579  52.0797218  69.3386532 113.2884167  52.0181673  69.5556494
 114.3144051  51.5573171  68.5423173 114.1372128  48.6052031  71.9264774
 114.3978946  49.5197364  71.8173934 114.9589301  48.1376473  72.0761387
 115.6097054  50.0189788  79.0963598 116.2820107  49.8107150  78.4476247
 114.7826840  49.8211874  78.6568831 121.5122626  46.6451729  81.1129259
 120.8650541  47.3441679  81.0193736 122.2823641  47.0787873  81.4805507
 120.4875092  58.5083158  76.9424616 120.3486177  58.1401943  77.8150555
 119.6989688  59.0230798  76.7708574 121.0823244  63.6092255  68.2850153
 121.2574999  63.1380298  69.0995776 120.3956032  64.2358021  68.5131414
 122.0380307  57.8864761  74.3313454 121.7030140  57.8465531  75.2271104
 121.5384253  57.2209477  73.8583864 116.0124551  53.2932391  79.8566035
 115.8744349  52.5612630  80.4577574 116.9229474  53.2041291  79.5750223
 118.6406852  53.0052350  79.3449715 119.3506470  52.3645542  79.3036333
 118.5976160  53.2565245  80.2675896 117.3535786  49.9917568  81.1645355
 116.8173143  49.5408307  81.8166951 116.7652494  50.1263477  80.4215819
 115.6484329  66.7581617  75.0590013 115.8880927  67.3900142  75.7369032
 114.8053525  66.4069657  75.3455372 116.7638044  49.4506220  63.7271818
 115.8867511  49.3295020  63.3634065 117.2395798  48.6592298  63.4750707
 108.2840185  54.2383379  73.8213325 108.9711224  53.9245109  73.2334341
 108.1288313  55.1424744  73.5480577 113.0874907  49.1273576  78.2498349
 113.0033095  48.5199245  77.5148759 112.2657613  49.6182594  78.2507845
 120.1612191  62.5660740  77.4631517 120.0882362  63.3715711  77.9750822
 119.7189584  62.7652706  76.6379539 119.9501970  61.8032510  70.9734339
 119.1669492  62.3454190  71.0672563 120.6494716  62.3206490  71.3728580
 119.8433589  49.7544522  73.3440229 119.4731377  49.2015563  74.0321134
 120.3392682  49.1502656  72.7915229 117.6722788  60.2142017  80.4395247
 118.3732247  60.8478500  80.5924641 117.2017903  60.5556749  79.6790886
 121.5211647  53.5106436  84.7513834 120.8452284  53.4100565  85.4216209
 122.3439281  53.3545650  85.2149831 113.2690506  59.7478372  77.3726349
 113.8543943  59.0022060  77.5054254 113.0715344  60.0582329  78.2563013
 116.1229161  62.7829620  72.3888792 115.4539536  63.2675747  71.9052832
 115.9842031  63.0298840  73.3032170 107.8608161  52.3183973  76.0930792
 107.8992260  51.7847563  76.8867911 107.3548454  51.7919178  75.4741770
 120.2634430  64.8173363  78.9871450 120.8152738  64.9804985  79.7520535
 120.6040623  65.4077801  78.3151475 115.2398923  47.1648513  79.5893335
 115.3040250  48.0263344  79.1770732 115.1766043  46.5522515  78.8565693
 114.7151196  49.2371646  83.2366369 115.3423234  48.8548723  83.8503893
 113.8579114  49.0185848  83.6022062 111.4916738  51.0448075  69.1684724
 111.7870179  50.1358753  69.1151778 110.5904774  51.0235814  68.8465726
 115.0210985  49.1204071  75.1512272 114.2997571  49.7340039  75.0119746
 115.8104241  49.6561836  75.0728918 117.8237299  46.4558498  81.4252924
 118.3471701  46.7020794  82.1879234 117.6049632  47.2878533  81.0056062
 113.2204580  48.7262172  69.2924049 112.8917286  47.8459551  69.1099155
 113.5743951  48.6709841  70.1800438 116.3346403  49.0135142  69.6599527
 116.6742476  49.5421063  68.9378135 116.7818524  49.3515548  70.4358093
 119.0289844  47.3972193  79.1102595 118.6886664  46.5980006  79.5123275
 118.3228850  47.6973904  78.5379428 119.6806316  44.4821505  77.5629918
 120.5032385  44.0081984  77.4408808 119.9244379  45.2611989  78.0628604
 118.3214550  47.5109764  67.8592819 119.0422913  47.8891017  67.3556536
 117.6979854  48.2298641  67.9627797 117.2044894  51.1740626  75.3721896
 117.0589475  51.4880929  76.2646178 116.7270098  51.7925526  74.8192795
 119.0641277  48.1643174  75.4202786 119.0502846  47.2684267  75.0835084
 119.7813705  48.1713838  76.0541072 120.9167408  48.5980514  77.4655913
 120.6585186  49.5197585  77.4640244 120.3852448  48.2010949  78.1556377
 111.6790557  53.7145970  78.3109558 111.1344025  54.4905778  78.4429832
 112.5569906  54.0616775  78.1528679 118.4678173  47.0457554  70.6890356
 118.5894084  46.1174200  70.8881244 118.1780216  47.0596240  69.7768671
 121.3369364  44.7312465  73.8257076 121.3591060  44.7951798  72.8709055
 121.7537423  43.8916973  74.0197582 112.4656578  52.8415867  81.2039714
 111.7238315  52.9898502  81.7904345 112.1449323  53.1024132  80.3406464
 120.4100241  62.3831845  81.0020104 120.7187368  62.1380992  81.8742804
 121.2075723  62.5878483  80.5138975 120.4320853  64.5369755  73.2325481
 119.9925843  64.0446133  73.9258338 121.1828970  63.9942722  72.9917556
 112.9113192  60.7281295  73.2350109 113.7371212  60.4285067  72.8548753
 112.5607244  59.9588918  73.6839898 117.8794725  60.0807764  75.3047783
 117.2574735  59.4178469  75.0050011 118.5499592  60.1068896  74.6221430
 111.1121797  58.6467622  74.1939043 110.2753706  58.2189796  74.0123044
 111.0845443  58.8400065  75.1309834 117.9519253  48.5589552  84.8980289
 118.0007408  49.4351674  84.5158058 118.4941767  48.0166945  84.3251932
 117.4408232  58.6311687  68.7806243 117.5896353  59.3147151  68.1272916
 118.2474676  58.6116777  69.2955699 120.1818541  49.3120924  81.6526647
 119.3121851  49.6054490  81.3809236 120.4178022  49.8961369  82.3733911
 115.1960865  54.6576865  69.7867312 114.9506907  53.7539195  69.9847522
 115.3656780  54.6594015  68.8446790 114.4656513  50.3905222  67.2853474
 113.7725758  50.4649577  66.6293510 114.2208265  49.6265566  67.8074990
 120.9403638  61.1259817  66.2517991 120.3677605  61.7450005  65.7988462
 121.5136431  61.6759179  66.7857913 121.3250436  52.4620630  63.5934043
 122.2709541  52.3326838  63.6622461 120.9464681  51.7235292  64.0703471
 121.2089129  56.5138376  85.0534700 122.1292138  56.6916975  85.2474747
 121.1738712  55.5694422  84.9014399 119.5093353  50.3870607  63.5288928
 118.6024809  50.0903719  63.6051642 119.7869334  50.0900425  62.6623215
 110.4271294  51.7076970  73.9787975 110.1074078  50.8542278  73.6862349
 109.8804722  51.9225548  74.7345942 114.2051201  54.4239411  77.6957481
 114.4237211  55.3556519  77.7145515 114.6176975  54.0647385  78.4812285
 121.1255419  44.9307496  69.6833170 120.3156147  44.5854581  70.0588416
 121.8139836  44.6215040  70.2720781 119.0779067  49.9972617  87.0860230
 118.9775794  50.9466974  87.0172321 118.8600609  49.6690856  86.2136300
 118.2792138  47.2457542  63.6700908 119.1411302  47.5712440  63.9296725
 118.4642482  46.4589038  63.1573973 110.2959554  55.3279881  75.9481096
 109.6023025  54.9133834  75.4351051 111.0432545  55.3700418  75.3514515
 118.9410337  53.4269756  85.9025292 118.4577418  54.2270116  86.1089181
 119.0271276  53.4377700  84.9492736 112.2096296  55.2598135  73.8247111
 112.1866984  55.3585823  72.8728994 112.5196933  56.1063286  74.1464277
 114.8683674  57.3174290  77.9393726 115.8226928  57.2858233  77.8723657
 114.6696198  56.8564914  78.7543952 115.4583056  55.8875406  80.5064523
 116.2775945  56.3819485  80.5299361 115.7319864  54.9707374  80.4782091
 113.2233903  62.8593910  74.9563923 113.0888371  62.0994311  74.3901922
 112.8065965  63.5834810  74.4892712 116.3803029  63.7563227  75.1682366
 116.2635413  64.7008659  75.0661056 115.5595475  63.4536788  75.5568165
 110.7117971  50.2213540  81.2056720 111.3576834  49.7112494  81.6943946
 110.5035122  50.9582222  81.7800146 119.2321581  44.4853585  66.9580617
 119.2200251  45.4295425  67.1148887 120.1245003  44.3023730  66.6640078
 117.4057543  64.4091489  78.3838295 118.3084790  64.4415099  78.7004790
 117.1794913  63.4791940  78.3984630 119.1611145  63.1622475  75.0448373
 118.2106776  63.1624337  74.9312745 119.4643631  62.4155210  74.5284408
 115.0515462  47.3681157  85.3031735 115.9146923  47.0117962  85.5135059
 114.4780872  47.0295052  85.9907139 121.9098895  66.3943395  77.2917370
 122.1606933  67.2790404  77.5574946 122.4458443  66.2147996  76.5192462
 119.1233939  69.5675297  73.8213325 119.8104979  69.2537027  73.2334341
 118.9682068  70.4716662  73.5480577 118.7001915  67.6475890  76.0930792
 118.7386015  67.1139481  76.8867911 118.1942208  67.1211096  75.4741770
 121.9515552  73.9759540  74.1939043 121.1147460  73.5481714  74.0123044
 121.9239197  74.1691983  75.1309834 121.2665048  67.0368888  73.9787975
 120.9467833  66.1834196  73.6862349 120.7198476  67.2517466  74.7345942
 121.1353308  70.6571799  75.9481096 120.4416780  70.2425752  75.4351051
 121.8826299  70.6992336  75.3514515 121.5511725  65.5505458  81.2056720
 122.1970589  65.0404412  81.6943946 121.3428876  66.2874139  81.7800146
  96.3309992  10.3574511  57.6387118  96.2534021  11.3082336  57.7175598
  95.7271635  10.0120383  58.2962044  93.9696821  13.1059905  61.7835320
  94.2093420  13.7378429  62.4614338  93.1266018  12.7547945  62.0700679
  94.4441653   9.1307907  59.1134098  93.7752029   9.6154035  58.6298138
  94.3054523   9.3777127  60.0277477  98.5846922  11.1651651  65.7116757
  99.1365230  11.3283272  66.4765842  98.9253116  11.7556088  65.0396782
  98.7533345  10.8848042  59.9570788  98.3138336  10.3924420  60.6503644
  99.5041462  10.3421009  59.7162863  91.5446395   9.2072197  61.6809230
  91.4100863   8.4472598  61.1147228  91.1278458   9.9313097  61.2138019
  94.7015521  10.1041514  61.8927673  94.5847905  11.0486946  61.7906363
  93.8807967   9.8015076  62.2813472  95.7270035  10.7569776  65.1083601
  96.6297282  10.7893386  65.4250096  95.5007405   9.8270227  65.1229937
 110.0266037  15.2988729  62.7700967 109.6884549  15.1829794  61.8821502
 110.8955805  14.8979894  62.7501973 105.8852853  17.1524205  58.7597858
 105.3217718  17.0614142  57.9914146 105.7705248  16.3324110  59.2400350
 110.5085820  16.4523581  68.7287172 110.4974461  16.0576379  67.8567676
 110.6706460  15.7189653  69.3220944 103.4317285  18.6475397  61.5982078
 104.2238577  18.3066222  61.1828378 103.6713935  18.7570372  62.5184232
 111.4652411  20.8195173  54.0712323 110.8140391  21.4049253  53.6846337
 112.2596774  21.3501368  54.1307360 105.3908039  17.9084310  54.4699457
 106.1638915  17.3613297  54.3312333 105.7433437  18.7728560  54.6813919
 107.2293081  19.2360692  67.6766356 106.9382947  20.1406323  67.5613023
 107.8650066  19.2777220  68.3910426 108.1549288  16.6137541  64.2667716
 108.7512860  16.3893563  63.5524679 108.2124260  15.8722286  64.8693164
 107.7274316  14.0676976  52.1017907 107.9799837  13.5458498  51.3401370
 106.7898876  13.9043122  52.2044591 112.9427677  18.5085605  54.6081307
 112.3073510  18.5820232  55.3202212 112.6125083  19.0979204  53.9300386
 107.4470605  15.9705082  54.3042282 107.3306863  15.2949986  54.9723366
 107.5572865  15.4837456  53.4874435 109.7902146  15.4315229  58.0088971
 109.4260353  14.9045850  58.7201893 110.6469262  15.0413698  57.8355457
 112.1882966  18.9222108  64.6716150 111.8883689  19.8247147  64.5631957
 111.8434026  18.6554291  65.5237303 105.6395448  15.3735905  60.7052855
 104.7145944  15.2412119  60.9130546 105.8879861  16.1530124  61.2022797
 103.0004259  15.0169178  61.5396644 103.1296640  15.2703657  62.4536055
 102.3201710  15.6096886  61.2201299 107.1703746  25.6866428  57.6387118
 107.0927776  26.6374253  57.7175598 106.5665390  25.3412301  58.2962044
 107.9167348  15.6679747  69.8566452 108.6582033  16.2064791  69.5801275
 107.2104334  16.2946036  70.0138003 113.3922688  17.8108888  68.4538613
 113.8006044  17.3691298  67.7093246 112.6699949  17.2361515  68.7072806
 113.7151502  18.3710078  62.2090902 113.0860365  18.5355792  61.5066970
 113.3277165  18.7851688  62.9801866 117.5940734  19.3064516  59.5635266
 116.9091772  19.6863417  59.0132299 117.6784584  19.9159843  60.2967214
 114.8491666  16.9524475  66.1630609 115.0608561  17.5956235  65.4864990
 114.8021414  16.1186792  65.6952539 109.2679464  18.1084486  59.4740987
 109.7317810  18.3872189  58.6845610 109.0036262  17.2067931  59.2914078
 106.1603545  17.6555968  62.4120750 106.7304902  18.0843236  61.7738235
 106.7511657  17.3738553  63.1104936 108.2048350  14.2307639  56.2830552
 108.9072394  14.6828682  56.7504479 107.8728979  13.5891458  56.9110445
 106.6528712  12.8219395  70.6581762 106.0227372  13.5035676  70.8917159
 106.5464800  12.7102477  69.7134900 101.9473684  12.4891191  61.5847686
 101.1572738  12.7448720  61.1087796 102.4384932  13.3039529  61.6899726
 115.9637494  19.8296431  64.3352967 116.7854938  19.4276618  64.0535648
 115.9599897  19.7264665  65.2869082 103.8988430  12.8535771  58.5431163
 103.1019593  12.9654465  59.0614658 103.6714022  13.1922423  57.6772053
 109.7294097  19.3780474  66.4913677 109.7938530  19.8400881  67.3271849
 109.0205021  18.7477839  66.6195987 100.2311387  12.7421682  64.0162677
 100.4819426  13.6268692  64.2820253 100.7670936  12.5626283  63.2437768
 109.4442115  21.0448581  56.3592658 109.3087790  21.8900117  56.7877505
 109.9851927  21.2467859  55.5958591 102.8971512  18.5624019  56.9320583
 103.4096033  19.3567270  57.0826147 103.5494225  17.8650310  56.8654184
 104.7066397  21.6789776  59.0143336 104.8833025  22.6007740  58.8264320
 105.5023231  21.3648195  59.4437716 103.9918754  13.7254407  68.8905499
 103.8772269  12.8239665  69.1912598 103.1363271  13.9718104  68.5390316
 111.0710591  21.6672148  70.4893000 110.6274446  20.8808526  70.1713904
 111.7327805  21.8551298  69.8236890 105.8297713  23.1967949  65.0153678
 106.3805138  23.0685013  64.2430672 104.9909188  23.4962838  64.6648571
 113.1691829  21.9474948  68.5174401 113.1510305  22.7683829  68.0254670
 114.0911749  21.8229023  68.7424542 109.6264884  19.4619077  69.3597909
 110.1593220  18.7007365  69.1297217 109.0978965  19.1692729  70.1022064
 100.8620429  16.8912674  57.7080153 101.6995651  17.3009682  57.4913861
 101.0398697  15.9512116  57.6780347 117.7319135  17.3120109  55.3317160
 116.9548578  16.9731268  54.8872322 118.4110616  17.3172732  54.6572125
 110.9917596  18.5905070  56.8716721 110.4638958  17.8557829  56.5589959
 110.4905099  19.3679746  56.6256690 115.9710442  16.7854090  61.9883768
 115.3134117  17.4753352  62.0763896 116.7750842  17.1750522  62.3317754
 109.1370196  16.4085280  49.8751694 108.2297258  16.1774533  50.0742843
 109.6341228  15.6122899  50.0625676 112.0438275  25.1182787  52.7948380
 111.3699974  25.4214484  53.4033338 112.4304097  25.9211867  52.4453838
 110.3158430  16.5097875  54.3975684 109.4069649  16.2256908  54.4948154
 110.3453514  16.9296953  53.5378991 115.5477697  20.1204464  58.1666852
 115.0940024  19.2795374  58.2232042 114.9171664  20.7565863  58.5041632
 113.9910637  21.9580961  59.1016670 114.2833611  22.5186018  58.3829036
 114.5009257  22.2509522  59.8569829 100.8846600  14.2303389  58.3790887
 100.6871000  13.6372750  57.6541953 100.3293264  13.9255599  59.0966825
 110.0134518  18.0506618  51.7363763 109.5753948  17.3342477  51.2769400
 110.7544959  18.2782733  51.1748854 108.9544262  22.7361312  60.1910123
 108.9120441  22.9622158  59.2618655 109.8706961  22.5024687  60.3395924
 118.1577012  18.3940343  62.8051353 118.5913519  18.3015632  63.6534407
 118.8708593  18.3697843  62.1671369 107.0710063  19.6124341  59.9872086
 107.8650661  19.1174661  59.7854661 106.3601755  19.0842204  59.6239792
 111.8904907  21.9942437  64.3384454 111.9441929  22.5633373  65.1062170
 111.0219688  22.1644322  63.9738491 103.3792826  13.7567423  56.0631839
 102.4490414  13.6951878  56.2801801 103.4750298  13.2343376  55.2668480
 119.0192562  18.4364043  65.3384238 119.2128452  19.3409854  65.5843513
 118.9193180  17.9771462  66.1722823 114.0807670  18.5870786  70.9125119
 113.9293177  18.3581338  69.9955203 114.0712350  19.5441387  70.9256464
 110.8493007  16.1602699  65.8971385 111.7785067  16.3113858  65.7240353
 110.4284037  16.2486719  65.0420032 109.6481339  20.1853363  63.6669923
 109.5092424  19.8172148  64.5395861 108.8595935  20.7001003  63.4953881
 110.2429490  25.2862460  55.0095460 110.4181246  24.8150503  55.8241082
 109.5562279  25.9128226  55.2376720 111.1986554  19.5634966  61.0558761
 110.8636386  19.5235736  61.9516411 110.6990499  18.8979682  60.5829171
 105.1730798  14.9702596  66.5811342 105.0350596  14.2382835  67.1822881
 106.0835721  14.8811496  66.2995530 114.1345745  16.9091000  51.3295821
 113.5174916  16.1837828  51.2328873 113.6662234  17.6700360  50.9862895
 107.8013098  14.6822555  66.0695022 108.5112717  14.0415747  66.0281640
 107.7582406  14.9335450  66.9921202 115.7899877  21.6189908  68.9901601
 115.7312423  20.9349129  68.3232184 116.1919395  22.3608898  68.5382227
 104.8090576  28.4351822  61.7835320 105.0487174  29.0670346  62.4614338
 103.9659772  28.0839862  62.0700679 115.7917284  19.5829492  67.2215581
 114.9044063  19.2455414  67.3441979 116.3615835  18.8512524  67.4584346
  97.4446431  15.9153584  60.5458632  98.1317471  15.6015314  59.9579647
  97.2894560  16.8194949  60.2725883 109.3218438  24.2430945  64.1876824
 109.2488609  25.0485916  64.6996128 108.8795831  24.4422911  63.3624845
 109.1108217  23.4802715  57.6979645 108.3275739  24.0224395  57.7917870
 109.8100962  23.9976694  58.0973887 111.7817121  24.1417779  66.3434982
 112.4945093  24.7765244  66.2710884 111.2907150  24.2381645  65.5274984
 113.5034648  18.0469031  57.9152274 112.5690927  18.1670494  57.7456978
 113.6811317  17.1441498  57.6512284 106.8329035  21.8912222  67.1640553
 107.5338494  22.5248705  67.3169947 106.3624150  22.2326954  66.4036193
 114.9583431  20.2330172  55.4488460 115.2343274  20.1186767  56.3582334
 114.0887929  19.8347657  55.4100633 111.5937495  24.4816523  59.0921274
 111.7759889  23.6638179  59.5549026 112.4170481  24.6984215  58.6546164
 111.9279660  23.4084708  56.3536322 112.4567426  22.8977163  55.7406485
 112.1907880  23.0927238  57.2181855 110.6817894  15.1876641  71.4759141
 110.0058531  15.0870770  72.1461516 111.5045528  15.0315855  71.9395138
 102.4296753  21.4248577  64.0971656 103.0150190  20.6792265  64.2299560
 102.2321591  21.7352534  64.9808320 105.2835408  24.4599825  59.1134098
 104.6145783  24.9445952  58.6298138 105.1448278  24.7069045  60.0277477
  97.0214407  13.9954178  62.8176099  97.0598507  13.4617768  63.6113217
  96.5154700  13.4689383  62.1987076 109.4240677  26.4943568  65.7116757
 109.9758985  26.6575190  66.4765842 109.7646870  27.0848006  65.0396782
 114.2751551  21.3204826  71.5665411 114.8191455  21.9334784  71.0720366
 113.6938396  21.8784404  72.0832424 100.6522985  12.7218280  55.8930030
 100.9476426  11.8128958  55.8397084  99.7511021  12.7006019  55.5711033
 112.5609064  24.4425544  62.6980439 112.4360203  23.6415284  62.1891384
 113.2188155  24.9371737  62.2094409 114.6243972  22.2434564  64.3259989
 113.6774308  22.1239915  64.2538316 114.9726745  21.3557062  64.4086250
 111.6290406  22.0387280  60.5264341 111.4815368  21.1103987  60.7071911
 112.4543899  22.0607371  60.0421416 115.2324527  22.8615839  61.6129214
 116.1571075  22.6558700  61.4753665 115.0639831  22.6132240  62.5218555
 106.3651141  12.8510831  62.0967203 106.2195722  13.1651134  62.9891485
 105.8876345  13.4695731  61.5438102 115.0219844  23.3801506  56.9691305
 115.1956721  22.8147929  56.2165158 115.5148735  24.1802401  56.7870795
 100.8396803  15.3916175  65.0354864 100.2950271  16.1675983  65.1675139
 101.7176153  15.7386980  64.8773986 116.0095016  22.6968271  54.0688204
 116.7045921  23.3174963  54.2875518 116.3518166  21.8463622  54.3440582
 101.6262825  14.5186072  67.9285021 100.8844561  14.6668707  68.5149651
 101.3055570  14.7794337  67.0651770 117.9086439  20.1467976  55.5975534
 118.4337763  20.4855249  54.8724854 117.8208792  19.2114991  55.4138669
 109.5706488  24.0602050  67.7265411 109.8793614  23.8151197  68.5988111
 110.3681970  24.2648688  67.2384281 109.5927100  26.2139959  59.9570788
 109.1532090  25.7216338  60.6503644 110.3435217  25.6712927  59.7162863
 102.0719439  22.4051500  59.9595416 102.8977459  22.1055272  59.5794059
 101.7213491  21.6359123  60.4085204 107.0400972  21.7577969  62.0293089
 106.4180981  21.0948674  61.7295317 107.7105839  21.7839100  61.3466737
 100.2728044  20.3237827  60.9184349  99.4359952  19.8960001  60.7368351
 100.2451689  20.5170270  61.8555140 117.5980345  20.7800880  70.9026732
 116.8075889  20.7625019  70.3631232 117.3613700  21.3189174  71.6575769
 117.7178220  17.6293346  68.2159461 117.7676225  17.4643354  69.1574984
 117.6092144  16.7620605  67.8257342 106.6014479  20.3081892  55.5051550
 106.7502599  20.9917356  54.8518223 107.4080922  20.2886982  56.0201006
 119.2196417  20.0490288  68.4601482 118.9281225  20.4120268  69.2964943
 118.6068548  19.3357296  68.2814815 104.3567112  16.3347070  56.5112619
 104.1113154  15.4309400  56.7092829 104.5263027  16.3364220  55.5692097
 110.1009885  22.8030022  52.9763297 109.5283852  23.4220209  52.5233769
 110.6742678  23.3529384  53.5103219 113.3207144  23.0867172  54.1071880
 114.2537817  23.0212734  54.3104755 113.2330357  23.9223439  53.6486412
 115.9495161  22.4033043  51.0675827 115.8708793  22.0692906  51.9611585
 116.7704828  22.8954811  51.0667299 110.3695376  18.1908581  71.7780007
 111.2898385  18.3687180  71.9720053 110.3344959  17.2464627  71.6259706
  99.5877541  13.3847175  60.7033281  99.2680325  12.5312483  60.4107655
  99.0410969  13.5995753  61.4591249 103.3657448  16.1009616  64.4202788
 103.5843458  17.0326724  64.4390822 103.7783222  15.7417590  65.2057592
  99.4565801  17.0050086  62.6726403  98.7629272  16.5904039  62.1596357
 100.2038792  17.0470623  62.0759822 108.1016583  15.1039960  72.6270598
 107.6183665  15.9040321  72.8334487 108.1877523  15.1147905  71.6738042
 101.3702543  16.9368340  60.5492418 101.3473231  17.0356027  59.5974301
 101.6803180  17.7833491  60.8709584 104.0289921  18.9944495  64.6639032
 104.9833175  18.9628438  64.5968964 103.8302445  18.5335119  65.4789258
 104.6189303  17.5645611  67.2309830 105.4382192  18.0589690  67.2544667
 104.8926111  16.6477579  67.2027397 102.3840150  24.5364115  61.6809230
 102.2494618  23.7764516  61.1147228 101.9672212  25.2605015  61.2138019
 113.5199113  19.7201038  50.6885805 114.2234963  19.9251041  51.3043461
 112.7961762  20.2877800  50.9534889 105.5409276  25.4333432  61.8927673
 105.4241660  26.3778864  61.7906363 104.7201722  25.1306993  62.2813472
 115.4285810  20.1583567  52.7384265 116.2631414  19.7264766  52.5561740
 115.2670153  19.9865581  53.6661160 115.0831702  16.6615681  54.1040605
 115.0280506  16.4959952  53.1629049 114.4577758  17.3691714  54.2602794
  99.8724217  11.8983745  67.9302027 100.5183081  11.3882699  68.4189252
  99.6641368  12.6352427  68.5045452 112.3977610  18.9664593  73.4294168
 113.2668769  19.1405245  73.0680802 111.9184361  19.7859009  73.3069897
 106.5663790  26.0861694  65.1083601 107.4691036  26.1185304  65.4250096
 106.3401160  25.1562145  65.1229937 108.3217392  24.8392680  61.7693680
 107.3713023  24.8394542  61.6558052 108.6249878  24.0925415  61.2529714
 120.8659792  30.6280647  62.7700967 120.5278303  30.5121711  61.8821502
 121.7349560  30.2271812  62.7501973 116.7246607  32.4816123  58.7597858
 116.1611472  32.3906060  57.9914146 116.6099002  31.6616027  59.2400350
 121.3479575  31.7815498  68.7287172 121.3368215  31.3868297  67.8567676
 121.5100214  31.0481571  69.3220944 114.2711039  33.9767315  61.5982078
 115.0632331  33.6358139  61.1828378 114.5107689  34.0862290  62.5184232
 116.2301793  33.2376228  54.4699457 117.0032669  32.6905215  54.3312333
 116.5827192  34.1020477  54.6813919 118.0686836  34.5652610  67.6766356
 117.7776702  35.4698241  67.5613023 118.7043820  34.6069138  68.3910426
 118.9943043  31.9429459  64.2667716 119.5906615  31.7185481  63.5524679
 119.0518014  31.2014204  64.8693164 118.5668071  29.3968894  52.1017907
 118.8193592  28.8750415  51.3401370 117.6292630  29.2335039  52.2044591
 118.2864360  31.2997000  54.3042282 118.1700618  30.6241903  54.9723366
 118.3966620  30.8129374  53.4874435 120.6295901  30.7607147  58.0088971
 120.2654108  30.2337768  58.7201893 121.4863017  30.3705616  57.8355457
 120.2701388  25.7897047  53.0050320 120.4375790  26.6577283  53.3720791
 120.0798557  25.9524328  52.0811609 116.4789202  30.7027823  60.7052855
 115.5539699  30.5704037  60.9130546 116.7273615  31.4822042  61.2022797
 120.2490608  28.2454704  53.9896987 120.1290234  28.6911755  54.8282467
 119.5543197  28.5940022  53.4310525 113.8398013  30.3461096  61.5396644
 113.9690394  30.5995575  62.4536055 113.1595465  30.9388804  61.2201299
 118.0097501  41.0158346  57.6387118 117.9321530  41.9666171  57.7175598
 117.4059144  40.6704219  58.2962044 120.5014730  28.1886211  70.2948485
 119.7248064  28.7480132  70.2851349 121.1405293  28.6742994  70.8163355
 118.7561103  30.9971665  69.8566452 119.4975787  31.5356709  69.5801275
 118.0498088  31.6237954  70.0138003 120.5847512  28.0773412  65.8272170
 121.4308708  28.5012826  65.9706819 120.5246150  27.4207036  66.5210733
 120.1073219  33.4376404  59.4740987 120.5711564  33.7164107  58.6845610
 119.8430017  32.5359849  59.2914078 116.9997300  32.9847886  62.4120750
 117.5698657  33.4135154  61.7738235 117.5905412  32.7030470  63.1104936
 119.0442105  29.5599556  56.2830552 119.7466148  30.0120600  56.7504479
 118.7122733  28.9183375  56.9110445 117.4922466  28.1511313  70.6581762
 116.8621127  28.8327594  70.8917159 117.3858554  28.0394395  69.7134900
 112.7867439  27.8183109  61.5847686 111.9966493  28.0740638  61.1087796
 113.2778686  28.6331447  61.6899726 114.7382184  28.1827688  58.5431163
 113.9413347  28.2946383  59.0614658 114.5107776  28.5214340  57.6772053
 120.5687852  34.7072391  66.4913677 120.6332284  35.1692799  67.3271849
 119.8598776  34.0769756  66.6195987 111.0705142  28.0713599  64.0162677
 111.3213180  28.9560609  64.2820253 111.6064690  27.8918201  63.2437768
 120.2835869  36.3740499  56.3592658 120.1481544  37.2192035  56.7877505
 120.8245682  36.5759777  55.5958591 116.7703209  22.4532079  73.0207013
 116.3770155  21.8998277  73.6954657 117.5869349  22.7642657  73.4113530
 113.7365267  33.8915937  56.9320583 114.2489787  34.6859187  57.0826147
 114.3887980  33.1942227  56.8654184 115.5460152  37.0081693  59.0143336
 115.7226780  37.9299658  58.8264320 116.3416985  36.6940112  59.4437716
 119.6871170  23.8689958  70.6127269 120.4280883  24.4697111  70.5331732
 119.9189093  23.1267596  70.0545312 114.8312508  29.0546325  68.8905499
 114.7166023  28.1531582  69.1912598 113.9757026  29.3010022  68.5390316
 116.6691467  38.5259867  65.0153678 117.2198892  38.3976930  64.2430672
 115.8302943  38.8254756  64.6648571 120.4658638  34.7910995  69.3597909
 120.9986975  34.0299283  69.1297217 119.9372719  34.4984647  70.1022064
 111.7014184  32.2204591  57.7080153 112.5389406  32.6301600  57.4913861
 111.8792451  31.2804033  57.6780347 121.1825727  24.7329373  58.4549224
 120.3267323  24.3436223  58.2754863 121.5952679  24.8121334  57.5949010
 118.9567759  22.3514446  61.8606966 119.8220756  22.1557254  61.5012855
 119.0245268  22.1224797  62.7876323 121.8311351  33.9196987  56.8716721
 121.3032712  33.1849747  56.5589959 121.3298854  34.6971664  56.6256690
 116.5630078  24.5816654  59.2323333 117.1373830  24.3591835  58.4996526
 117.1501061  24.6505348  59.9851934 116.8899665  26.6121115  53.2519218
 116.0536978  26.9495801  53.5728493 116.7504435  26.4770094  52.3146355
 118.8652746  21.4557903  57.9598402 118.2117158  21.1406920  57.3355017
 118.8233220  20.8333643  58.6858225 119.9763951  31.7377198  49.8751694
 119.0691013  31.5066451  50.0742843 120.4734983  30.9414817  50.0625676
 121.1552184  31.8389793  54.3975684 120.2463404  31.5548825  54.4948154
 121.1847268  32.2588871  53.5378991 111.7240355  29.5595307  58.3790887
 111.5264755  28.9664667  57.6541953 111.1687019  29.2547517  59.0966825
 119.7037078  29.4518413  60.4985480 119.7585688  28.4992250  60.4227956
 118.8928280  29.6077852  60.9826778 120.8528272  33.3798536  51.7363763
 120.4147702  32.6634395  51.2769400 121.5938713  33.6074651  51.1748854
 117.6429438  28.0695473  58.2575859 116.8297304  28.3689643  58.6641051
 118.1388433  27.6751162  58.9750341 119.7938016  38.0653230  60.1910123
 119.7514195  38.2914076  59.2618655 120.7100715  37.8316604  60.3395924
 117.1343513  25.6413828  63.8737094 117.7742892  25.5002587  63.1760057
 116.3021044  25.3548342  63.4975696 117.9103817  34.9416259  59.9872086
 118.7044416  34.4466579  59.7854661 117.1995509  34.4134122  59.6239792
 114.2186580  29.0859341  56.0631839 113.2884169  29.0243796  56.2801801
 114.3144052  28.5635293  55.2668480 114.1372130  25.6114153  58.6510080
 114.3978947  26.5259487  58.5419241 114.9589302  25.1438596  58.8006693
 115.6097055  27.0251911  65.8208905 116.2820108  26.8169273  65.1721554
 114.7826841  26.8273997  65.3814137 121.5122627  23.6513851  67.8374566
 120.8650542  24.3503801  67.7439042 122.2823642  24.0849995  68.2050814
 120.4875093  35.5145281  63.6669923 120.3486179  35.1464065  64.5395861
 119.6989689  36.0292920  63.4953881 121.0823245  40.6154377  55.0095460
 121.2575001  40.1442420  55.8241082 120.3956033  41.2420143  55.2376720
 122.0380308  34.8926883  61.0558761 121.7030141  34.8527653  61.9516411
 121.5384254  34.2271599  60.5829171 116.0124552  30.2994514  66.5811342
 115.8744350  29.5674752  67.1822881 116.9229476  30.2103414  66.2995530
 118.6406853  30.0114473  66.0695022 119.3506471  29.3707665  66.0281640
 118.5976161  30.2627368  66.9921202 117.3535787  26.9979691  67.8890661
 116.8173144  26.5470429  68.5412258 116.7652495  27.1325600  67.1461126
 115.6484330  43.7643740  61.7835320 115.8880928  44.3962264  62.4614338
 114.8053527  43.4131780  62.0700679 116.7638046  26.4568342  50.4517125
 115.8867512  26.3357143  50.0879371 117.2395799  25.6654420  50.1996013
 108.2840186  31.2445502  60.5458632 108.9711226  30.9307232  59.9579647
 108.1288315  32.1486866  60.2725883 113.0874908  26.1335698  64.9743656
 113.0033097  25.5261368  64.2394066 112.2657614  26.6244717  64.9753152
 120.1612192  39.5722862  64.1876824 120.0882364  40.3777834  64.6996128
 119.7189585  39.7714828  63.3624845 119.9501972  38.8094632  57.6979645
 119.1669494  39.3516313  57.7917870 120.6494717  39.3268612  58.0973887
 119.8433591  26.7606645  60.0685535 119.4731378  26.2077685  60.7566441
 120.3392683  26.1564778  59.5160535 117.6722789  37.2204140  67.1640553
 118.3732249  37.8540623  67.3169947 117.2017904  37.5618871  66.4036193
 121.5211648  30.5168558  71.4759141 120.8452285  30.4162688  72.1461516
 122.3439282  30.3607772  71.9395138 113.2690507  36.7540495  64.0971656
 113.8543944  36.0084183  64.2299560 113.0715346  37.0644452  64.9808320
 116.1229162  39.7891742  59.1134098 115.4539538  40.2737870  58.6298138
 115.9842032  40.0360963  60.0277477 107.8608162  29.3246095  62.8176099
 107.8992261  28.7909686  63.6113217 107.3548455  28.7981301  62.1987076
 120.2634431  41.8235486  65.7116757 120.8152739  41.9867107  66.4765842
 120.6040625  42.4139924  65.0396782 115.2398924  24.1710636  66.3138641
 115.3040251  25.0325467  65.9016039 115.1766045  23.5584637  65.5811000
 114.7151197  26.2433768  69.9611676 115.3423236  25.8610846  70.5749200
 113.8579116  26.0247970  70.3267368 111.4916740  28.0510197  55.8930030
 111.7870181  27.1420876  55.8397084 110.5904775  28.0297937  55.5711033
 115.0210987  26.1266194  61.8757579 114.2997572  26.7402162  61.7365052
 115.8104242  26.6623959  61.7974225 117.8237300  23.4620620  68.1498231
 118.3471702  23.7082917  68.9124540 117.6049633  24.2940655  67.7301368
 113.2204581  25.7324295  56.0169356 112.8917287  24.8521674  55.8344462
 113.5743952  25.6771964  56.9045745 116.3346404  26.0197265  56.3844833
 116.6742477  26.5483186  55.6623442 116.7818525  26.3577671  57.1603400
 119.0289845  24.4034316  65.8347901 118.6886665  23.6042129  66.2368581
 118.3228851  24.7036026  65.2624735 119.6806317  21.4883628  64.2875224
 120.5032386  21.0144106  64.1654115 119.9244380  22.2674112  64.7873911
 118.3214551  24.5171886  54.5838126 119.0422914  24.8953139  54.0801843
 117.6979856  25.2360763  54.6873104 117.2044896  28.1802749  62.0967203
 117.0589476  28.4943052  62.9891485 116.7270099  28.7987649  61.5438102
 119.0641279  25.1705297  62.1448093 119.0502847  24.2746390  61.8080391
 119.7813707  25.1775960  62.7786379 120.9167409  25.6042637  64.1901220
 120.6585187  26.5259707  64.1885550 120.3852450  25.2073071  64.8801684
 111.6790558  30.7208093  65.0354864 111.1344026  31.4967901  65.1675139
 112.5569908  31.0678897  64.8773986 118.4678175  24.0519677  57.4135663
 118.5894086  23.1236323  57.6126550 118.1780217  24.0658363  56.5013978
 121.3369365  21.7374587  60.5502383 121.3591062  21.8013920  59.5954362
 121.7537424  20.8979096  60.7442889 112.4656580  29.8477989  67.9285021
 111.7238316  29.9960625  68.5149651 112.1449324  30.1086255  67.0651770
 120.4100242  39.3893967  67.7265411 120.7187369  39.1443114  68.5988111
 121.2075724  39.5940606  67.2384281 120.4320854  41.5431877  59.9570788
 119.9925845  41.0508256  60.6503644 121.1828971  41.0004845  59.7162863
 112.9113193  37.7343418  59.9595416 113.7371213  37.4347190  59.5794059
 112.5607245  36.9651040  60.4085204 117.8794727  37.0869886  62.0293089
 117.2574736  36.4240591  61.7295317 118.5499593  37.1131018  61.3466737
 111.1121798  35.6529744  60.9184349 110.2753707  35.2251919  60.7368351
 111.0845444  35.8462188  61.8555140 117.9519254  25.5651674  71.6225595
 118.0007410  26.4413797  71.2403365 118.4941768  25.0229067  71.0497239
 117.4408233  35.6373810  55.5051550 117.5896354  36.3209274  54.8518223
 118.2474677  35.6178900  56.0201006 120.1818543  26.3183047  68.3771954
 119.3121852  26.6116613  68.1054542 120.4178023  26.9023492  69.0979218
 115.1960866  31.6638987  56.5112619 114.9506908  30.7601317  56.7092829
 115.3656781  31.6656138  55.5692097 114.4656514  27.3967345  54.0098780
 113.7725759  27.4711700  53.3538816 114.2208266  26.6327688  54.5320297
 120.9403639  38.1321940  52.9763297 120.3677606  38.7512127  52.5233769
 121.5136433  38.6821302  53.5103219 121.3250438  29.4682753  50.3179350
 122.2709542  29.3388961  50.3867768 120.9464682  28.7297415  50.7948778
 121.2089130  33.5200499  71.7780007 122.1292140  33.6979098  71.9720053
 121.1738713  32.5756544  71.6259706 119.5093355  27.3932729  50.2534235
 118.6024810  27.0965842  50.3296949 119.7869336  27.0962547  49.3868521
 110.4271295  28.7139093  60.7033281 110.1074079  27.8604401  60.4107655
 109.8804723  28.9287671  61.4591249 114.2051203  31.4301534  64.4202788
 114.4237212  32.3618641  64.4390822 114.6176976  31.0709508  65.2057592
 121.1255420  21.9369619  56.4078476 120.3156149  21.5916704  56.7833722
 121.8139837  21.6277163  56.9966088 119.0779068  27.0034739  73.8105537
 118.9775795  27.9529096  73.7417628 118.8600610  26.6752978  72.9381607
 118.2792139  24.2519664  50.3946214 119.1411303  24.5774563  50.6542032
 118.4642483  23.4651160  49.8819280 110.2959555  32.3342004  62.6726403
 109.6023026  31.9195957  62.1596357 111.0432546  32.3762541  62.0759822
 118.9410338  30.4331878  72.6270598 118.4577420  31.2332238  72.8334487
 119.0271277  30.4439823  71.6738042 112.2096298  32.2660258  60.5492418
 112.1866986  32.3647945  59.5974301 112.5196934  33.1125409  60.8709584
 114.8683675  34.3236413  64.6639032 115.8226929  34.2920355  64.5968964
 114.6696199  33.8627037  65.4789258 115.4583058  32.8937529  67.2309830
 116.2775947  33.3881608  67.2544667 115.7319865  31.9769497  67.2027397
 113.2233904  39.8656032  61.6809230 113.0888372  39.1056433  61.1147228
 112.8065967  40.5896932  61.2138019 116.3803030  40.7625349  61.8927673
 116.2635414  41.7070782  61.7906363 115.5595476  40.4598911  62.2813472
 110.7117972  27.2275663  67.9302027 111.3576835  26.7174617  68.4189252
 110.5035123  27.9644344  68.5045452 119.2321582  21.4915707  53.6825923
 119.2200252  22.4357547  53.8394194 120.1245004  21.3085853  53.3885384
 117.4057544  41.4153611  65.1083601 118.3084791  41.4477222  65.4250096
 117.1794914  40.4854062  65.1229937 119.1611146  40.1684598  61.7693680
 118.2106777  40.1686459  61.6558052 119.4643632  39.4217332  61.2529714
 115.0515463  24.3743280  72.0277041 115.9146924  24.0180085  72.2380366
 114.4780873  24.0357175  72.7152445 121.9098896  43.4005517  64.0162677
 122.1606935  44.2852527  64.2820253 122.4458445  43.2210119  63.2437768
 119.1233940  46.5737420  60.5458632 119.8104980  46.2599150  59.9579647
 118.9682069  47.4778784  60.2725883 118.7001916  44.6538013  62.8176099
 118.7386016  44.1201604  63.6113217 118.1942209  44.1273218  62.1987076
 121.9515553  50.9821662  60.9184349 121.1147461  50.5543836  60.7368351
 121.9239198  51.1754105  61.8555140 121.2665050  44.0431010  60.7033281
 120.9467834  43.1896318  60.4107655 120.7198478  44.2579588  61.4591249
 121.1353310  47.6633922  62.6726403 120.4416781  47.2487875  62.1596357
 121.8826301  47.7054458  62.0759822 121.5511726  42.5567580  67.9302027
 122.1970590  42.0466534  68.4189252 121.3428877  43.2936262  68.5045452
 118.0097502  18.0220469  44.3632424 117.9321532  18.9728294  44.4420905
 117.4059145  17.6766341  45.0207351 115.6484332  20.7705863  48.5080626
 115.8880930  21.4024387  49.1859645 114.8053528  20.4193903  48.7945986
 116.1229164  16.7953865  45.8379405 115.4539539  17.2799993  45.3543445
 115.9842033  17.0423085  46.7522784 120.2634432  18.8297609  52.4362063
 120.8152740  18.9929230  53.2011149 120.6040626  19.4202046  51.7642088
 120.4320856  18.5494000  46.6816094 119.9925846  18.0570378  47.3748951
 121.1828973  18.0066967  46.4408169 113.2233906  16.8718155  48.4054537
 113.0888373  16.1118556  47.8392535 112.8065968  17.5959055  47.9383326
 116.3803031  17.7687472  48.6172979 116.2635416  18.7132904  48.5151670
 115.5595478  17.4661034  49.0058779 117.4057546  18.4215734  51.8328908
 118.3084792  18.4539344  52.1495403 117.1794916  17.4916185  51.8475244
 121.9098898  20.4067640  50.7407983 122.1606936  21.2914650  51.0065559
 122.4458446  20.2272241  49.9683075 119.1233942  23.5799542  47.2703939
 119.8104981  23.2661272  46.6824954 118.9682070  24.4840907  46.9971190
 118.7001918  21.6600135  49.5421406 118.7386017  21.1263726  50.3358524
 118.1942211  21.1335341  48.9232383 121.9515554  27.9883785  47.6429656
 121.1147463  27.5605959  47.4613657 121.9239200  28.1816228  48.5800447
 121.2665051  21.0493133  47.4278588 120.9467835  20.1958441  47.1352962
 120.7198479  21.2641711  48.1836555 121.1353311  24.6696044  49.3971710
 120.4416782  24.2549997  48.8841664 121.8826302  24.7116581  48.8005129
 121.5511728  19.5629703  54.6547334 122.1970591  19.0528657  55.1434559
 121.3428879  20.2998385  55.2290759  25.3288233  63.4412586 119.1721844
  24.6549932  63.7444283 119.7806802  25.7154055  64.2441666 118.8227301
  27.4195703  55.2320799 117.7069284  26.8024874  54.5067627 117.6102337
  26.9512192  55.9930159 117.3636359  29.2944974  61.0198069 120.4461667
  29.9895878  61.6404762 120.6648982  29.6368124  60.1693421 120.7214045
  23.3859842  61.1259821 119.3536761  22.8133809  61.7450008 118.9007233
  23.9592636  61.6759183 119.8876683  26.6057102  61.4096971 120.4845343
  27.5387775  61.3442533 120.6878219  26.5180315  62.2453238 120.0259876
  29.2345119  60.7262841 117.4449291  29.1558750  60.3922705 118.3385049
  30.0554786  61.2184609 117.4440763  26.8049071  58.0430837 117.0659269
  27.5084921  58.2480839 117.6816925  26.0811719  58.6107599 117.3308353
  28.7135768  58.4813366 119.1157729  29.5481372  58.0494565 118.9335204
  28.5520111  58.3095380 120.0434624  37.3420043  68.9983017 129.2112906
  37.9798453  68.8789765 128.5076246  37.2240886  69.9463861 129.2700858
  34.1509749  68.9510445 129.1474431  33.8128261  68.8351510 128.2594966
  35.0199518  68.5501610 129.1275437  30.0096565  70.8045922 125.1371322
  29.4461430  70.7135859 124.3687609  29.8948960  69.9845826 125.6173814
  35.5896124  74.4716889 120.4485787  34.9384104  75.0570970 120.0619800
  36.3840487  75.0023084 120.5080824  29.5151751  71.5606027 120.8472921
  30.2882627  71.0135014 120.7085797  29.8677150  72.4250276 121.0587382
  31.8518029  67.7198693 118.4791371  32.1043549  67.1980214 117.7174834
  30.9142588  67.5564838 118.5818054  36.8961312  66.7234471 126.2866114
  37.6824401  66.3053894 125.9356531  37.1600016  67.6280563 126.4547762
  37.0671389  72.1607321 120.9854771  36.4317222  72.2341948 121.6975675
  36.7368795  72.7500920 120.3073850  42.2969739  66.6609704 127.1899093
  43.0294911  66.0908921 127.4236922  41.5409094  66.2731305 127.6305598
  31.5714317  69.6226799 120.6815746  31.4550576  68.9471702 121.3496830
  31.6816577  69.1359173 119.8647899  33.9145858  69.0836946 124.3862435
  33.5504066  68.5567567 125.0975356  34.7712974  68.6935415 124.2128920
  33.5551345  64.1126845 119.3823783  33.7225748  64.9807082 119.7494255
  33.3648514  64.2754127 118.4585073  36.3126679  72.5743824 131.0489614
  36.0127402  73.4768863 130.9405421  35.9677738  72.3076008 131.9010767
  39.7123822  65.0926364 128.7287051  38.8040700  65.0241773 128.4345812
  39.6611418  65.5698309 129.5568877  33.5340566  66.5684503 120.3670450
  33.4140191  67.0141554 121.2055931  32.8393155  66.9169821 119.8083988
  31.2947458  79.3388145 124.0160582  31.2171488  80.2895970 124.0949062
  30.6909102  78.9934017 124.6735508  39.2325632  67.0405976 121.1950784
  40.1443489  67.2733363 121.0198482  38.7235279  67.6243020 120.6325863
  37.8395215  72.0231795 128.5864366  37.2104077  72.1877509 127.8840434
  37.4520877  72.4373404 129.3575330  41.7184447  72.9586232 125.9408730
  41.0335485  73.3385134 125.3905763  41.8028296  73.5681559 126.6740677
  33.3923177  71.7606203 125.8514451  33.8561522  72.0393906 125.0619073
  33.1279975  70.8589647 125.6687542  32.3292063  67.8829355 122.6604016
  33.0316106  68.3350399 123.1277942  31.9972691  67.2413174 123.2883909
  40.0881206  73.4818147 130.7126430  40.9098650  73.0798334 130.4309112
  40.0843609  73.3786381 131.6642546  48.1787199  69.8256895 127.0611402
  47.4250908  69.2564293 126.9055406  48.3134740  69.7919560 128.0082037
  33.5685827  74.6970298 122.7366121  33.4331502  75.5421833 123.1650969
  34.1095640  74.8989575 121.9732055  27.0215225  72.2145736 123.3094046
  27.5339745  73.0088986 123.4599611  27.6737937  71.5172026 123.2427648
  28.8310109  75.3311492 125.3916800  29.0076738  76.2529457 125.2037783
  29.6266943  75.0169911 125.8211179  24.9864141  70.5434390 124.0853617
  25.8239363  70.9531398 123.8687325  25.1642409  69.6033832 124.0553811
  36.8828574  68.2109471 119.7737450  36.3675197  68.9814075 120.0125837
  36.6105882  67.5374607 120.3970511  34.4675685  63.0559171 124.8322688
  33.6117281  62.6666022 124.6528327  34.8802636  63.1351132 123.9722474
  41.8562848  70.9641825 121.7090623  41.0792290  70.6252985 121.2645785
  42.5354329  70.9694448 121.0345588  36.6714877  66.0836563 121.5997231
  36.3665012  66.3982712 122.4507374  37.6245319  66.1617983 121.6424564
  35.1161309  72.2426786 123.2490185  34.5882670  71.5079546 122.9363422
  34.6148811  73.0201462 123.0030153  40.0954155  70.4375806 128.3657231
  39.4377829  71.1275068 128.4537360  40.8994554  70.8272238 128.7091218
  38.9059613  68.7920179 126.4161173  39.4191495  69.4250171 126.9182883
  39.5560837  68.1921375 126.0504533  30.1749623  64.9350913 119.6292682
  29.3386936  65.2725600 119.9501957  30.0354393  64.7999893 118.6919819
  33.2613909  70.0606996 116.2525158  32.3540970  69.8296250 116.4516307
  33.7584941  69.2644616 116.4399140  36.1681988  78.7704503 119.1721844
  35.4943686  79.0736200 119.7806802  36.5547810  79.5733584 118.8227301
  36.1675492  67.6661050 123.7922194  36.9147311  68.1782448 123.4829316
  36.4367082  67.3445103 124.6526587  34.4402142  70.1619591 120.7749148
  33.5313361  69.8778624 120.8721618  34.4697226  70.5818670 119.9152455
  39.6721410  73.7726181 124.5440316  39.2183737  72.9317091 124.6005506
  39.0415376  74.4087579 124.8815096  38.6154329  64.7018167 125.7740983
  37.8777086  64.1895553 126.1051226  38.8681103  64.2618548 124.9624260
  38.1154349  75.6102677 125.4790134  38.4077323  76.1707734 124.7602499
  38.6252969  75.9031238 126.2343293  32.9887036  67.7748212 126.8758943
  33.0435646  66.8222048 126.8001420  32.1778238  67.9307651 127.3600242
  34.1378230  71.7028335 118.1137227  33.6997660  70.9864194 117.6542864
  34.8788671  71.9304450 117.5522318  30.9279396  66.3925271 124.6349322
  30.1147262  66.6919442 125.0414514  31.4238390  65.9980960 125.3523805
  33.0787974  76.3883028 126.5683587  33.0364153  76.6143875 125.6392119
  33.9950673  76.1546403 126.7169388  42.2551345  69.9785532 124.1713545
  42.1169243  70.1687128 123.2434734  41.8987564  70.7404915 124.6281596
  42.2820724  72.0462059 129.1824817  42.7157231  71.9537348 130.0307871
  42.9952305  72.0219559 128.5444833  31.1953775  73.2646057 126.3645550
  31.9894373  72.7696378 126.1628125  30.4845467  72.7363921 126.0013255
  36.0148619  75.6464153 130.7157917  36.0685642  76.2155089 131.4835633
  35.1463401  75.8166038 130.3511955  27.5036538  67.4089139 122.4405302
  26.5734126  67.3473595 122.6575265  27.5994010  66.8865092 121.6441944
  43.1436274  72.0885760 131.7157702  43.3372164  72.9931570 131.9616977
  43.0436892  71.6293179 132.5496287  33.7725051  73.8375079 130.0443387
  33.6336137  73.4693864 130.9169325  32.9839647  74.3522719 129.8727345
  34.3673203  78.9384176 121.3868923  34.5424958  78.4672219 122.2014546
  33.6805991  79.5649942 121.6150184  35.3230266  73.2156682 127.4332225
  34.9880099  73.1757452 128.3289875  34.8234212  72.5501398 126.9602635
  38.2589458  70.5612716 117.7069284  37.6418628  69.8359545 117.6102337
  37.7905946  71.3222077 117.3636359  30.0488004  64.7798141 116.8290589
  29.1717470  64.6586942 116.4652835  30.5245757  63.9884219 116.5769477
  33.2351930  77.1324431 124.0753109  32.4519451  77.6746111 124.1691334
  33.9344675  77.6498411 124.4747350  36.5448580  62.9419061 126.7187314
  37.0417279  62.1889023 126.3988385  35.7735561  62.9783377 126.1530524
  44.3978337  68.6459426 128.3605606  44.3868213  69.5284142 127.9899539
  43.5295716  68.2930977 128.1660143  37.6278360  71.6990748 124.2925738
  36.6934639  71.8192210 124.1230442  37.8055029  70.7963215 124.0285748
  41.0150912  67.5408067 124.8275772  41.4811364  68.3736059 124.7536075
  41.4658412  67.0753049 125.5321030  39.0827143  73.8851888 121.8261924
  39.3586987  73.7708483 122.7355798  38.2131642  73.4869373 121.7874097
  35.7181207  78.1338239 125.4694738  35.9003601  77.3159895 125.9322490
  36.5414193  78.3505931 125.0319628  36.0523372  77.0606424 122.7309786
  36.5811139  76.5498879 122.1179948  36.3151592  76.7448955 123.5955319
  24.7766697  66.3739996 122.2703494  25.0720138  65.4650674 122.2170548
  23.8754733  66.3527735 121.9484497  36.6852776  78.0947260 129.0753903
  36.5603916  77.2937000 128.5664848  37.3431867  78.5893453 128.5867873
  38.7487685  75.8956280 130.7033453  37.8018020  75.7761631 130.6311779
  39.0970458  75.0078778 130.7859714  26.5054539  64.0554094 122.3942819
  26.1767245  63.1751473 122.2117925  26.8593910  64.0001762 123.2819209
  35.7534118  75.6908996 126.9037805  35.6059080  74.7625704 127.0845375
  36.5787611  75.7129087 126.4194880  29.6196362  64.3427063 122.7618297
  29.9592435  64.8712985 122.0396905  30.0668483  64.6807470 123.5376864
  39.3568240  76.5137555 127.9902678  40.2814787  76.3080416 127.8527129
  39.1883543  76.2653956 128.8992019  31.6064509  62.8401685 120.9611590
  32.3272872  63.2182938 120.4575307  30.9829813  63.5590562 121.0646568
  35.7495632  63.5446834 121.8969922  35.9659247  64.4271472 121.5958750
  35.2689699  63.1533047 121.1675564  39.1463556  77.0323223 123.3464769
  39.3200433  76.4669645 122.5938622  39.6392447  77.8324117 123.1644259
  31.7528132  62.3749476 123.7909126  31.8744044  61.4466122 123.9900014
  31.4630175  62.3888161 122.8787442  45.0002947  69.7959645 124.9655069
  45.4434093  69.0466971 124.5674192  44.1229457  69.7869782 124.5828801
  40.1338728  76.3489987 120.4461667  40.8289633  76.9696680 120.6648982
  40.4761878  75.4985338 120.7214045  42.0330151  73.7989692 121.9748998
  42.5581476  74.1376965 121.2498318  41.9452504  72.8636708 121.7912133
  33.7170812  79.8661676 126.3344251  33.2775803  79.3738054 127.0277108
  34.4678929  79.3234643 126.0936327  30.7258191  73.9603608 121.8825014
  30.8746312  74.6439073 121.2291686  31.5324635  73.9408698 122.3974469
  43.3440129  73.7012004 134.8374946  43.0524938  74.0641985 135.6738407
  42.7312261  72.9879012 134.6588278  44.5435812  71.2664884 127.3577516
  45.3782703  71.7054688 127.5215077  44.6794941  70.7903537 126.5385762
  28.4810824  69.9868786 122.8886082  28.2356866  69.0831116 123.0866293
  28.6506739  69.9885936 121.9465560  27.7506472  65.7197143 120.3872244
  27.0575717  65.7941498 119.7312280  27.5058224  64.9557487 120.9093761
  34.2253597  76.4551739 119.3536761  33.6527564  77.0741926 118.9007233
  34.7986390  77.0051100 119.8876683  37.4450857  76.7388889 120.4845343
  38.3781530  76.6734450 120.6878219  37.3574069  77.5745156 120.0259876
  40.0738873  76.0554759 117.4449291  39.9952505  75.7214623 118.3385049
  40.8948540  76.5476527 117.4440763  42.7717064  68.9216498 130.6525609
  42.7393385  67.9832499 130.8385293  43.3817688  69.0000535 129.9191434
  34.6100395  67.7912551 116.6952813  35.5559500  67.6618760 116.7641232
  34.2314640  67.0527213 117.1722242  48.5893614  69.9832505 129.7931646
  49.3197003  69.7217793 130.3539350  47.9800560  69.2461227 129.8333714
  46.6708911  68.1240368 130.3906097  45.9442075  67.9896333 129.7822589
  46.2556198  68.4317196 131.1962815  32.7943312  65.7162528 116.6307699
  31.8874768  65.4195640 116.7070412  33.0719293  65.4192346 115.7641985
  34.4105378  60.2599417 122.7851940  33.6006107  59.9146502 123.1607186
  35.0989795  59.9506961 123.3739552  31.5642097  62.5749463 116.7719678
  32.4261261  62.9004361 117.0315495  31.7492441  61.7880959 116.2592744
  39.7174734  61.4477989 123.9154901  39.1373403  62.1062793 123.5332953
  39.4510666  60.6255334 123.5042318  38.4999612  63.6078080 122.9711249
  37.6125467  63.8927730 122.7531444  38.9153601  63.4471843 122.1238526
  41.8514148  63.6324601 126.6865588  42.6274538  64.1221053 126.9590205
  41.1262282  64.0582655 127.1437458  44.2886706  64.3452220 127.7439529
  44.8831197  64.1047956 127.0332837  44.3613290  63.6259351 128.3713065
  37.6442825  73.3722755 117.0659269  38.3478675  73.5772757 117.6816925
  36.9205474  73.9399516 117.3308353  38.4740635  69.1232616 123.1861539
  38.4175837  69.5801167 122.3469172  39.0268978  68.3623300 123.0084382
  42.2845441  64.9122348 124.0111659  42.0282375  64.5118983 124.8419867
  41.6598309  65.6266142 123.8861798  46.5957779  67.6518421 126.5182950
  46.0357337  67.7211610 127.2914512  45.9901282  67.4759406 125.7982446
  39.5529522  73.8105284 119.1157729  40.3875126  73.3786482 118.9335204
  39.3913865  73.6387297 120.0434624  39.2075415  70.3137397 120.4814069
  39.1524218  70.1481668 119.5402513  38.5821470  71.0213430 120.6376258
  32.5171540  59.8145506 120.0599387  32.5050210  60.7587346 120.2167658
  33.4094962  59.6315651 119.7658848  44.9903504  84.2802363 129.1474431
  44.6522015  84.1643428 128.2594966  45.8593272  83.8793528 129.1275437
  40.8490320  86.1337839 125.1371322  40.2855185  86.0427776 124.3687609
  40.7342715  85.3137744 125.6173814  46.4289878  89.8008807 120.4485787
  45.7777858  90.3862887 120.0619800  47.2234241  90.3315002 120.5080824
  40.3545505  86.8897944 120.8472921  41.1276381  86.3426931 120.7085797
  40.7070904  87.7542194 121.0587382  42.6911783  83.0490610 118.4791371
  42.9437304  82.5272132 117.7174834  41.7536342  82.8856756 118.5818054
  47.7355066  82.0526389 126.2866114  48.5218155  81.6345812 125.9356531
  47.9993770  82.9572481 126.4547762  47.9065143  87.4899239 120.9854771
  47.2710976  87.5633866 121.6975675  47.5762550  88.0792838 120.3073850
  53.1363493  81.9901622 127.1899093  53.8688665  81.4200839 127.4236922
  52.3802849  81.6023222 127.6305598  42.4108072  84.9518716 120.6815746
  42.2944330  84.2763620 121.3496830  42.5210332  84.4651090 119.8647899
  44.7539613  84.4128863 124.3862435  44.3897820  83.8859484 125.0975356
  45.6106729  84.0227332 124.2128920  50.6588913  75.7023196 131.6493701
  50.3272238  76.5718607 131.4254916  50.0634527  75.3859480 132.3287732
  44.3945100  79.4418763 119.3823783  44.5619502  80.3098999 119.7494255
  44.2042269  79.6046045 118.4585073  40.6032915  84.3549539 127.0826318
  39.6783411  84.2225753 127.2904010  40.8517328  85.1343758 127.5796261
  44.3734321  81.8976421 120.3670450  44.2533946  82.3433471 121.2055931
  43.6786909  82.2461738 119.8083988  42.1341213  94.6680062 124.0160582
  42.0565243  95.6187887 124.0949062  41.5302856  94.3225935 124.6735508
  50.0719387  82.3697894 121.1950784  50.9837243  82.6025281 121.0198482
  49.5629034  82.9534938 120.6325863  47.4155362  78.5455930 129.4440645
  46.5539841  78.8437183 129.7357383  47.4417796  78.7626329 128.5121678
  44.2316931  87.0898120 125.8514451  44.6955277  87.3685823 125.0619073
  43.9673729  86.1881565 125.6687542  41.1241012  86.6369602 128.7894214
  41.6942369  87.0656870 128.1511699  41.7149124  86.3552187 129.4878400
  43.1685817  83.2121273 122.6604016  43.8709860  83.6642316 123.1277942
  42.8366446  82.5705092 123.2883909  36.9111151  81.4704825 127.9621150
  36.1210205  81.7262354 127.4861260  37.4022398  82.2853163 128.0673190
  38.8625896  81.8349405 124.9204626  38.0657060  81.9468099 125.4388122
  38.6351489  82.1736057 124.0545517  44.4079582  90.0262215 122.7366121
  44.2725257  90.8713751 123.1650969  44.9489394  90.2281493 121.9732055
  37.8608979  87.5437653 123.3094046  38.3733500  88.3380904 123.4599611
  38.5131692  86.8463944 123.2427648  39.6703864  90.6603410 125.3916800
  39.8470492  91.5821374 125.2037783  40.4660697  90.3461829 125.8211179
  47.7572045  73.5492777 131.2665015  47.4136315  74.4394419 131.1904125
  48.1251008  73.3594435 130.4034600  35.8257896  85.8726308 124.0853617
  36.6633118  86.2823316 123.8687325  36.0036164  84.9325750 124.0553811
  47.7222328  83.5401388 119.7737450  47.2068951  84.3105993 120.0125837
  47.4499636  82.8666524 120.3970511  45.3069439  78.3851089 124.8322688
  44.4511035  77.9957939 124.6528327  45.7196391  78.4643050 123.9722474
  46.8368586  75.9197432 129.2314248  46.3333381  75.8827567 128.4182053
  47.1299193  76.8290175 129.2910905  43.0811472  76.0036162 128.2380430
  43.9464468  75.8078971 127.8786319  43.1488980  75.7746514 129.1649786
  52.6956602  86.2933743 121.7090623  51.9186045  85.9544902 121.2645785
  53.3748083  86.2986366 121.0345588  47.5108631  81.4128480 121.5997231
  47.2058767  81.7274630 122.4507374  48.4639073  81.4909900 121.6424564
  45.9555063  87.5718704 123.2490185  45.4276425  86.8371463 122.9363422
  45.4542566  88.3493380 123.0030153  40.6873791  78.2338370 125.6096797
  41.2617543  78.0113551 124.8769989  41.2744773  78.3027064 126.3625398
  49.7453368  84.1212097 126.4161173  50.2585250  84.7542089 126.9182883
  50.3954592  83.5213292 126.0504533  41.0143378  80.2642831 119.6292682
  40.1780690  80.6017518 119.9501957  40.8748147  80.1291811 118.6919819
  42.9896458  75.1079619 124.3371866  42.3360871  74.7928636 123.7128481
  42.9476933  74.4855359 125.0631689  44.1007663  85.3898914 116.2525158
  43.1934725  85.1588167 116.4516307  44.5978695  84.5936533 116.4399140
  47.0075742  94.0996421 119.1721844  46.3337441  94.4028118 119.7806802
  47.3941564  94.9025501 118.8227301  46.2234199  81.5961552 128.6619514
  45.3056760  81.8176499 128.5041202  46.6394342  81.6707863 127.8031221
  47.0069246  82.9952968 123.7922194  47.7541065  83.5074365 123.4829316
  47.2760836  82.6737021 124.6526587  45.2795897  85.4911509 120.7749148
  44.3707116  85.2070542 120.8721618  45.3090980  85.9110587 119.9152455
  49.4548084  80.0310084 125.7740983  48.7170840  79.5187471 126.1051226
  49.7074857  79.5910466 124.9624260  49.5559711  72.8086336 126.3682752
  49.8618588  71.9483700 126.0808667  50.2812316  73.4003957 126.1681746
  35.8484067  83.2117023 124.7564350  35.6508467  82.6186384 124.0315417
  35.2930731  82.9069233 125.4740289  43.8280791  83.1040129 126.8758943
  43.8829400  82.1513966 126.8001420  43.0171993  83.2599569 127.3600242
  44.9771984  87.0320252 118.1137227  44.5391414  86.3156111 117.6542864
  45.7182425  87.2596367 117.5522318  41.7673151  81.7217189 124.6349322
  40.9541016  82.0211360 125.0414514  42.2632145  81.3272878 125.3523805
  53.0945099  85.3077450 124.1713545  52.9562998  85.4979045 123.2434734
  52.7381318  86.0696832 124.6281596  41.2587225  79.2935545 130.2510557
  41.8986605  79.1524304 129.5533521  40.4264756  79.0070058 129.8749159
  42.0347529  88.5937975 126.3645550  42.8288128  88.0988295 126.1628125
  41.3239222  88.0655838 126.0013255  38.3430293  82.7381057 122.4405302
  37.4127881  82.6765512 122.6575265  38.4387765  82.2157010 121.6441944
  38.2615842  79.2635870 125.0283544  38.5222659  80.1781203 124.9192705
  39.0833014  78.7960312 125.1780157  45.2066957  94.2676094 121.3868923
  45.3818713  93.7964137 122.2014546  44.5199745  94.8941860 121.6150184
  49.0983212  85.8904634 117.7069284  48.4812383  85.1651462 117.6102337
  48.6299701  86.6513994 117.3636359  40.8881758  80.1090058 116.8290589
  40.0111224  79.9878859 116.4652835  41.3639511  79.3176137 116.5769477
  44.0745684  92.4616349 124.0753109  43.2913206  93.0038029 124.1691334
  44.7738429  92.9790328 124.4747350  47.3842334  78.2710978 126.7187314
  47.8811034  77.5180941 126.3988385  46.6129316  78.3075295 126.1530524
  48.4672115  87.0282665 124.2925738  47.5328394  87.1484128 124.1230442
  48.6448783  86.1255132 124.0285748  43.9677303  80.4128361 126.4458999
  43.5975090  79.8599402 127.1339905  44.4636395  79.8086495 125.8933999
  51.8544666  82.8699985 124.8275772  52.3205118  83.7027976 124.7536075
  52.3052167  82.4044966 125.5321030  49.9220897  89.2143806 121.8261924
  50.1980741  89.1000401 122.7355798  49.0525396  88.8161291 121.7874097
  49.8261329  75.2380572 128.8666673  48.9124409  75.4684799 129.0348880
  50.2554430  75.3219016 129.7180706  46.8917127  92.3898342 122.7309786
  47.4204893  91.8790797 122.1179948  47.1545346  92.0740872 123.5955319
  39.3642637  77.8232352 132.6912105  39.4283963  78.6847183 132.2789503
  39.3009757  77.2106354 131.9584464  35.6160452  81.7031914 122.2703494
  35.9113893  80.7942592 122.2170548  34.7148488  81.6819653 121.9484497
  39.1454699  79.7787910 128.2531043  38.4241285  80.3923878 128.1138516
  39.9347955  80.3145675 128.1747689  37.3448293  79.3846011 122.3942819
  37.0161000  78.5043390 122.2117925  37.6987664  79.3293680 123.2819209
  40.4590117  79.6718981 122.7618297  40.7986189  80.2004902 122.0396905
  40.9062237  80.0099387 123.5376864  43.1533557  78.0556032 132.2121365
  42.8130378  77.2563845 132.6142045  42.4472564  78.3557743 131.6398198
  43.8050029  75.1405344 130.6648688  44.6276099  74.6665822 130.5427578
  44.0488093  75.9195828 131.1647374  42.4458264  78.1693603 120.9611590
  43.1666626  78.5474856 120.4575307  41.8223568  78.8882480 121.0646568
  46.5889387  78.8738752 121.8969922  46.8053001  79.7563390 121.5958750
  46.1083454  78.4824965 121.1675564  41.3288608  81.8324465 128.4740667
  41.1833189  82.1464768 129.3664948  40.8513812  82.4509365 127.9211565
  43.1884991  78.8227013 128.5221556  43.1746560  77.9268106 128.1853854
  43.9057419  78.8297677 129.1559842  45.0411122  79.2564353 130.5674684
  44.7828899  80.1781424 130.5659014  44.5096162  78.8594788 131.2575148
  42.5921887  77.7041393 123.7909126  42.7137798  76.7758039 123.9900014
  42.3023929  77.7180079 122.8787442  45.4613077  75.3896304 126.9275846
  45.4834774  75.4535637 125.9727826  45.8781136  74.5500812 127.1216352
  50.9732483  91.6781905 120.4461667  51.6683387  92.2988597 120.6648982
  51.3155633  90.8277256 120.7214045  52.8723906  89.1281610 121.9748998
  53.3975230  89.4668883 121.2498318  52.7846259  88.1928625 121.7912133
  41.5651946  89.2895526 121.8825014  41.7140066  89.9730990 121.2291686
  42.3718389  89.2700616 122.3974469  39.3204579  85.3160704 122.8886082
  39.0750621  84.4123034 123.0866293  39.4900493  85.3177854 121.9465560
  47.0101289  76.1884380 132.2710838  47.5283232  76.9245407 131.9457327
  46.6556421  76.4948373 133.1057597  38.5900226  81.0489061 120.3872244
  37.8969471  81.1233416 119.7312280  38.3451978  80.2849405 120.9093761
  47.2613883  72.6084662 127.7911735  47.5415637  71.9407851 128.4172161
  48.0464490  72.8013758 127.2786399  45.0647351  91.7843656 119.3536761
  44.4921318  92.4033843 118.9007233  45.6380145  92.3343018 119.8876683
  48.2844611  92.0680806 120.4845343  49.2175284  92.0026368 120.6878219
  48.1967824  92.9037073 120.0259876  50.9132628  91.3846677 117.4449291
  50.8346259  91.0506540 118.3385049  51.7342295  91.8768445 117.4440763
  45.4494150  83.1204469 116.6952813  46.3953255  82.9910677 116.7641232
  45.0708395  82.3819131 117.1722242  51.4216034  74.7860475 126.6579705
  51.2240855  74.4775563 127.5423037  52.0315740  75.5122114 126.7877635
  43.6337067  81.0454445 116.6307699  42.7268522  80.7487558 116.7070412
  43.9113048  80.7484264 115.7641985  45.2499133  75.5891335 122.7851940
  44.4399861  75.2438420 123.1607186  45.9383550  75.2798879 123.3739552
  47.1789681  74.6669382 124.4076237  47.7320720  75.0864835 125.0666260
  47.4159767  73.7405130 124.4499193  42.4035852  77.9041381 116.7719678
  43.2655016  78.2296279 117.0315495  42.5886196  77.1172877 116.2592744
  50.5568488  76.7769907 123.9154901  49.9767157  77.4354711 123.5332953
  50.2904421  75.9547252 123.5042318  49.0072054  76.1774965 126.1176221
  49.5071833  76.2891499 125.3090540  49.6507662  75.8736018 126.7577030
  49.3393366  78.9369998 122.9711249  48.4519221  79.2219648 122.7531444
  49.7547355  78.7763761 122.1238526  52.6907902  78.9616519 126.6865588
  53.4668292  79.4512971 126.9590205  51.9656036  79.3874573 127.1437458
  55.1280461  79.6744138 127.7439529  55.7224952  79.4339874 127.0332837
  55.2007045  78.9551268 128.3713065  48.4836580  88.7014672 117.0659269
  49.1872430  88.9064675 117.6816925  47.7599228  89.2691434 117.3308353
  49.3134390  84.4524533 123.1861539  49.2569591  84.9093085 122.3469172
  49.8662732  83.6915218 123.0084382  53.1239196  80.2414265 124.0111659
  52.8676130  79.8410901 124.8419867  52.4992064  80.9558059 123.8861798
  50.3923277  89.1397201 119.1157729  51.2268881  88.7078400 118.9335204
  50.2307620  88.9679215 120.0434624  50.0469169  85.6429315 120.4814069
  49.9917973  85.4773586 119.5402513  49.4215224  86.3505348 120.6376258
  43.3565295  75.1437424 120.0599387  43.3443964  76.0879264 120.2167658
  44.2488716  74.9607569 119.7658848  47.1717414  71.7380200 124.3145324
  46.4049810  71.1838687 124.4602006  47.5828119  71.8102069 125.1759475
  51.8537132  95.5934749 119.6292682  51.0174445  95.9309435 119.9501957
  51.7141902  95.4583728 118.6919819  51.7275512  95.4381976 116.8290589
  50.8504979  95.3170777 116.4652835  52.2033266  94.6468054 116.5769477
  49.4293981  96.3780979 120.3872244  48.7363226  96.4525334 119.7312280
  49.1845733  95.6141322 120.9093761  54.4730821  96.3746363 116.6307699
  53.5662277  96.0779476 116.7070412  54.7506802  96.0776181 115.7641985
  53.2429606  93.2333298 116.7719678  54.1048770  93.5588197 117.0315495
  53.4279950  92.4464794 116.2592744  54.1959049  90.4729341 120.0599387
  54.1837719  91.4171181 120.2167658  55.0882471  90.2899487 119.7658848
  25.3288234  40.4474708 105.8967151  24.6549933  40.7506405 106.5052109
  25.7154056  41.2503789 105.5472608  27.4195704  32.2382921 104.4314591
  26.8024875  31.5129750 104.3347644  26.9512193  32.9992282 104.0881665
  29.2944975  38.0260192 107.1706974  29.9895880  38.6466885 107.3894289
  29.6368125  37.1755543 107.4459352  23.3859844  38.1321944 106.0782068
  22.8133811  38.7512131 105.6252539  23.9592637  38.6821305 106.6121990
  26.6057103  38.4159094 107.2090650  27.5387777  38.3504655 107.4123525
  26.5180316  39.2515361 106.7505183  29.2345120  37.7324964 104.1694597
  29.1558752  37.3984828 105.0630355  30.0554787  38.2246732 104.1686070
  26.8049072  35.0492959 103.7904576  27.5084922  35.2542962 104.4062231
  26.0811721  35.6169721 104.0553659  28.7135769  35.4875489 105.8403036
  29.5481373  35.0556687 105.6580511  28.5520112  35.3157502 106.7679930
  37.3420044  46.0045140 115.9358213  37.9798454  45.8851887 115.2321553
  37.2240887  46.9525984 115.9946165  34.1509751  45.9572568 115.8719737
  33.8128262  45.8413633 114.9840272  35.0199519  45.5563733 115.8520743
  30.0096566  47.8108044 111.8616628  29.4461431  47.7197981 111.0932916
  29.8948961  46.9907949 112.3419121  35.5896125  51.4779012 107.1731093
  34.9384105  52.0633092 106.7865107  36.3840488  52.0085207 107.2326131
  29.5151752  48.5668149 107.5718227  30.2882628  48.0197136 107.4331103
  29.8677151  49.4312398 107.7832689  31.8518030  44.7260815 105.2036677
  32.1043551  44.2042337 104.4420140  30.9142589  44.5626961 105.3063361
  36.8961313  43.7296594 113.0111421  37.6824402  43.3116017 112.6601838
  37.1600017  44.6342686 113.1793069  37.0671390  49.1669444 107.7100077
  36.4317223  49.2404070 108.4220982  36.7368797  49.7563043 107.0319157
  42.2969740  43.6671827 113.9144399  43.0294912  43.0971044 114.1482229
  41.5409096  43.2793427 114.3550905  31.5714319  46.6288921 107.4061052
  31.4550577  45.9533825 108.0742137  31.6816579  46.1421295 106.5893205
  33.9145860  46.0899068 111.1107742  33.5504067  45.5629689 111.8220663
  34.7712976  45.6997537 110.9374227  33.5551347  41.1188968 106.1069090
  33.7225749  41.9869204 106.4739561  33.3648516  41.2816250 105.1830379
  36.3126680  49.5805947 117.7734920  36.0127403  50.4830986 117.6650728
  35.9677739  49.3138130 118.6256073  39.7123824  42.0988487 115.4532358
  38.8040701  42.0303896 115.1591119  39.6611419  42.5760432 116.2814183
  33.5340568  43.5746625 107.0915757  33.4140193  44.0203676 107.9301237
  32.8393156  43.9231943 106.5329295  31.2947460  56.3450267 110.7405888
  31.2171489  57.2958092 110.8194369  30.6909103  55.9996140 111.3980814
  39.2325634  44.0468099 107.9196091  40.1443490  44.2795485 107.7443789
  38.7235281  44.6305143 107.3571170  37.8395216  49.0293917 115.3109672
  37.2104078  49.1939631 114.6085740  37.4520878  49.4435527 116.0820636
  41.7184448  49.9648355 112.6654036  41.0335486  50.3447256 112.1151070
  41.8028297  50.5743682 113.3985984  33.3923178  48.7668325 112.5759758
  33.8561523  49.0456028 111.7864380  33.1279976  47.8651770 112.3932848
  32.3292064  44.8891478 109.3849323  33.0316107  45.3412521 109.8523249
  31.9972692  44.2475296 110.0129216  40.0881207  50.4880269 117.4371737
  40.9098651  50.0860457 117.1554419  40.0843610  50.3848504 118.3887853
  48.1787200  46.8319018 113.7856709  47.4250909  46.2626416 113.6300713
  48.3134742  46.7981682 114.7327343  33.5685829  51.7032420 109.4611428
  33.4331503  52.5483956 109.8896276  34.1095641  51.9051698 108.6977362
  27.0215226  49.2207858 110.0339353  27.5339746  50.0151108 110.1844918
  27.6737939  48.5234149 109.9672954  28.8310111  52.3373615 112.1162106
  29.0076739  53.2591579 111.9283090  29.6266944  52.0232034 112.5456486
  29.9541426  53.8551788 118.1172448  30.5048851  53.7268852 117.3449442
  29.1152902  54.1546677 117.7667341  24.9864143  47.5496513 110.8098924
  25.8239365  47.9593521 110.5932631  25.1642410  46.6095955 110.7799117
  36.8828575  45.2171593 106.4982756  36.3675198  45.9876198 106.7371144
  36.6105883  44.5436729 107.1215818  34.4675686  40.0621294 111.5567995
  33.6117282  39.6728144 111.3773634  34.8802638  40.1413255 110.6967780
  41.8562849  47.9703948 108.4335930  41.0792292  47.6315107 107.9891092
  42.5354330  47.9756571 107.7590895  36.6714878  43.0898685 108.3242538
  36.3665014  43.4044834 109.1752681  37.6245320  43.1680105 108.3669871
  35.1161310  49.2488909 109.9735492  34.5882671  48.5141668 109.6608729
  34.6148813  50.0263585 109.7275460  40.0954156  47.4437929 115.0902538
  39.4377830  48.1337190 115.1782667  40.8994555  47.8334361 115.4336524
  38.9059615  45.7982302 113.1406480  39.4191496  46.4312294 113.6428189
  39.5560839  45.1983497 112.7749840  30.1749625  41.9413036 106.3537988
  29.3386937  42.2787722 106.6747263  30.0354394  41.8062016 105.4165125
  33.2613910  47.0669119 102.9770465  32.3540972  46.8358372 103.1761614
  33.7584942  46.2706738 103.1644446  36.1681989  55.7766626 105.8967151
  35.4943688  56.0798323 106.5052109  36.5547811  56.5795706 105.5472608
  36.1675493  44.6723173 110.5167500  36.9147312  45.1844570 110.2074623
  36.4367083  44.3507226 111.3771894  34.4402143  47.1681714 107.4994455
  33.5313363  46.8840747 107.5966925  34.4697227  47.5880792 106.6397762
  39.6721411  50.7788303 111.2685622  39.2183738  49.9379213 111.3250813
  39.0415378  51.4149702 111.6060402  38.6154330  41.7080289 112.4986290
  37.8777087  41.1957675 112.8296532  38.8681104  41.2680671 111.6869567
  38.1154350  52.6164800 112.2035440  38.4077324  53.1769857 111.4847806
  38.6252971  52.9093361 112.9588600  32.9887037  44.7810334 113.6004250
  33.0435647  43.8284171 113.5246727  32.1778240  44.9369773 114.0845549
  34.1378231  48.7090457 104.8382533  33.6997661  47.9926316 104.3788171
  34.8788672  48.9366572 104.2767625  30.9279397  43.3987394 111.3594629
  30.1147263  43.6981565 111.7659821  31.4238392  43.0043083 112.0769111
  33.0787975  53.3945151 113.2928894  33.0364154  53.6205997 112.3637426
  33.9950674  53.1608526 113.4414695  42.2551346  46.9847654 110.8958852
  42.1169245  47.1749250 109.9680041  41.8987565  47.7467037 111.3526903
  42.2820726  49.0524181 115.9070123  42.7157232  48.9599471 116.7553177
  42.9952306  49.0281682 115.2690139  31.1953776  50.2708180 113.0890856
  31.9894375  49.7758500 112.8873431  30.4845468  49.7426043 112.7258562
  36.0148621  52.6526276 117.4403224  36.0685643  53.2217212 118.2080940
  35.1463402  52.8228161 117.0757261  27.5036540  44.4151262 109.1650609
  26.5734128  44.3535717 109.3820571  27.5994012  43.8927215 108.3687250
  43.1436275  49.0947882 118.4403009  43.3372165  49.9993693 118.6862284
  43.0436893  48.6355301 119.2741594  33.7725052  50.8437202 116.7688693
  33.6336138  50.4755986 117.6414632  32.9839648  51.3584841 116.5972651
  34.3673204  55.9446298 108.1114230  34.5424960  55.4734342 108.9259853
  33.6805992  56.5712065 108.3395491  35.3230267  50.2218805 114.1577531
  34.9880100  50.1819575 115.0535181  34.8234213  49.5563521 113.6847941
  38.2589459  47.5674839 104.4314591  37.6418629  46.8421667 104.3347644
  37.7905947  48.3284199 104.0881665  28.9334289  59.0935661 114.8854090
  29.1730888  59.7254185 115.5633109  28.0903486  58.7423701 115.1719449
  30.0488005  41.7860263 103.5535895  29.1717471  41.6649064 103.1898142
  30.5245758  40.9946342 103.3014784  33.4462151  54.9014784 117.2895594
  33.3732323  55.7069755 117.8014899  33.0039544  55.1006750 116.4643616
  33.2351931  54.1386554 110.7998416  32.4519453  54.6808234 110.8936640
  33.9344676  54.6560533 111.1992657  36.5448581  39.9481183 113.4432621
  37.0417280  39.1951146 113.1233691  35.7735562  39.9845500 112.8775830
  44.3978338  45.6521549 115.0850913  44.3868215  46.5346264 114.7144846
  43.5295718  45.2993100 114.8905450  35.9060835  54.8001618 119.4453753
  36.6188807  55.4349083 119.3729654  35.4150863  54.8965484 118.6293755
  37.6278362  48.7052870 111.0171044  36.6934640  48.8254333 110.8475749
  37.8055030  47.8025337 110.7531054  41.0150913  44.5470190 111.5521079
  41.4811365  45.3798181 111.4781381  41.4658413  44.0815171 112.2566337
  39.0827144  50.8914011 108.5507231  39.3586988  50.7770606 109.4601105
  38.2131643  50.4931496 108.5119404  35.7181208  55.1400362 112.1940044
  35.9003603  54.3222018 112.6567797  36.5414194  55.3568054 111.7564934
  36.0523374  54.0668547 109.4555093  36.5811140  53.5561002 108.8425255
  36.3151593  53.7511077 110.3200626  29.4079122  55.1183664 112.2152869
  28.7389497  55.6029791 111.7316909  29.2691991  55.3652884 113.1296247
  33.5484390  57.1527407 118.8135527  34.1002698  57.3159029 119.5784612
  33.8890584  57.7431845 118.1415552  24.7766699  43.3802119 108.9948801
  25.0720140  42.4712797 108.9415855  23.8754734  43.3589858 108.6729803
  36.6852777  55.1009383 115.7999209  36.5603917  54.2999123 115.2910155
  37.3431868  55.5955576 115.3113179  38.7487686  52.9018403 117.4278759
  37.8018021  52.7823754 117.3557086  39.0970459  52.0140901 117.5105021
  26.5054540  41.0616216 109.1188126  26.1767246  40.1813595 108.9363232
  26.8593911  41.0063885 110.0064515  35.7534119  52.6971119 113.6283112
  35.6059081  51.7687826 113.8090682  36.5787613  52.7191210 113.1440187
  29.6196363  41.3489186 109.4863604  29.9592436  41.8775107 108.7642212
  30.0668484  41.6869592 110.2622170  39.3568241  53.5199678 114.7147984
  40.2814788  53.3142539 114.5772435  39.1883544  53.2716079 115.6237326
  31.6064510  39.8463808 107.6856896  32.3272873  40.2245060 107.1820613
  30.9829815  40.5652684 107.7891874  35.7495633  40.5508957 108.6215229
  35.9659248  41.4333594 108.3204057  35.2689701  40.1595170 107.8920871
  39.1463557  54.0385345 110.0710076  39.3200435  53.4731768 109.3183928
  39.6392448  54.8386240 109.8889566  31.7528134  39.3811598 110.5154433
  31.8744045  38.4528244 110.7145321  31.4630176  39.3950284 109.6032748
  45.0002948  46.8021768 111.6900375  45.4434094  46.0529093 111.2919499
  44.1229459  46.7931904 111.3074107  40.1338730  53.3552110 107.1706974
  40.8289634  53.9758802 107.3894289  40.4761880  52.5047461 107.4459352
  42.0330153  50.8051815 108.6994305  42.5581477  51.1439088 107.9743625
  41.9452505  49.8698830 108.5157439  33.7170813  56.8723798 113.0589558
  33.2775804  56.3800177 113.7522415  34.4678930  56.3296766 112.8181633
  26.1963152  53.0635339 113.0614186  27.0221172  52.7639111 112.6812830
  25.8457204  52.2942962 113.5103975  31.1644686  52.4161807 115.1311860
  30.5424695  51.7532512 114.8314088  31.8349553  52.4422939 114.4485507
  24.3971758  50.9821666 114.0203120  23.5603666  50.5543840 113.8387121
  24.3695403  51.1754109 114.9573911  30.7258193  50.9665731 108.6070320
  30.8746313  51.6501195 107.9536993  31.5324636  50.9470821 109.1219776
  43.3440131  50.7074127 121.5620253  43.0524939  51.0704107 122.3983714
  42.7312262  49.9941135 121.3833585  44.5435813  48.2727006 114.0822823
  45.3782704  48.7116810 114.2460383  44.6794942  47.7965660 113.2631069
  28.4810826  46.9930908 109.6131389  28.2356867  46.0893238 109.8111599
  28.6506740  46.9948059 108.6710867  27.7506473  42.7259266 107.1117551
  27.0575718  42.8003621 106.4557587  27.5058225  41.9619610 107.6339067
  34.2253598  53.4613861 106.0782068  33.6527565  54.0804048 105.6252539
  34.7986392  54.0113223 106.6121990  37.4450858  53.7451011 107.2090650
  38.3781531  53.6796573 107.4123525  37.3574071  54.5807278 106.7505183
  42.7717066  45.9278621 117.3770916  42.7393386  44.9894622 117.5630600
  43.3817689  46.0062658 116.6436741  34.6100397  44.7974674 103.4198120
  35.5559501  44.6680882 103.4886538  34.2314642  44.0589336 103.8967548
  48.5893616  46.9894628 116.5176953  49.3197004  46.7279916 117.0784656
  47.9800561  46.2523350 116.5579021  46.6708913  45.1302490 117.1151404
  45.9442076  44.9958455 116.5067896  46.2556200  45.4379319 117.9208122
  32.7943314  42.7224650 103.3553005  31.8874769  42.4257763 103.4315719
  33.0719295  42.4254468 102.4887292  34.4105379  37.2661540 109.5097247
  33.6006108  36.9208625 109.8852493  35.0989796  36.9569084 110.0984858
  31.5642098  39.5811586 103.4964985  32.4261262  39.9066484 103.7560802
  31.7492442  38.7943081 102.9838050  39.7174735  38.4540112 110.6400208
  39.1373404  39.1124916 110.2578260  39.4510667  37.6317457 110.2287625
  38.4999613  40.6140202 109.6956556  37.6125468  40.8989853 109.4776751
  38.9153602  40.4533966 108.8483833  41.8514149  40.6386723 113.4110895
  42.6274539  41.1283176 113.6835512  41.1262283  41.0644778 113.8682765
  44.2886708  41.3514343 114.4684836  44.8831198  41.1110079 113.7578144
  44.3613291  40.6321473 115.0958372  26.5083863  55.1947954 114.7828000
  26.3738331  54.4348354 114.2165999  26.0915926  55.9188853 114.3156789
  38.4740637  46.1294738 109.9106846  38.4175838  46.5863290 109.0714478
  39.0268979  45.3685423 109.7329689  42.2845442  41.9184470 110.7356965
  42.0282377  41.5181106 111.5665173  41.6598311  42.6328264 110.6107105
  46.5957780  44.6580543 113.2428257  46.0357338  44.7273733 114.0159819
  45.9901284  44.4821528 112.5227753  29.6652989  56.0917271 114.9946443
  29.5485373  57.0362703 114.8925133  28.8445435  55.7890832 115.3832242
  39.5529524  50.8167406 105.8403036  40.3875128  50.3848605 105.6580511
  39.3913867  50.6449420 106.7679930  39.2075416  47.3199520 107.2059375
  39.1524220  47.1543791 106.2647819  38.5821471  48.0275553 107.3621565
  32.5171541  36.8207629 106.7844694  32.5050211  37.7649469 106.9412964
  33.4094963  36.6377774 106.4904155  30.6907503  56.7445532 118.2102372
  31.5934750  56.7769143 118.5268867  30.4644873  55.8145983 118.2248707
  32.4461105  55.4976519 114.8712450  31.4956736  55.4978381 114.7576822
  32.7493591  54.7509254 114.3548485  48.1813799  61.3337057 115.9358213
  48.8192209  61.2143805 115.2321553  48.0634642  62.2817901 115.9946165
  44.9903505  61.2864486 115.8719737  44.6522017  61.1705550 114.9840272
  45.8593273  60.8855651 115.8520743  40.8490321  63.1399962 111.8616628
  40.2855186  63.0489899 111.0932916  40.7342716  62.3199866 112.3419121
  45.4723288  62.4399337 121.8305943  45.4611929  62.0452136 120.9586446
  45.6343928  61.7065410 122.4239714  38.3954753  64.6351154 114.7000849
  39.1876045  64.2941978 114.2847148  38.6351403  64.7446129 115.6203002
  46.4289880  66.8070930 107.1731093  45.7777859  67.3925010 106.7865107
  47.2234242  67.3377125 107.2326131  40.3545507  63.8960067 107.5718227
  41.1276383  63.3489054 107.4331103  40.7070906  64.7604316 107.7832689
  42.1930549  65.2236449 120.7785127  41.9020415  66.1282080 120.6631793
  42.8287534  65.2652977 121.4929196  43.1186756  62.6013298 117.3686486
  43.7150328  62.3769320 116.6543449  43.1761728  61.8598043 117.9711934
  47.7355067  59.0588511 113.0111421  48.5218157  58.6407934 112.6601838
  47.9993772  59.9634603 113.1793069  47.9065145  64.4961362 107.7100077
  47.2710978  64.5695988 108.4220982  47.5762551  65.0854960 107.0319157
  53.1363494  58.9963744 113.9144399  53.8688666  58.4262961 114.1482229
  52.3802850  58.6085345 114.3550905  42.4108073  61.9580839 107.4061052
  42.2944331  61.2825742 108.0742137  42.5210333  61.4713213 106.5893205
  44.7539614  61.4190986 111.1107742  44.3897821  60.8921607 111.8220663
  45.6106730  61.0289455 110.9374227  50.6588915  52.7085319 118.3739008
  50.3272240  53.5780730 118.1500223  50.0634528  52.3921603 119.0533038
  44.3945101  56.4480886 106.1069090  44.5619503  57.3161122 106.4739561
  44.2042270  56.6108167 105.1830379  47.1520434  64.9097865 117.7734920
  46.8521157  65.8122903 117.6650728  46.8071494  64.6430048 118.6256073
  40.6032916  61.3611661 113.8071625  39.6783412  61.2287876 114.0149317
  40.8517329  62.1405881 114.3041567  50.5517578  57.4280405 115.4532358
  49.6434455  57.3595813 115.1591119  50.5005174  57.9052350 116.2814183
  44.3734322  58.9038543 107.0915757  44.2533947  59.3495594 107.9301237
  43.6786910  59.2523861 106.5329295  37.9641727  61.0044935 114.6415414
  38.0934108  61.2579414 115.5554826  37.2839178  61.5972643 114.3220069
  42.1341214  71.6742185 110.7405888  42.0565244  72.6250010 110.8194369
  41.5302858  71.3288057 111.3980814  44.6258444  58.8470050 123.3967255
  43.8491778  59.4063970 123.3870120  45.2649007  59.3326833 123.9182125
  52.4179224  55.6296843 117.2310232  51.7753605  55.9229376 116.5850026
  51.9134153  55.5149763 118.0363428  50.0719388  59.3760016 107.9196091
  50.9837244  59.6087403 107.7443789  49.5629035  59.9597061 107.3571170
  42.8804816  61.6555504 122.9585222  43.6219501  62.1940548 122.6820046
  42.1741802  62.2821792 123.1156774  48.3560156  63.7984644 121.5557384
  48.7643512  63.3567055 120.8112016  47.6337417  63.2237272 121.8091576
  44.7091226  58.7357251 118.9290941  45.5552421  59.1596664 119.0725590
  44.6489864  58.0790875 119.6229504  48.6788970  64.3585835 115.3109672
  48.0497833  64.5231549 114.6085740  48.2914633  64.7727444 116.0820636
  52.5578202  65.2940273 112.6654036  51.8729241  65.6739174 112.1151070
  52.6422052  65.9035599 113.3985984  47.8590671  56.3961619 120.5872114
  47.6151603  57.1503680 120.0506390  48.1350602  56.7746967 121.4219361
  49.8129134  62.9400232 119.2649380  50.0246029  63.5831992 118.5883761
  49.7658882  62.1062548 118.7971310  47.4155363  55.5518052 116.1685952
  46.5539842  55.8499306 116.4602689  47.4417798  55.7688451 115.2366985
  44.2316932  64.0960243 112.5759758  44.6955278  64.3747946 111.7864380
  43.9673730  63.1943687 112.3932848  41.1241013  63.6431724 115.5139521
  41.6942370  64.0718993 114.8757005  41.7149125  63.3614309 116.2123706
  43.1685818  60.2183395 109.3849323  43.8709862  60.6704439 109.8523249
  42.8366447  59.5767214 110.0129216  41.6166180  58.8095152 123.7600532
  40.9864840  59.4911433 123.9935929  41.5102268  58.6978233 122.8153670
  36.9111152  58.4766948 114.6866456  36.1210206  58.7324476 114.2106567
  37.4022400  59.2915286 114.7918497  50.9274962  65.8172187 117.4371737
  51.7492406  65.4152374 117.1554419  50.9237365  65.7140421 118.3887853
  38.8625898  58.8411527 111.6449933  38.0657061  58.9530221 112.1633429
  38.6351490  59.1798179 110.7790823  44.6931565  65.3656230 119.5932448
  44.7575998  65.8276638 120.4290619  43.9842489  64.7353595 119.7214757
  35.1948855  58.7297438 117.1181447  35.4456894  59.6144448 117.3839023
  35.7308404  58.5502040 116.3456539  59.0180955  62.1610936 113.7856709
  58.2644663  61.5918334 113.6300713  59.1528496  62.1273600 114.7327343
  44.4079583  67.0324338 109.4611428  44.2725258  67.8775874 109.8896276
  44.9489396  67.2343616 108.6977362  37.8608980  64.5499776 110.0339353
  38.3733501  65.3443026 110.1844918  38.5131693  63.8526066 109.9672954
  39.6703865  67.6665532 112.1162106  39.8470493  68.5883497 111.9283090
  40.4660699  67.3523951 112.5456486  43.8114884  54.5273797 123.7146040
  44.5524597  55.1280950 123.6350502  44.0432806  53.7851435 123.1564082
  38.9556222  59.7130164 121.9924269  38.8409737  58.8115421 122.2931368
  38.1000739  59.9593861 121.6409086  46.0348059  67.6547904 123.5911770
  45.5911914  66.8684283 123.2732674  46.6965273  67.8427055 122.9255661
  40.7935181  69.1843706 118.1172448  41.3442606  69.0560769 117.3449442
  39.9546656  69.4838595 117.7667341  48.1329297  67.9350704 121.6193171
  48.1147773  68.7559585 121.1273440  49.0549218  67.8104780 121.8443312
  44.5902352  65.4494834 122.4616680  45.1230688  64.6883122 122.2315988
  44.0616433  65.1568486 123.2040834  47.7572047  50.5554900 117.9910321
  47.4136316  51.4456541 117.9149432  48.1251009  50.3656557 117.1279906
  35.8257897  62.8788430 110.8098924  36.6633119  63.2885439 110.5932631
  36.0036165  61.9387872 110.7799117  47.7222329  60.5463511 106.4982756
  47.2068953  61.3168116 106.7371144  47.4499638  59.8728647 107.1215818
  45.3069440  55.3913212 111.5567995  44.4511037  55.0020062 111.3773634
  45.7196392  55.4705172 110.6967780  46.8368587  52.9259555 115.9559555
  46.3333383  52.8889690 115.1427360  47.1299194  53.8352298 116.0156211
  43.0811473  53.0098285 114.9625736  43.9464470  52.8141093 114.6031626
  43.1488982  52.7808636 115.8895093  52.6956603  63.2995866 108.4335930
  51.9186046  62.9607025 107.9891092  53.3748084  63.3048489 107.7590895
  47.5108632  58.4190603 108.3242538  47.2058768  58.7336752 109.1752681
  48.4639075  58.4972023 108.3669871  45.9555064  64.5780826 109.9735492
  45.4276426  63.8433586 109.6608729  45.4542567  65.3555503 109.7275460
  50.9347910  62.7729847 115.0902538  50.2771585  63.4629108 115.1782667
  51.7388310  63.1626279 115.4336524  40.6873792  55.2400493 112.3342103
  41.2617544  55.0175674 111.6015296  41.2744774  55.3089187 113.0870704
  49.7453369  61.1274219 113.1406480  50.2585251  61.7604211 113.6428189
  50.3954593  60.5275415 112.7749840  41.0143379  57.2704954 106.3537988
  40.1780691  57.6079640 106.6747263  40.8748149  57.1353933 105.4165125
  42.9896460  52.1141741 111.0617173  42.3360872  51.7990759 110.4373787
  42.9476934  51.4917482 111.7876996  47.0075743  71.1058544 105.8967151
  46.3337442  71.4090240 106.5052109  47.3941565  71.9087624 105.5472608
  46.2234200  58.6023675 115.3864820  45.3056761  58.8238622 115.2286508
  46.6394344  58.6769985 114.5276528  47.0069248  60.0015091 110.5167500
  47.7541067  60.5136488 110.2074623  47.2760837  59.6799143 111.3771894
  45.2795898  62.4973631 107.4994455  44.3707117  62.2132664 107.5966925
  45.3090982  62.9172710 106.6397762  50.5115165  66.1080221 111.2685622
  50.0577492  65.2671131 111.3250813  49.8809132  66.7441619 111.6060402
  49.4548085  57.0372207 112.4986290  48.7170842  56.5249593 112.8296532
  49.7074858  56.5972589 111.6869567  48.9548105  67.9456718 112.2035440
  49.2471079  68.5061775 111.4847806  49.4646725  68.2385279 112.9588600
  49.5559712  49.8148459 113.0928059  49.8618589  48.9545822 112.8053974
  50.2812317  50.4066079 112.8927053  35.8484068  60.2179146 111.4809657
  35.6508468  59.6248506 110.7560724  35.2930732  59.9131356 112.1985596
  43.8280792  60.1102252 113.6004250  43.8829402  59.1576088 113.5246727
  43.0171994  60.2661691 114.0845549  41.7673152  58.7279312 111.3594629
  40.9541017  59.0273482 111.7659821  42.2632146  58.3335001 112.0769111
  43.9181730  68.7237069 113.2928894  43.8757909  68.9497915 112.3637426
  44.8344429  68.4900443 113.4414695  47.3647364  59.1921136 120.1909523
  47.7196751  59.4192609 121.0503989  48.0119495  59.5239513 119.5686778
  53.0945101  62.3139572 110.8958852  52.9562999  62.5041168 109.9680041
  52.7381319  63.0758955 111.3526903  41.2587227  56.2997667 116.9755864
  41.8986606  56.1586426 116.2778827  40.4264757  56.0132181 116.5994466
  53.1214480  64.3816099 115.9070123  53.5550987  64.2891388 116.7553177
  53.8346061  64.3573600 115.2690139  42.0347531  65.6000098 113.0890856
  42.8288129  65.1050418 112.8873431  41.3239223  65.0717961 112.7258562
  46.8542375  67.9818193 117.4403224  46.9079397  68.5509130 118.2080940
  45.9857156  68.1520078 117.0757261  38.3430294  59.7443179 109.1650609
  37.4127882  59.6827635 109.3820571  38.4387766  59.2219132 108.3687250
  38.2615843  56.2697992 111.7528851  38.5222660  57.1843326 111.6438011
  39.0833015  55.8022435 111.9025464  39.7340768  57.6835749 118.9227675
  40.4063822  57.4753112 118.2740324  38.9070555  57.4857835 118.4832908
  53.9830030  64.4239800 118.4403009  54.1765920  65.3285610 118.6862284
  53.8830648  63.9647219 119.2741594  45.6366340  54.3097690 120.9393336
  44.9894255  55.0087640 120.8457813  46.4067356  54.7433834 121.3069584
  49.0445138  64.5746543 124.0143889  48.8930645  64.3457094 123.0973973
  49.0349818  65.5317144 124.0275234  45.8130475  62.1478455 118.9990156
  46.7422535  62.2989615 118.8259123  45.3921505  62.2362476 118.1438802
  44.6118807  66.1729120 116.7688693  44.4729892  65.8047904 117.6414632
  43.8233403  66.6876759 116.5972651  45.2066959  71.2738216 108.1114230
  45.3818714  70.8026259 108.9259853  44.5199747  71.9003982 108.3395491
  46.1624022  65.5510722 114.1577531  45.8273854  65.5111492 115.0535181
  45.6627967  64.8855438 113.6847941  40.1368266  60.9578352 119.6830112
  39.9988064  60.2258591 120.2841651  41.0473189  60.8687253 119.4014300
  42.7650566  60.6698312 119.1713792  43.4750185  60.0291504 119.1300410
  42.7219874  60.9211207 120.0939973  50.7537345  67.6065665 122.0920371
  50.6949891  66.9224885 121.4250954  51.1556863  68.3484655 121.6400997
  41.4779500  57.6563530 120.9909432  40.9416857  57.2054268 121.6431028
  40.8896209  57.7909438 120.2479896  39.7728044  74.4227579 114.8854090
  40.0124642  75.0546103 115.5633109  38.9297240  74.0715619 115.1719449
  50.7554752  65.5705249 120.3234351  49.8681531  65.2331171 120.4460750
  51.3253303  64.8388280 120.5603116  32.4083899  61.9029341 113.6477402
  33.0954939  61.5891071 113.0598418  32.2532028  62.8070705 113.3744654
  37.2118622  56.7919537 118.0762426  37.1276810  56.1845207 117.3412836
  36.3901328  57.2828556 118.0771922  44.2855906  70.2306701 117.2895594
  44.2126077  71.0361673 117.8014899  43.8433299  70.4298667 116.4643616
  44.0745685  69.4678471 110.7998416  43.2913207  70.0100152 110.8936640
  44.7738430  69.9852451 111.1992657  47.3842335  55.2773101 113.4432621
  47.8811035  54.5243063 113.1233691  46.6129317  55.3137418 112.8775830
  55.2372093  60.9813466 115.0850913  55.2261969  61.8638182 114.7144846
  54.3689472  60.6285017 114.8905450  46.7454589  70.1293535 119.4453753
  47.4582561  70.7641000 119.3729654  46.2544618  70.2257401 118.6293755
  48.4672116  64.0344788 111.0171044  47.5328395  64.1546251 110.8475749
  48.6448785  63.1317255 110.7531054  43.9677304  57.4190484 113.1704306
  43.5975092  56.8661524 113.8585211  44.4636397  56.8148617 112.6179306
  51.8544667  59.8762107 111.5521079  52.3205120  60.7090099 111.4781381
  52.3052168  59.4107089 112.2566337  41.7966503  67.8787979 120.2659324
  42.4975962  68.5124462 120.4188718  41.3261618  68.2202710 119.5054963
  49.9220899  66.2205929 108.5507231  50.1980742  66.1062523 109.4601105
  49.0525397  65.8223413 108.5119404  49.8261330  52.2442694 115.5911980
  48.9124410  52.4746921 115.7594187  50.2554432  52.3281138 116.4426012
  49.5967789  60.4332586 118.0911874  48.9439239  60.6808494 117.4364327
  49.9748169  59.6196724 117.7574351  46.5574963  70.4692279 112.1940044
  46.7397357  69.6513935 112.6567797  47.3807949  70.6859972 111.7564934
  46.8917128  69.3960465 109.4555093  47.4204894  68.8852919 108.8425255
  47.1545348  69.0802995 110.3200626  45.6455362  61.1752397 124.5777911
  44.9695999  61.0746527 125.2480286  46.4682996  61.0191611 125.0413908
  37.3934221  67.4124334 117.1990426  37.9787658  66.6668022 117.3318331
  37.1959059  67.7228291 118.0827090  40.2472876  70.4475581 112.2152869
  39.5783251  70.9321709 111.7316909  40.1085746  70.6944802 113.1296247
  31.9851876  59.9829934 115.9194869  32.0235975  59.4493525 116.7131988
  31.4792168  59.4565140 115.3005847  44.3878145  72.4819325 118.8135527
  44.9396453  72.6450946 119.5784612  44.7284338  73.0723763 118.1415552
  39.3642638  54.8294475 119.4157412  39.4283964  55.6909306 119.0034809
  39.3009758  54.2168476 118.6829770  38.8394910  56.9017607 123.0630446
  39.4666949  56.5194684 123.6767970  37.9822829  56.6831809 123.4286139
  49.2389019  67.3080582 124.6684181  49.7828923  67.9210541 124.1739136
  48.6575864  67.8660161 125.1851195  35.6160453  58.7094036 108.9948801
  35.9113894  57.8004715 108.9415855  34.7148489  58.6881776 108.6729803
  47.5246532  70.4301300 115.7999209  47.3997671  69.6291040 115.2910155
  48.1825623  70.9247494 115.3113179  39.1454700  56.7850033 114.9776349
  38.4241286  57.3986001 114.8383823  39.9347956  57.3207798 114.8992995
  49.5881440  68.2310320 117.4278759  48.6411776  68.1115672 117.3557086
  49.9364213  67.3432818 117.5105021  41.9481014  54.1204459 121.2517001
  42.4715415  54.3666756 122.0143311  41.7293347  54.9524494 120.8320139
  37.3448295  56.3908134 109.1188126  37.0161001  55.5105513 108.9363232
  37.6987665  56.3355803 110.0064515  46.5927874  68.0263037 113.6283112
  46.4452836  67.0979744 113.8090682  47.4181367  68.0483127 113.1440187
  40.4590118  56.6781104 109.4863604  40.7986190  57.2067025 108.7642212
  40.9062238  57.0161510 110.2622170  50.1961995  68.8491595 114.7147984
  51.1208543  68.6434457 114.5772435  50.0277299  68.6007997 115.6237326
  43.1533559  55.0618154 118.9366672  42.8130379  54.2625968 119.3387352
  42.4472565  55.3619865 118.3643505  43.8050030  52.1467467 117.3893995
  44.6276100  51.6727945 117.2672885  44.0488094  52.9257951 117.8892681
  42.4458265  55.1755725 107.6856896  43.1666627  55.5536978 107.1820613
  41.8223569  55.8944602 107.7891874  46.5889388  55.8800874 108.6215229
  46.8053002  56.7625512 108.3204057  46.1083455  55.4887088 107.8920871
  41.3288609  58.8386588 115.1985973  41.1833190  59.1526891 116.0910255
  40.8513813  59.4571488 114.6456872  43.1884992  55.8289136 115.2466863
  43.1746561  54.9330229 114.9099161  43.9057420  55.8359799 115.8805149
  45.0411123  56.2626476 117.2919990  44.7828901  57.1843546 117.2904321
  44.5096163  55.8656910 117.9820455  49.9857312  69.3677263 110.0710076
  50.1594189  68.8023685 109.3183928  50.4786203  70.1678158 109.8889566
  35.8034271  61.3791932 118.1373635  35.2587739  62.1551740 118.2693909
  36.6813621  61.7262736 117.9792756  42.5921888  54.7103516 110.5154433
  42.7137799  53.7820162 110.7145321  42.3023930  54.7242202 109.6032748
  45.4613078  52.3958426 113.6521153  45.4834775  52.4597759 112.6973132
  45.8781137  51.5562935 113.8461659  55.8396703  62.1313686 111.6900375
  56.2827849  61.3821011 111.2919499  54.9623213  62.1223822 111.3074107
  50.9732484  68.6844027 107.1706974  51.6683389  69.3050720 107.3894289
  51.3155634  67.8339378 107.4459352  36.5900293  60.5061828 121.0303791
  35.8482029  60.6544464 121.6168422  36.2693038  60.7670094 120.1670541
  52.8723907  66.1343733 108.6994305  53.3975231  66.4731006 107.9743625
  52.7846260  65.1990748 108.5157439  44.5343956  70.0477806 120.8284181
  44.8431082  69.8026953 121.7006881  45.3319438  70.2524445 120.3403052
  44.5564568  72.2015716 113.0589558  44.1169558  71.7092095 113.7522415
  45.3072685  71.6588684 112.8181633  37.0356907  68.3927257 113.0614186
  37.8614927  68.0931029 112.6812830  36.6850959  67.6234879 113.5103975
  42.0038440  67.7453725 115.1311860  41.3818449  67.0824430 114.8314088
  42.6743307  67.7714857 114.4485507  35.2365512  66.3113583 114.0203120
  34.3997420  65.8835758 113.8387121  35.2089157  66.5046027 114.9573911
  42.0762968  56.2235513 124.7244366  42.1251123  57.0997636 124.3422135
  42.6185482  55.6812906 124.1516009  52.5617813  66.7676636 124.0045503
  51.7713357  66.7500775 123.4650002  52.3251168  67.3064930 124.7594539
  52.6815688  63.6169103 121.3178231  52.7313693  63.4519110 122.2593754
  52.5729612  62.7496362 120.9276112  41.5651947  66.2957648 108.6070320
  41.7140067  66.9793113 107.9536993  42.3718390  66.2762739 109.1219776
  49.9719451  59.6000031 122.6337538  50.8729313  59.4606496 122.3421536
  50.0467425  59.7654486 123.5735715  44.3062256  56.9766886 121.4790724
  43.4365565  57.2700452 121.2073313  44.5421736  57.5607331 122.1997988
  54.1833885  66.0366044 121.5620253  53.8918693  66.3996025 122.3983714
  53.5706016  65.3233053 121.3833585  55.3829567  63.6018924 114.0822823
  56.2176459  64.0408728 114.2460383  55.5188696  63.1257577 113.2631069
  52.4321073  61.1598659 120.0300311  52.9075195  61.3526305 119.2219162
  51.5086639  61.2157845 119.7843694  39.3204580  62.3222826 109.6131389
  39.0750622  61.4185156 109.8111599  39.4900495  62.3239977 108.6710867
  47.0101290  53.1946502 118.9956145  47.5283234  53.9307529 118.6702633
  46.6556423  53.5010496 119.8302904  38.5900228  58.0551184 107.1117551
  37.8969472  58.1295539 106.4557587  38.3451979  57.2911527 107.6339067
  47.2613884  49.6146785 114.5157041  47.5415638  48.9469974 115.1417468
  48.0464491  49.8075881 114.0031705  45.0647353  68.7905779 106.0782068
  44.4921320  69.4095966 105.6252539  45.6380146  69.3405141 106.6121990
  51.1322742  58.0364419 118.2628616  52.0840165  58.1362517 118.2840840
  50.9626193  57.2442688 118.7726701  49.1537122  55.1220002 118.4488017
  48.5587054  55.4025015 117.7534506  48.8686819  55.6113903 119.2204758
  48.2844612  69.0742929 107.2090650  49.2175285  69.0088491 107.4123525
  48.1967825  69.9099196 106.7505183  53.6110820  61.2570539 117.3770916
  53.5787140  60.3186539 117.5630600  54.2211444  61.3354575 116.6436741
  53.7605309  58.0481582 117.4229199  53.2444357  57.2640039 117.2359128
  54.6445257  57.7200299 117.5875719  51.4216036  51.7922598 113.3825012
  51.2240857  51.4837686 114.2668344  52.0315741  52.5184237 113.5122942
  59.4287370  62.3186546 116.5176953  60.1590759  62.0571834 117.0784656
  58.8194316  61.5815267 116.5579021  57.5102667  60.4594408 117.1151404
  56.7835831  60.3250373 116.5067896  57.0949954  60.7671237 117.9208122
  45.3332844  64.1784338 124.8798777  46.2535853  64.3562937 125.0738824
  45.2982427  63.2340383 124.7278476  34.5515009  59.3722931 113.8052052
  34.2317793  58.5188240 113.5126426  34.0048437  59.5871510 114.5610019
  38.3294916  62.0885372 117.5221558  38.5480926  63.0202480 117.5409592
  38.7420690  61.7293347 118.3076362  45.2499134  52.5953458 109.5097247
  44.4399862  52.2500543 109.8852493  45.9383551  52.2861002 110.0984858
  47.1789682  51.6731505 111.1321543  47.7320721  52.0926958 111.7911566
  47.4159769  50.7467253 111.1744499  34.4203269  62.9925843 115.7745173
  33.7266740  62.5779796 115.2615128  35.1676260  63.0346379 115.1778592
  50.5568489  53.7832030 110.6400208  49.9767158  54.4416834 110.2578260
  50.2904422  52.9609374 110.2287625  49.0072056  53.1837087 112.8421528
  49.5071834  53.2953622 112.0335847  49.6507664  52.8798140 113.4822336
  43.0654052  61.0915717 125.7289369  42.5821133  61.8916077 125.9353258
  43.1514991  61.1023662 124.7756813  36.3340011  62.9244097 113.6511188
  36.3110699  63.0231784 112.6993071  36.6440648  63.7709248 113.9728354
  38.9927389  64.9820252 117.7657803  39.9470643  64.9504194 117.6987734
  38.7939913  64.5210876 118.5808029  39.5826771  63.5521368 120.3328600
  40.4019660  64.0465446 120.3563438  39.8563579  62.6353336 120.3046168
  49.3393367  55.9432120 109.6956556  48.4519222  56.2281771 109.4776751
  49.7547356  55.7825883 108.8483833  52.6907903  55.9678641 113.4110895
  53.4668294  56.4575094 113.6835512  51.9656038  56.3936695 113.8682765
  55.1280462  56.6806260 114.4684836  55.7224953  56.4401996 113.7578144
  55.2007046  55.9613391 115.0958372  37.3477618  70.5239871 114.7828000
  37.2132086  69.7640272 114.2165999  36.9309680  71.2480771 114.3156789
  49.3134391  61.4586656 109.9106846  49.2569592  61.9155207 109.0714478
  49.8662734  60.6977341 109.7329689  53.1239197  57.2476388 110.7356965
  52.8676131  56.8473024 111.5665173  52.4992065  57.9620182 110.6107105
  57.4351535  59.9872461 113.2428257  56.8751093  60.0565650 114.0159819
  56.8295038  59.8113446 112.5227753  40.5046744  71.4209188 114.9946443
  40.3879128  72.3654621 114.8925133  39.6839190  71.1182750 115.3832242
  50.3923278  66.1459324 105.8403036  51.2268882  65.7140522 105.6580511
  50.2307621  65.9741338 106.7679930  50.0469170  62.6491437 107.2059375
  49.9917974  62.4835709 106.2647819  49.4215226  63.3567470 107.3621565
  34.8361685  57.8859502 121.0320797  35.4820549  57.3758456 121.5208023
  34.6278836  58.6228183 121.6064223  47.3615078  64.9540349 126.5312938
  48.2306237  65.1281001 126.1699573  46.8821829  65.7734766 126.4088667
  43.3565296  52.1499546 106.7844694  43.3443966  53.0941386 106.9412964
  44.2488718  51.9669692 106.4904155  41.5301258  72.0737450 118.2102372
  42.4328504  72.1061060 118.5268867  41.3038628  71.1437901 118.2248707
  43.2854860  70.8268437 114.8712450  42.3350491  70.8270298 114.7576822
  43.5887346  70.0801171 114.3548485  47.1717415  48.7442323 111.0390630
  46.4049811  48.1900810 111.1847313  47.5828120  48.8164192 111.9004782
  59.0207553  76.6628975 115.9358213  59.6585963  76.5435722 115.2321553
  58.9028396  77.6109819 115.9946165  55.8297260  76.6156403 115.8719737
  55.4915771  76.4997468 114.9840272  56.6987028  76.2147568 115.8520743
  51.6884075  78.4691880 111.8616628  51.1248940  78.3781817 111.0932916
  51.5736470  77.6491784 112.3419121  56.3117043  77.7691255 121.8305943
  56.3005683  77.3744053 120.9586446  56.4737682  77.0357328 122.4239714
  49.2348507  79.9643071 114.7000849  50.0269799  79.6233896 114.2847148
  49.4745157  80.0738046 115.6203002  57.2683634  82.1362847 107.1731093
  56.6171614  82.7216928 106.7865107  58.0627997  82.6669042 107.2326131
  51.1939261  79.2251984 107.5718227  51.9670137  78.6780972 107.4331103
  51.5464660  80.0896234 107.7832689  53.0324304  80.5528367 120.7785127
  52.7414170  81.4573998 120.6631793  53.6681288  80.5944894 121.4929196
  53.9580511  77.9305215 117.3686486  54.5544083  77.7061238 116.6543449
  54.0155482  77.1889961 117.9711934  53.5305539  75.3844651 105.2036677
  53.7831060  74.8626172 104.4420140  52.5930098  75.2210796 105.3063361
  58.5748822  74.3880429 113.0111421  59.3611911  73.9699852 112.6601838
  58.8387526  75.2926521 113.1793069  58.7458899  79.8253279 107.7100077
  58.1104732  79.8987906 108.4220982  58.4156306  80.4146878 107.0319157
  63.9757249  74.3255662 113.9144399  64.7082421  73.7554879 114.1482229
  63.2196605  73.9377263 114.3550905  53.2501828  77.2872757 107.4061052
  53.1338086  76.6117660 108.0742137  53.3604088  76.8005130 106.5893205
  55.5933369  76.7482904 111.1107742  55.2291576  76.2213525 111.8220663
  56.4500485  76.3581373 110.9374227  61.4982669  68.0377236 118.3739008
  61.1665994  68.9072647 118.1500223  60.9028283  67.7213520 119.0533038
  55.2338856  71.7772803 106.1069090  55.4013258  72.6453040 106.4739561
  55.0436025  71.9400085 105.1830379  57.9914189  80.2389782 117.7734920
  57.6914912  81.1414821 117.6650728  57.6465248  79.9721965 118.6256073
  51.4426670  76.6903579 113.8071625  50.5177167  76.5579793 114.0149317
  51.6911083  77.4697798 114.3041567  61.3911333  72.7572322 115.4532358
  60.4828210  72.6887731 115.1591119  61.3398928  73.2344267 116.2814183
  55.2128076  74.2330461 107.0915757  55.0927702  74.6787512 107.9301237
  54.5180665  74.5815779 106.5329295  48.8035481  76.3336853 114.6415414
  48.9327862  76.5871332 115.5554826  48.1232933  76.9264561 114.3220069
  52.9734969  87.0034103 110.7405888  52.8958998  87.9541928 110.8194369
  52.3696612  86.6579975 111.3980814  55.4652198  74.1761968 123.3967255
  54.6885532  74.7355888 123.3870120  56.1042761  74.6618751 123.9182125
  63.2572979  70.9588761 117.2310232  62.6147359  71.2521294 116.5850026
  62.7527907  70.8441681 118.0363428  60.9113143  74.7051934 107.9196091
  61.8230999  74.9379321 107.7443789  60.4022790  75.2888978 107.3571170
  53.7198571  76.9847421 122.9585222  54.4613255  77.5232465 122.6820046
  53.0135556  77.6113710 123.1156774  59.1953910  79.1276562 121.5557384
  59.6037266  78.6858972 120.8112016  58.4731172  78.5529189 121.8091576
  55.5484980  74.0649169 118.9290941  56.3946176  74.4888582 119.0725590
  55.4883618  73.4082793 119.6229504  59.5182725  79.6877752 115.3109672
  58.8891587  79.8523467 114.6085740  59.1308387  80.1019362 116.0820636
  63.3971957  80.6232190 112.6654036  62.7122995  81.0031092 112.1151070
  63.4815806  81.2327517 113.3985984  58.6984426  71.7253537 120.5872114
  58.4545358  72.4795598 120.0506390  58.9744356  72.1038885 121.4219361
  60.6522888  78.2692149 119.2649380  60.8639784  78.9123909 118.5883761
  60.6052637  77.4354466 118.7971310  58.2549117  70.8809970 116.1685952
  57.3933596  71.1791224 116.4602689  58.2811552  71.0980369 115.2366985
  55.0710687  79.4252161 112.5759758  55.5349032  79.7039864 111.7864380
  54.8067485  78.5235605 112.3932848  51.9634768  78.9723642 115.5139521
  52.5336125  79.4010910 114.8757005  52.5542880  78.6906227 116.2123706
  54.0079573  75.5475313 109.3849323  54.7103616  75.9996357 109.8523249
  53.6760201  74.9059132 110.0129216  52.4559934  74.1387070 123.7600532
  51.8258595  74.8203350 123.9935929  52.3496022  74.0270151 122.8153670
  47.7504907  73.8058866 114.6866456  46.9603961  74.0616394 114.2106567
  48.2416154  74.6207203 114.7918497  61.7668716  81.1464105 117.4371737
  62.5886160  80.7444292 117.1554419  61.7631119  81.0432339 118.3887853
  49.7019652  74.1703445 111.6449933  48.9050815  74.2822139 112.1633429
  49.4745244  74.5090097 110.7790823  55.5325320  80.6948148 119.5932448
  55.5969752  81.1568555 120.4290619  54.8236244  80.0645513 119.7214757
  46.0342610  74.0589356 117.1181447  46.2850648  74.9436366 117.3839023
  46.5702158  73.8793958 116.3456539  69.8574709  77.4902853 113.7856709
  69.1038418  76.9210251 113.6300713  69.9922251  77.4565518 114.7327343
  55.2473337  82.3616256 109.4611428  55.1119012  83.2067791 109.8896276
  55.7883150  82.5635533 108.6977362  51.7340677  68.4407835 126.1225783
  51.3407623  67.8874034 126.7973427  52.5506817  68.7518414 126.5132301
  48.7002735  79.8791694 110.0339353  49.2127255  80.6734944 110.1844918
  49.3525448  79.1817984 109.9672954  50.5097620  82.9957450 112.1162106
  50.6864248  83.9175415 111.9283090  51.3054453  82.6815869 112.5456486
  54.6508638  69.8565714 123.7146040  55.3918351  70.4572868 123.6350502
  54.8826561  69.1143352 123.1564082  49.7949976  75.0422082 121.9924269
  49.6803491  74.1407339 122.2931368  48.9394494  75.2885779 121.6409086
  56.8741814  82.9839822 123.5911770  56.4305668  82.1976201 123.2732674
  57.5359027  83.1718973 122.9255661  51.6328935  84.5135624 118.1172448
  52.1836360  84.3852687 117.3449442  50.7940411  84.8130513 117.7667341
  58.9723052  83.2642622 121.6193171  58.9541527  84.0851503 121.1273440
  59.8942972  83.1396697 121.8443312  55.4296106  80.7786751 122.4616680
  55.9624443  80.0175040 122.2315988  54.9010187  80.4860403 123.2040834
  58.5965801  65.8846817 117.9910321  58.2530070  66.7748459 117.9149432
  58.9644764  65.6948475 117.1279906  46.6651652  78.2080348 110.8098924
  47.5026874  78.6177356 110.5932631  46.8429919  77.2679790 110.7799117
  58.5616084  75.8755429 106.4982756  58.0462707  76.6460033 106.7371144
  58.2893392  75.2020565 107.1215818  56.1463195  70.7205129 111.5567995
  55.2904791  70.3311980 111.3773634  56.5590147  70.7997090 110.6967780
  57.6762341  68.2551473 115.9559555  57.1727137  68.2181608 115.1427360
  57.9692948  69.1644215 116.0156211  53.9205227  68.3390202 114.9625736
  54.7858224  68.1433011 114.6031626  53.9882736  68.1100554 115.8895093
  63.5350358  78.6287783 108.4335930  62.7579801  78.2898943 107.9891092
  64.2141839  78.6340406 107.7590895  58.3502387  73.7482521 108.3242538
  58.0452523  74.0628670 109.1752681  59.3032829  73.8263941 108.3669871
  56.7948819  79.9072744 109.9735492  56.2670180  79.1725504 109.6608729
  56.2936322  80.6847420 109.7275460  61.7741665  78.1021764 115.0902538
  61.1165339  78.7921026 115.1782667  62.5782064  78.4918196 115.4336524
  51.5267546  70.5692410 112.3342103  52.1011298  70.3467592 111.6015296
  52.1138529  70.6381105 113.0870704  60.5847124  76.4566137 113.1406480
  61.0979005  77.0896129 113.6428189  61.2348348  75.8567333 112.7749840
  51.8537134  72.5996871 106.3537988  51.0174446  72.9371558 106.6747263
  51.7141903  72.4645851 105.4165125  53.8290214  67.4433659 111.0617173
  53.1754626  67.1282676 110.4373787  53.7870688  66.8209400 111.7876996
  54.9401419  77.7252954 102.9770465  54.0328481  77.4942208 103.1761614
  55.4372451  76.9290573 103.1644446  57.8469498  86.4350461 105.8967151
  57.1731197  86.7382158 106.5052109  58.2335320  87.2379542 105.5472608
  57.0627954  73.9315593 115.3864820  56.1450516  74.1530540 115.2286508
  57.4788098  74.0061903 114.5276528  57.8463002  75.3307008 110.5167500
  58.5934821  75.8428406 110.2074623  58.1154592  75.0091061 111.3771894
  56.1189652  77.8265549 107.4994455  55.2100872  77.5424582 107.5966925
  56.1484736  78.2464628 106.6397762  61.3508920  81.4372139 111.2685622
  60.8971247  80.5963048 111.3250813  60.7202887  82.0733537 111.6060402
  60.2941839  72.3664125 112.4986290  59.5564596  71.8541511 112.8296532
  60.5468613  71.9264506 111.6869567  59.7941859  83.2748635 112.2035440
  60.0864833  83.8353692 111.4847806  60.3040480  83.5677196 112.9588600
  60.3953467  65.1440377 113.0928059  60.7012344  64.2837740 112.8053974
  61.1206072  65.7357997 112.8927053  46.6877823  75.5471063 111.4809657
  46.4902223  74.9540424 110.7560724  46.1324487  75.2423273 112.1985596
  54.6674546  75.4394170 113.6004250  54.7223156  74.4868006 113.5246727
  53.8565748  75.5953609 114.0845549  55.8165740  79.3674293 104.8382533
  55.3785170  78.6510152 104.3788171  56.5576181  79.5950408 104.2767625
  52.6066906  74.0571229 111.3594629  51.7934772  74.3565400 111.7659821
  53.1025901  73.6626918 112.0769111  54.7575484  84.0528986 113.2928894
  54.7151663  84.2789833 112.3637426  55.6738183  83.8192361 113.4414695
  58.2041118  74.5213054 120.1909523  58.5590506  74.7484527 121.0503989
  58.8513249  74.8531431 119.5686778  63.9338855  77.6431490 110.8958852
  63.7956754  77.8333086 109.9680041  63.5775074  78.4050873 111.3526903
  52.0980981  71.6289585 116.9755864  52.7380360  71.4878344 116.2778827
  51.2658512  71.3424098 116.5994466  63.9608235  79.7108017 115.9070123
  64.3944741  79.6183306 116.7553177  64.6739815  79.6865517 115.2690139
  52.8741285  80.9292015 113.0890856  53.6681884  80.4342336 112.8873431
  52.1632977  80.4009879 112.7258562  57.6936130  83.3110111 117.4403224
  57.7473152  83.8801047 118.2080940  56.8250911  83.4811996 117.0757261
  49.1824049  75.0735097 109.1650609  48.2521637  75.0119553 109.3820571
  49.2781521  74.5511050 108.3687250  49.1009598  71.5989910 111.7528851
  49.3616415  72.5135243 111.6438011  49.9226770  71.1314353 111.9025464
  50.5734523  73.0127667 118.9227675  51.2457576  72.8045029 118.2740324
  49.7464309  72.8149753 118.4832908  64.8223784  79.7531717 118.4403009
  65.0159674  80.6577528 118.6862284  64.7224402  79.2939137 119.2741594
  56.4760095  69.6389608 120.9393336  55.8288010  70.3379558 120.8457813
  57.2461110  70.0725752 121.3069584  59.8838893  79.9038460 124.0143889
  59.7324399  79.6749012 123.0973973  59.8743572  80.8609062 124.0275234
  56.6524229  77.4770373 118.9990156  57.5816289  77.6281533 118.8259123
  56.2315259  77.5654394 118.1438802  55.4512561  81.5021037 116.7688693
  55.3123647  81.1339822 117.6414632  54.6627157  82.0168677 116.5972651
  56.0460713  86.6030134 108.1114230  56.2212469  86.1318177 108.9259853
  55.3593501  87.2295900 108.3395491  57.0017776  80.8802640 114.1577531
  56.6667609  80.8403410 115.0535181  56.5021722  80.2147356 113.6847941
  50.9762020  76.2870270 119.6830112  50.8381818  75.5550509 120.2841651
  51.8866944  76.1979170 119.4014300  59.9376968  78.2258674 104.4314591
  59.3206138  77.5005503 104.3347644  59.4693456  78.9868035 104.0881665
  53.6044321  75.9990229 119.1713792  54.3143939  75.3583422 119.1300410
  53.5613629  76.2503124 120.0939973  61.5931099  82.9357583 122.0920371
  61.5343646  82.2516803 121.4250954  61.9950618  83.6776573 121.6400997
  52.3173255  72.9855447 120.9909432  51.7810612  72.5346186 121.6431028
  51.7289963  73.1201356 120.2479896  50.6121798  89.7519497 114.8854090
  50.8518397  90.3838021 115.5633109  49.7690995  89.4007537 115.1719449
  61.5948507  80.8997167 120.3234351  60.7075286  80.5623088 120.4460750
  62.1647058  80.1680198 120.5603116  43.2477654  77.2321258 113.6477402
  43.9348694  76.9182988 113.0598418  43.0925783  78.1362623 113.3744654
  48.0512376  72.1211455 118.0762426  47.9670565  71.5137125 117.3412836
  47.2295082  72.6120473 118.0771922  55.1249660  85.5598619 117.2895594
  55.0519832  86.3653591 117.8014899  54.6827053  85.7590585 116.4643616
  54.9139440  84.7970389 110.7998416  54.1306962  85.3392069 110.8936640
  55.6132185  85.3144369 111.1992657  58.2236090  70.6065019 113.4432621
  58.7204789  69.8534981 113.1233691  57.4523071  70.6429335 112.8775830
  66.0765847  76.3105384 115.0850913  66.0655724  77.1930099 114.7144846
  65.2083227  75.9576935 114.8905450  57.5848344  85.4585453 119.4453753
  58.2976316  86.0932918 119.3729654  57.0938372  85.5549319 118.6293755
  59.3065871  79.3636706 111.0171044  58.3722149  79.4838168 110.8475749
  59.4842539  78.4609173 110.7531054  54.8071059  72.7482402 113.1704306
  54.4368846  72.1953442 113.8585211  55.3030151  72.1440535 112.6179306
  62.6938422  75.2054025 111.5521079  63.1598874  76.0382017 111.4781381
  63.1445922  74.7399007 112.2566337  52.6360257  83.2079897 120.2659324
  53.3369717  83.8416380 120.4188718  52.1655372  83.5494628 119.5054963
  60.7614653  81.5497846 108.5507231  61.0374497  81.4354441 109.4601105
  59.8919152  81.1515331 108.5119404  60.6655085  67.5734612 115.5911980
  59.7518164  67.8038839 115.7594187  61.0948186  67.6573056 116.4426012
  60.4361543  75.7624504 118.0911874  59.7832993  76.0100411 117.4364327
  60.8141923  74.9488642 117.7574351  57.3968717  85.7984197 112.1940044
  57.5791112  84.9805853 112.6567797  58.2201703  86.0151889 111.7564934
  57.7310883  84.7252382 109.4555093  58.2598649  84.2144837 108.8425255
  57.9939102  84.4094913 110.3200626  56.4849116  76.5044315 124.5777911
  55.8089753  76.4038444 125.2480286  57.3076750  76.3483529 125.0413908
  48.2327975  82.7416252 117.1990426  48.8181412  81.9959939 117.3318331
  48.0352814  83.0520208 118.0827090  51.0866630  85.7767499 112.2152869
  50.4177006  86.2613627 111.7316909  50.9479500  86.0236719 113.1296247
  42.8245630  75.3121852 115.9194869  42.8629730  74.7785442 116.7131988
  42.3185923  74.7857057 115.3005847  55.2271899  87.8111242 118.8135527
  55.7790207  87.9742864 119.5784612  55.5678093  88.4015680 118.1415552
  50.2036392  70.1586392 119.4157412  50.2677719  71.0201223 119.0034809
  50.1403513  69.5460394 118.6829770  49.6788665  72.2309525 123.0630446
  50.3060704  71.8486602 123.6767970  48.8216584  72.0123727 123.4286139
  46.4554208  74.0385954 108.9948801  46.7507649  73.1296632 108.9415855
  45.5542243  74.0173693 108.6729803  58.3640286  85.7593218 115.7999209
  58.2391426  84.9582958 115.2910155  59.0219377  86.2539411 115.3113179
  49.9848455  72.1141951 114.9776349  49.2635040  72.7277918 114.8383823
  50.7741710  72.6499715 114.8992995  60.4275195  83.5602238 117.4278759
  59.4805530  83.4407589 117.3557086  60.7757968  82.6724736 117.5105021
  52.7874768  69.4496377 121.2517001  53.3109170  69.6958674 122.0143311
  52.5687101  70.2816412 120.8320139  48.1842049  71.7200052 109.1188126
  47.8554755  70.8397431 108.9363232  48.5381420  71.6647720 110.0064515
  57.4321628  83.3554954 113.6283112  57.2846590  82.4271662 113.8090682
  58.2575122  83.3775045 113.1440187  51.2983872  72.0073021 109.4863604
  51.6379945  72.5358943 108.7642212  51.7455993  72.3453428 110.2622170
  61.0355750  84.1783513 114.7147984  61.9602297  83.9726374 114.5772435
  60.8671053  83.9299914 115.6237326  53.9927313  70.3910072 118.9366672
  53.6524134  69.5917885 119.3387352  53.2866319  70.6911783 118.3643505
  54.6443785  67.4759385 117.3893995  55.4669854  67.0019863 117.2672885
  54.8881849  68.2549868 117.8892681  53.2852019  70.5047643 107.6856896
  54.0060382  70.8828896 107.1820613  52.6617324  71.2236520 107.7891874
  57.4283142  71.2092792 108.6215229  57.6446757  72.0917430 108.3204057
  56.9477210  70.8179005 107.8920871  52.1682364  74.1678505 115.1985973
  52.0226944  74.4818808 116.0910255  51.6907567  74.7863406 114.6456872
  54.0278747  71.1581053 115.2466863  54.0140315  70.2622146 114.9099161
  54.7451175  71.1651717 115.8805149  55.8804877  71.5918393 117.2919990
  55.6222655  72.5135464 117.2904321  55.3489918  71.1948828 117.9820455
  60.8251066  84.6969180 110.0710076  60.9987944  84.1315603 109.3183928
  61.3179957  85.4970075 109.8889566  46.6428026  76.7083850 118.1373635
  46.0981494  77.4843658 118.2693909  47.5207376  77.0554654 117.9792756
  53.4315643  70.0395433 110.5154433  53.5531554  69.1112080 110.7145321
  53.1417685  70.0534119 109.6032748  56.3006833  67.7250344 113.6521153
  56.3228530  67.7889677 112.6973132  56.7174892  66.8854853 113.8461659
  66.6790457  77.4605603 111.6900375  67.1221603  76.7112929 111.2919499
  65.8016968  77.4515740 111.3074107  61.8126239  84.0135945 107.1706974
  62.5077143  84.6342638 107.3894289  62.1549389  83.1631296 107.4459352
  47.4294048  75.8353746 121.0303791  46.6875784  75.9836381 121.6168422
  47.1086792  76.0962011 120.1670541  63.7117662  81.4635650 108.6994305
  64.2368986  81.8022923 107.9743625  63.6240014  80.5282666 108.5157439
  55.3737710  85.3769724 120.8284181  55.6824837  85.1318871 121.7006881
  56.1713192  85.5816363 120.3403052  55.3958322  87.5307634 113.0589558
  54.9563313  87.0384012 113.7522415  56.1466439  86.9880601 112.8181633
  47.8750661  83.7219175 113.0614186  48.7008681  83.4222946 112.6812830
  47.5244713  82.9526797 113.5103975  52.8432195  83.0745643 115.1311860
  52.2212204  82.4116348 114.8314088  53.5137062  83.1006775 114.4485507
  46.0759266  81.6405501 114.0203120  45.2391175  81.2127675 113.8387121
  46.0482912  81.8337944 114.9573911  52.9156722  71.5527431 124.7244366
  52.9644878  72.4289554 124.3422135  53.4579236  71.0104824 124.1516009
  63.5209443  78.9461020 121.3178231  63.5707448  78.7811028 122.2593754
  63.4123366  78.0788279 120.9276112  60.8113205  74.9291948 122.6337538
  61.7123068  74.7898413 122.3421536  60.8861180  75.0946403 123.5735715
  55.1456011  72.3058803 121.4790724  54.2759320  72.5992369 121.2073313
  55.3815491  72.8899248 122.1997988  65.0227640  81.3657962 121.5620253
  64.7312448  81.7287943 122.3983714  64.4099771  80.6524970 121.3833585
  66.2223322  78.9310842 114.0822823  67.0570213  79.3700646 114.2460383
  66.3582451  78.4549495 113.2631069  63.2714828  76.4890577 120.0300311
  63.7468949  76.6818223 119.2219162  62.3480393  76.5449762 119.7843694
  50.1598334  77.6514744 109.6131389  49.9144376  76.7477074 109.8111599
  50.3294249  77.6531894 108.6710867  57.8495044  68.5238420 118.9956145
  58.3676988  69.2599447 118.6702633  57.4950177  68.8302413 119.8302904
  49.4293982  73.3843101 107.1117551  48.7363227  73.4587456 106.4557587
  49.1845734  72.6203445 107.6339067  58.1007639  64.9438703 114.5157041
  58.3809392  64.2761892 115.1417468  58.8858245  65.1367798 114.0031705
  55.9041107  84.1197697 106.0782068  55.3315074  84.7387884 105.6252539
  56.4773901  84.6697058 106.6121990  61.9716497  73.3656337 118.2628616
  62.9233920  73.4654434 118.2840840  61.8019947  72.5734605 118.7726701
  59.9930876  70.4511920 118.4488017  59.3980808  70.7316933 117.7534506
  59.7080573  70.9405821 119.2204758  59.1238367  84.4034847 107.2090650
  60.0569040  84.3380408 107.4123525  59.0361580  85.2391114 106.7505183
  61.7526383  83.7200717 104.1694597  61.6740015  83.3860581 105.0630355
  62.5736050  84.2122485 104.1686070  64.4504575  76.5862456 117.3770916
  64.4180895  75.6478457 117.5630600  65.0605198  76.6646493 116.6436741
  56.2887906  75.4558509 103.4198120  57.2347010  75.3264717 103.4886538
  55.9102150  74.7173171 103.8967548  64.5999063  73.3773500 117.4229199
  64.0838112  72.5931956 117.2359128  65.4839012  73.0492216 117.5875719
  62.2609790  67.1214515 113.3825012  62.0634611  66.8129604 114.2668344
  62.8709496  67.8476154 113.5122942  70.2681125  77.6478463 116.5176953
  70.9984513  77.3863751 117.0784656  69.6588070  76.9107185 116.5579021
  68.3496422  75.7886326 117.1151404  67.6229585  75.6542291 116.5067896
  67.9343709  76.0963154 117.9208122  56.1726598  79.5076255 124.8798777
  57.0929608  79.6854854 125.0738824  56.1376181  78.5632301 124.7278476
  54.4730823  73.3808486 103.3553005  53.5662278  73.0841598 103.4315719
  54.7506804  73.0838304 102.4887292  45.3908763  74.7014849 113.8052052
  45.0711547  73.8480157 113.5126426  44.8442191  74.9163427 114.5610019
  49.1688671  77.4177290 117.5221558  49.3874680  78.3494398 117.5409592
  49.5814444  77.0585265 118.3076362  56.0892888  67.9245375 109.5097247
  55.2793617  67.5792460 109.8852493  56.7777305  67.6152919 110.0984858
  58.0183437  67.0023422 111.1321543  58.5714475  67.4218876 111.7911566
  58.2553523  66.0759170 111.1744499  54.0416536  72.9910496 126.9124307
  53.9413263  73.9404853 126.8436398  53.8238078  72.6628735 126.0400377
  45.2597023  78.3217761 115.7745173  44.5660495  77.9071713 115.2615128
  46.0070014  78.3638297 115.1778592  61.3962244  69.1123947 110.6400208
  60.8160913  69.7708751 110.2578260  61.1298176  68.2901292 110.2287625
  59.8465810  68.5129005 112.8421528  60.3465589  68.6245540 112.0335847
  60.4901418  68.2090058 113.4822336  53.9047806  76.4207635 125.7289369
  53.4214888  77.2207995 125.9353258  53.9908745  76.4315580 124.7756813
  47.1733766  78.2536014 113.6511188  47.1504454  78.3523702 112.6993071
  47.4834402  79.1001165 113.9728354  49.8321143  80.3112169 117.7657803
  50.7864397  80.2796112 117.6987734  49.6333667  79.8502793 118.5808029
  50.4220526  78.8813285 120.3328600  51.2413415  79.3757364 120.3563438
  50.6957333  77.9645254 120.3046168  60.1787122  71.2724038 109.6956556
  59.2912977  71.5573688 109.4776751  60.5941111  71.1117801 108.8483833
  63.5301658  71.2970559 113.4110895  64.3062048  71.7867011 113.6835512
  62.8049792  71.7228613 113.8682765  65.9674217  72.0098178 114.4684836
  66.5618707  71.7693914 113.7578144  66.0400800  71.2905309 115.0958372
  48.1871372  85.8531789 114.7828000  48.0525840  85.0932190 114.2165999
  47.7703435  86.5772689 114.3156789  59.3230335  81.0368712 103.7904576
  60.0266185  81.2418715 104.4062231  58.5992984  81.6045474 104.0553659
  60.1528146  76.7878574 109.9106846  60.0963347  77.2447125 109.0714478
  60.7056488  76.0269258 109.7329689  63.9632951  72.5768306 110.7356965
  63.7069886  72.1764941 111.5665173  63.3385820  73.2912100 110.6107105
  68.2745289  75.3164379 113.2428257  67.7144847  75.3857568 114.0159819
  67.6688793  75.1405363 112.5227753  51.3440498  86.7501106 114.9946443
  51.2272882  87.6946538 114.8925133  50.5232944  86.4474668 115.3832242
  61.2317033  81.4751242 105.8403036  62.0662637  81.0432440 105.6580511
  61.0701376  81.3033255 106.7679930  60.8862925  77.9783355 107.2059375
  60.8311729  77.8127626 106.2647819  60.2608980  78.6859388 107.3621565
  45.6755440  73.2151419 121.0320797  46.3214303  72.7050373 121.5208023
  45.4672591  73.9520101 121.6064223  54.1959050  67.4791464 106.7844694
  54.1837720  68.4233304 106.9412964  55.0882472  67.2961609 106.4904155
  52.3695012  87.4029368 118.2102372  53.2722259  87.4352978 118.5268867
  52.1432382  86.4729819 118.2248707  54.1248614  86.1560354 114.8712450
  53.1744245  86.1562216 114.7576822  54.4281100  85.4093089 114.3548485
  58.0111170  64.0734241 111.0390630  57.2443566  63.5192727 111.1847313
  58.4221875  64.1456109 111.9004782  50.0152931  70.3619036 125.1295812
  50.8784392  70.0055841 125.3399136  49.4418342  70.0232931 125.8171216
  66.6691014  91.9448321 115.8719737  66.3309526  91.8289386 114.9840272
  67.5380782  91.5439486 115.8520743  62.5277830  93.7983797 111.8616628
  61.9642695  93.7073734 111.0932916  62.4130225  92.9783702 112.3419121
  60.0742262  95.2934989 114.7000849  60.8663554  94.9525814 114.2847148
  60.3138912  95.4029964 115.6203002  68.1077388  97.4654765 107.1731093
  67.4565368  98.0508845 106.7865107  68.9021751  97.9960960 107.2326131
  62.0333016  94.5543902 107.5718227  62.8063892  94.0072889 107.4331103
  62.3858414  95.4188151 107.7832689  64.3699293  90.7136568 105.2036677
  64.6224814  90.1918090 104.4420140  63.4323853  90.5502714 105.3063361
  69.4142576  89.7172347 113.0111421  70.2005665  89.2991770 112.6601838
  69.6781281  90.6218439 113.1793069  69.5852654  95.1545197 107.7100077
  68.9498487  95.2279823 108.4220982  69.2550060  95.7438796 107.0319157
  74.8151003  89.6547580 113.9144399  75.5476175  89.0846797 114.1482229
  74.0590359  89.2669180 114.3550905  64.0895582  92.6164674 107.4061052
  63.9731840  91.9409578 108.0742137  64.1997842  92.1297048 106.5893205
  66.4327123  92.0774821 111.1107742  66.0685330  91.5505442 111.8220663
  67.2894239  91.6873290 110.9374227  72.3376424  83.3669154 118.3739008
  72.0059749  84.2364565 118.1500223  71.7422037  83.0505438 119.0533038
  66.0732610  87.1064721 106.1069090  66.2407012  87.9744957 106.4739561
  65.8829779  87.2692003 105.1830379  62.2820425  92.0195497 113.8071625
  61.3570921  91.8871711 114.0149317  62.5304838  92.7989716 114.3041567
  66.0521831  89.5622379 107.0915757  65.9321456  90.0079429 107.9301237
  65.3574419  89.9107696 106.5329295  59.6429236  91.6628770 114.6415414
  59.7721617  91.9163249 115.5554826  58.9626687  92.2556478 114.3220069
  63.8128723 102.3326020 110.7405888  63.7352753 103.2833845 110.8194369
  63.2090367 101.9871893 111.3980814  71.7506897  90.0343852 107.9196091
  72.6624753  90.2671238 107.7443789  71.2416544  90.6180896 107.3571170
  69.0942872  86.2101888 116.1685952  68.2327351  86.5083141 116.4602689
  69.1205307  86.4272287 115.2366985  65.9104441  94.7544078 112.5759758
  66.3742787  95.0331781 111.7864380  65.6461239  93.8527523 112.3932848
  62.8028522  94.3015560 115.5139521  63.3729879  94.7302828 114.8757005
  63.3936634  94.0198144 116.2123706  64.8473327  90.8767231 109.3849323
  65.5497371  91.3288274 109.8523249  64.5153956  90.2351049 110.0129216
  58.5898661  89.1350783 114.6866456  57.7997715  89.3908312 114.2106567
  59.0809909  89.9499121 114.7918497  60.5413407  89.4995363 111.6449933
  59.7444570  89.6114057 112.1633429  60.3138999  89.8382015 110.7790823
  56.8736364  89.3881274 117.1181447  57.1244403  90.2728284 117.3839023
  57.4095913  89.2085875 116.3456539  66.0867092  97.6908173 109.4611428
  65.9512767  98.5359709 109.8896276  66.6276904  97.8927451 108.6977362
  59.5396489  95.2083611 110.0339353  60.0521010  96.0026862 110.1844918
  60.1919202  94.5109902 109.9672954  61.3491374  98.3249368 112.1162106
  61.5258002  99.2467332 111.9283090  62.1448208  98.0107787 112.5456486
  69.4359556  81.2138735 117.9910321  69.0923825  82.1040377 117.9149432
  69.8038518  81.0240393 117.1279906  57.5045406  93.5372266 110.8098924
  58.3420628  93.9469274 110.5932631  57.6823674  92.5971708 110.7799117
  69.4009838  91.2047346 106.4982756  68.8856462  91.9751951 106.7371144
  69.1287147  90.5312482 107.1215818  66.9856949  86.0497047 111.5567995
  66.1298546  85.6603897 111.3773634  67.3983901  86.1289008 110.6967780
  68.5156096  83.5843390 115.9559555  68.0120892  83.5473525 115.1427360
  68.8086703  84.4936133 116.0156211  64.7598982  83.6682120 114.9625736
  65.6251979  83.4724929 114.6031626  64.8276491  83.4392472 115.8895093
  74.3744112  93.9579701 108.4335930  73.5973555  93.6190860 107.9891092
  75.0535593  93.9632324 107.7590895  69.1896141  89.0774438 108.3242538
  68.8846277  89.3920587 109.1752681  70.1426584  89.1555858 108.3669871
  67.6342573  95.2364662 109.9735492  67.1063935  94.5017421 109.6608729
  67.1330076  96.0139338 109.7275460  62.3661301  85.8984328 112.3342103
  62.9405053  85.6759509 111.6015296  62.9532283  85.9673022 113.0870704
  71.4240878  91.7858055 113.1406480  71.9372760  92.4188047 113.6428189
  72.0742102  91.1859250 112.7749840  62.6930888  87.9288789 106.3537988
  61.8568200  88.2663475 106.6747263  62.5535658  87.7937769 105.4165125
  64.6683969  82.7725577 111.0617173  64.0148381  82.4574594 110.4373787
  64.6264443  82.1501317 111.7876996  65.7795173  93.0544872 102.9770465
  64.8722235  92.8234125 103.1761614  66.2766205  92.2582491 103.1644446
  68.6863252 101.7642379 105.8967151  68.0124951 102.0674076 106.5052109
  69.0729074 102.5671459 105.5472608  67.9021709  89.2607510 115.3864820
  66.9844270  89.4822457 115.2286508  68.3181853  89.3353821 114.5276528
  68.6856757  90.6598926 110.5167500  69.4328576  91.1720323 110.2074623
  68.9548346  90.3382979 111.3771894  66.9583407  93.1557467 107.4994455
  66.0494626  92.8716500 107.5966925  66.9878491  93.5756545 106.6397762
  71.1335594  87.6956042 112.4986290  70.3958351  87.1833429 112.8296532
  71.3862367  87.2556424 111.6869567  71.2347221  80.4732294 113.0928059
  71.5406098  79.6129658 112.8053974  71.9599826  81.0649914 112.8927053
  57.5271577  90.8762981 111.4809657  57.3295977  90.2832342 110.7560724
  56.9718241  90.5715191 112.1985596  65.5068301  90.7686087 113.6004250
  65.5616911  89.8159924 113.5246727  64.6959503  90.9245526 114.0845549
  66.6559495  94.6966210 104.8382533  66.2178925  93.9802069 104.3788171
  67.3969936  94.9242325 104.2767625  63.4460661  89.3863147 111.3594629
  62.6328526  89.6857318 111.7659821  63.9419655  88.9918836 112.0769111
  74.7732609  92.9723407 110.8958852  74.6350508  93.1625003 109.9680041
  74.4168828  93.7342790 111.3526903  62.9374736  86.9581503 116.9755864
  63.5774115  86.8170262 116.2778827  62.1052266  86.6716016 116.5994466
  63.7135040  96.2583933 113.0890856  64.5075638  95.7634253 112.8873431
  63.0026732  95.7301796 112.7258562  60.0217803  90.4027015 109.1650609
  59.0915391  90.3411470 109.3820571  60.1175275  89.8802968 108.3687250
  59.9403352  86.9281828 111.7528851  60.2010169  87.8427161 111.6438011
  60.7620524  86.4606270 111.9025464  61.4128277  88.3419585 118.9227675
  62.0851331  88.1336947 118.2740324  60.5858064  88.1441671 118.4832908
  66.8854468 101.9322052 108.1114230  67.0606223 101.4610095 108.9259853
  66.1987256 102.5587818 108.3395491  70.7770722  93.5550592 104.4314591
  70.1599893  92.8297420 104.3347644  70.3087211  94.3159952 104.0881665
  62.5669268  87.7736016 103.5535895  61.6898735  87.6524817 103.1898142
  63.0427021  86.9822095 103.3014784  54.0871408  92.5613176 113.6477402
  54.7742448  92.2474906 113.0598418  53.9319537  93.4654541 113.3744654
  58.8906131  87.4503373 118.0762426  58.8064319  86.8429042 117.3412836
  58.0688837  87.9412391 118.0771922  65.7533194 100.1262307 110.7998416
  64.9700716 100.6683987 110.8936640  66.4525939 100.6436286 111.1992657
  69.0629844  85.9356936 113.4432621  69.5598544  85.1826899 113.1233691
  68.2916826  85.9721253 112.8775830  70.1459625  94.6928623 111.0171044
  69.2115904  94.8130086 110.8475749  70.3236294  93.7901090 110.7531054
  65.6464813  88.0774319 113.1704306  65.2762601  87.5245360 113.8585211
  66.1423906  87.4732453 112.6179306  73.5332176  90.5345943 111.5521079
  73.9992629  91.3673934 111.4781381  73.9839677  90.0690924 112.2566337
  71.6008408  96.8789764 108.5507231  71.8768251  96.7646359 109.4601105
  70.7312906  96.4807249 108.5119404  71.5048839  82.9026530 115.5911980
  70.5911919  83.1330757 115.7594187  71.9341941  82.9864974 116.4426012
  68.5704637 100.0544300 109.4555093  69.0992403  99.5436755 108.8425255
  68.8332857  99.7386830 110.3200626  53.6639385  90.6413769 115.9194869
  53.7023484  90.1077360 116.7131988  53.1579677  90.1148975 115.3005847
  61.0430147  85.4878310 119.4157412  61.1071473  86.3493141 119.0034809
  60.9797267  84.8752312 118.6829770  57.2947962  89.3677872 108.9948801
  57.5901403  88.4588550 108.9415855  56.3935998  89.3465611 108.6729803
  60.8242209  87.4433868 114.9776349  60.1028795  88.0569836 114.8383823
  61.6135465  87.9791633 114.8992995  59.0235804  87.0491969 109.1188126
  58.6948510  86.1689348 108.9363232  59.3775174  86.9939638 110.0064515
  62.1377627  87.3364939 109.4863604  62.4773699  87.8650860 108.7642212
  62.5849747  87.6745345 110.2622170  64.8321068  85.7201990 118.9366672
  64.4917888  84.9209803 119.3387352  64.1260074  86.0203701 118.3643505
  65.4837539  82.8051302 117.3893995  66.3063609  82.3311780 117.2672885
  65.7275603  83.5841786 117.8892681  64.1245774  85.8339561 107.6856896
  64.8454136  86.2120813 107.1820613  63.5011078  86.5528437 107.7891874
  68.2676897  86.5384710 108.6215229  68.4840511  87.4209348 108.3204057
  67.7870964  86.1470923 107.8920871  63.0076118  89.4970423 115.1985973
  62.8620699  89.8110726 116.0910255  62.5301322  90.1155323 114.6456872
  64.8672501  86.4872971 115.2466863  64.8534070  85.5914064 114.9099161
  65.5844929  86.4943635 115.8805149  66.7198632  86.9210311 117.2919990
  66.4616410  87.8427382 117.2904321  66.1883672  86.5240746 117.9820455
  57.4821780  92.0375767 118.1373635  56.9375248  92.8135575 118.2693909
  58.3601130  92.3846572 117.9792756  64.2709397  85.3687351 110.5154433
  64.3925308  84.4403997 110.7145321  63.9811439  85.3826037 109.6032748
  67.1400587  83.0542262 113.6521153  67.1622284  83.1181595 112.6973132
  67.5568646  82.2146770 113.8461659  72.6519993  99.3427863 107.1706974
  73.3470898  99.9634555 107.3894289  72.9943143  98.4923214 107.4459352
  74.5511416  96.7927568 108.6994305  75.0762740  97.1314841 107.9743625
  74.4633769  95.8574583 108.5157439  58.7144416  99.0511092 113.0614186
  59.5402436  98.7514864 112.6812830  58.3638468  98.2818715 113.5103975
  56.9153021  96.9697419 114.0203120  56.0784929  96.5419593 113.8387121
  56.8876666  97.1629862 114.9573911  63.2439456  96.9541484 108.6070320
  63.3927576  97.6376948 107.9536993  64.0505899  96.9346574 109.1219776
  60.9992089  92.9806661 109.6131389  60.7538131  92.0768991 109.8111599
  61.1688004  92.9823812 108.6710867  68.6888799  83.8530338 118.9956145
  69.2070743  84.5891365 118.6702633  68.3343932  84.1594331 119.8302904
  60.2687737  88.7135019 107.1117551  59.5756981  88.7879374 106.4557587
  60.0239488  87.9495363 107.6339067  68.9401393  80.2730620 114.5157041
  69.2203147  79.6053809 115.1417468  69.7252000  80.4659716 114.0031705
  66.7434862  99.4489614 106.0782068  66.1708829 100.0679801 105.6252539
  67.3167655  99.9988976 106.6121990  69.9632121  99.7326764 107.2090650
  70.8962794  99.6672326 107.4123525  69.8755334 100.5683031 106.7505183
  72.5920138  99.0492635 104.1694597  72.5133770  98.7152498 105.0630355
  73.4129805  99.5414403 104.1686070  67.1281660  90.7850427 103.4198120
  68.0740765  90.6556635 103.4886538  66.7495905  90.0465089 103.8967548
  73.1003545  82.4506433 113.3825012  72.9028366  82.1421521 114.2668344
  73.7103250  83.1768072 113.5122942  65.3124577  88.7100403 103.3553005
  64.4056033  88.4133516 103.4315719  65.5900558  88.4130221 102.4887292
  56.2302518  90.0306767 113.8052052  55.9105302  89.1772075 113.5126426
  55.6835946  90.2455345 114.5610019  60.0082425  92.7469208 117.5221558
  60.2268435  93.6786316 117.5409592  60.4208199  92.3877182 118.3076362
  66.9286643  83.2537293 109.5097247  66.1187371  82.9084378 109.8852493
  67.6171060  82.9444837 110.0984858  68.8577191  82.3315340 111.1321543
  69.4108230  82.7510793 111.7911566  69.0947278  81.4051088 111.1744499
  64.0823362  85.5687339 103.4964985  64.9442526  85.8942237 103.7560802
  64.2673706  84.7818835 102.9838050  56.0990778  93.6509678 115.7745173
  55.4054249  93.2363631 115.2615128  56.8463769  93.6930215 115.1778592
  72.2355998  84.4415865 110.6400208  71.6554667  85.1000669 110.2578260
  71.9691931  83.6193210 110.2287625  70.6859565  83.8420923 112.8421528
  71.1859343  83.9537457 112.0335847  71.3295173  83.5381976 113.4822336
  58.0127520  93.5827932 113.6511188  57.9898208  93.6815619 112.6993071
  58.3228157  94.4293083 113.9728354  71.0180876  86.6015955 109.6956556
  70.1306731  86.8865606 109.4776751  71.4334865  86.4409719 108.8483833
  74.3695412  86.6262476 113.4110895  75.1455803  87.1158929 113.6835512
  73.6443547  87.0520531 113.8682765  76.8067971  87.3390096 114.4684836
  77.4012462  87.0985832 113.7578144  76.8794555  86.6197226 115.0958372
  70.1624090  96.3660630 103.7904576  70.8659940  96.5710633 104.4062231
  69.4386739  96.9337392 104.0553659  70.9921900  92.1170491 109.9106846
  70.9357101  92.5739043 109.0714478  71.5450243  91.3561176 109.7329689
  74.8026706  87.9060223 110.7356965  74.5463640  87.5056859 111.5665173
  74.1779574  88.6204017 110.6107105  72.0710787  96.8043159 105.8403036
  72.9056391  96.3724358 105.6580511  71.9095130  96.6325173 106.7679930
  71.7256679  93.3075273 107.2059375  71.6705483  93.1419544 106.2647819
  71.1002735  94.0151306 107.3621565  56.5149194  88.5443337 121.0320797
  57.1608058  88.0342291 121.5208023  56.3066345  89.2812019 121.6064223
  65.0352805  82.8083382 106.7844694  65.0231475  83.7525222 106.9412964
  65.9276227  82.6253527 106.4904155  68.8504924  79.4026158 111.0390630
  68.0837320  78.8484645 111.1847313  69.2615629  79.4748027 111.9004782
  73.5324643 103.2580707 106.3537988  72.6961955 103.5955393 106.6747263
  73.3929412 103.1229686 105.4165125  73.4063023 103.1027934 103.5535895
  72.5292489 102.9816735 103.1898142  73.8820776 102.3114012 103.3014784
  71.1081491 104.0426937 107.1117551  70.4150736 104.1171292 106.4557587
  70.8633243 103.2787280 107.6339067  76.1518332 104.0392321 103.3553005
  75.2449787 103.7425434 103.4315719  76.4294313 103.7422139 102.4887292
  74.9217116 100.8979256 103.4964985  75.7836280 101.2234155 103.7560802
  75.1067460 100.1110752 102.9838050  75.8746559  98.1375299 106.7844694
  75.8625229  99.0817139 106.9412964  76.7669981  97.9545445 106.4904155
  25.3288236  17.4536831  92.6212457  24.6549934  17.7568528  93.2297415
  25.7154058  18.2565911  92.2717915  27.4195706   9.2445044  91.1559898
  26.8024876   8.5191872  91.0592950  26.9512194  10.0054404  90.8126972
  29.2944976  15.0322314  93.8952281  29.9895881  15.6529007  94.1139595
  29.6368127  14.1817666  94.1704659  23.3859845  15.1384066  92.8027374
  22.8133812  15.7574253  92.3497846  23.9592639  15.6883428  93.3367296
  26.6057105  15.4221216  93.9335957  27.5387778  15.3566778  94.1368832
  26.5180317  16.2577483  93.4750489  29.2345121  14.7387087  90.8939904
  29.1558753  14.4046950  91.7875662  30.0554788  15.2308855  90.8931376
  26.8049073  12.0555082  90.5149882  27.5084923  12.2605085  91.1307538
  26.0811722  12.6231844  90.7798966  28.7135770  12.4937611  92.5648342
  29.5481374  12.0618810  92.3825817  28.5520113  12.3219625  93.4925237
  37.3420046  23.0107262 102.6603519  37.9798456  22.8914010 101.9566859
  37.2240888  23.9588106 102.7191471  34.1509752  22.9634690 102.5965044
  33.8128263  22.8475755 101.7085579  35.0199520  22.5625856 102.5766050
  30.0096568  24.8170167  98.5861935  29.4461433  24.7260104  97.8178223
  29.8948963  23.9970071  99.0664427  35.5896126  28.4841135  93.8976400
  34.9384106  29.0695215  93.5110414  36.3840489  29.0147329  93.9571437
  29.5151753  25.5730272  94.2963534  30.2882629  25.0259259  94.1576410
  29.8677152  26.4374521  94.5077996  31.8518031  21.7322938  91.9281984
  32.1043552  21.2104459  91.1665447  30.9142590  21.5689083  92.0308668
  36.8961314  20.7358716  99.7356727  37.6824403  20.3178139  99.3847144
  37.1600018  21.6404808  99.9038376  37.0671391  26.1731567  94.4345384
  36.4317224  26.2466193  95.1466289  36.7368798  26.7625165  93.7564463
  42.2969741  20.6733949 100.6389706  43.0294913  20.1033166 100.8727535
  41.5409097  20.2855550 101.0796211  31.5714320  23.6351044  94.1306359
  31.4550578  22.9595947  94.7987443  31.6816580  23.1483418  93.3138512
  33.9145861  23.0961191  97.8353048  33.5504068  22.5691812  98.5465970
  34.7712977  22.7059660  97.6619534  33.5551348  18.1251091  92.8314397
  33.7225750  18.9931327  93.1984868  33.3648517  18.2878372  91.9075686
  36.3126681  26.5868069 104.4980227  36.0127404  27.4893108 104.3896034
  35.9677741  26.3200253 105.3501380  39.7123825  19.1050610 102.1777664
  38.8040702  19.0366018 101.8836425  39.6611421  19.5822555 103.0059490
  33.5340569  20.5808748  93.8161064  33.4140194  21.0265799  94.6546544
  32.8393157  20.9294066  93.2574602  31.2947461  33.3512390  97.4651195
  31.2171491  34.3020215  97.5439675  30.6909104  33.0058262  98.1226121
  39.2325635  21.0530221  94.6441398  40.1443491  21.2857608  94.4689095
  38.7235282  21.6367265  94.0816476  37.8395217  26.0356040 102.0354979
  37.2104080  26.2001754 101.3331047  37.4520879  26.4497649 102.8065943
  41.7184449  26.9710478  99.3899343  41.0335487  27.3509379  98.8396376
  41.8028298  27.5805804 100.1231291  33.3923179  25.7730448  99.3005064
  33.8561525  26.0518151  98.5109687  33.1279977  24.8713892  99.1178155
  32.3292065  21.8953600  96.1094629  33.0316108  22.3474644  96.5768556
  31.9972694  21.2537419  96.7374522  40.0881209  27.4942392 104.1617044
  40.9098652  27.0922579 103.8799725  40.0843612  27.3910626 105.1133159
  48.1787202  23.8381140 100.5102015  47.4250910  23.2688539 100.3546020
  48.3134743  23.8043805 101.4572650  33.5685830  28.7094543  96.1856735
  33.4331505  29.5546079  96.6141582  34.1095642  28.9113820  95.4222668
  27.0215227  26.2269981  96.7584660  27.5339748  27.0213231  96.9090224
  27.6737940  25.5296271  96.6918261  28.8310112  29.3435737  98.8407413
  29.0076740  30.2653702  98.6528397  29.6266945  29.0294156  99.2701793
  29.9541427  30.8613911 104.8417755  30.5048852  30.7330974 104.0694749
  29.1152903  31.1608800 104.4912648  24.9864144  24.5558635  97.5344230
  25.8239366  24.9655644  97.3177938  25.1642412  23.6158077  97.5044424
  36.8828576  22.2233716  93.2228063  36.3675200  22.9938320  93.4616451
  36.6105885  21.5498852  93.8461125  34.4675687  17.0683417  98.2813301
  33.6117283  16.6790267  98.1018940  34.8802639  17.1475377  97.4213087
  41.8562850  24.9766070  95.1581237  41.0792293  24.6377230  94.7136399
  42.5354331  24.9818694  94.4836202  36.6714879  20.0960808  95.0487844
  36.3665015  20.4106957  95.8997987  37.6245321  20.1742228  95.0915177
  35.1161311  26.2551031  96.6980798  34.5882673  25.5203791  96.3854036
  34.6148814  27.0325708  96.4520767  40.0954157  24.4500052 101.8147845
  39.4377832  25.1399313 101.9027973  40.8994556  24.8396484 102.1581831
  38.9059616  22.8044424  99.8651786  39.4191498  23.4374416 100.3673496
  39.5560840  22.2045620  99.4995146  30.1749626  18.9475159  93.0783295
  29.3386938  19.2849845  93.3992570  30.0354395  18.8124138  92.1410432
  33.2613911  24.0731241  89.7015771  32.3540973  23.8420495  89.9006920
  33.7584943  23.2768861  89.8889753  36.1681990  32.7828749  92.6212457
  35.4943689  33.0860445  93.2297415  36.5547812  33.5857829  92.2717915
  36.1675495  21.6785296  97.2412807  36.9147313  22.1906693  96.9319929
  36.4367084  21.3569348  98.1017201  34.4402145  24.1743836  94.2239761
  33.5313364  23.8902869  94.3212231  34.4697229  24.5942915  93.3643068
  39.6721412  27.7850426  97.9930929  39.2183739  26.9441336  98.0496119
  39.0415379  28.4211824  98.3305709  38.6154332  18.7142412  99.2231596
  37.8777088  18.2019798  99.5541839  38.8681105  18.2742793  98.4114873
  38.1154351  29.6226923  98.9280747  38.4077326  30.1831980  98.2093113
  38.6252972  29.9155484  99.6833906  32.9887039  21.7872457 100.3249557
  33.0435649  20.8346293 100.2492033  32.1778241  21.9431896 100.8090855
  34.1378233  25.7152580  91.5627840  33.6997662  24.9988439  91.1033477
  34.8788673  25.9428695  91.0012931  30.9279399  20.4049517  98.0839936
  30.1147264  20.7043687  98.4905128  31.4238393  20.0105205  98.8014418
  33.0787977  30.4007274 100.0174200  33.0364155  30.6268120  99.0882732
  33.9950675  30.1670648 100.1660001  42.2551347  23.9909777  97.6204159
  42.1169246  24.1811373  96.6925348  41.8987566  24.7529160  98.0772210
  42.2820727  26.0586304 102.6315430  42.7157234  25.9661593 103.4798484
  42.9952308  26.0343805 101.9935446  31.1953777  27.2770303  99.8136163
  31.9894376  26.7820623  99.6118738  30.4845470  26.7488166  99.4503869
  36.0148622  29.6588398 104.1648531  36.0685644  30.2279334 104.9326247
  35.1463403  29.8290283 103.8002568  27.5036541  21.4213384  95.8895916
  26.5734129  21.3597840  96.1065878  27.5994013  20.8989337  95.0932557
  43.1436276  26.1010005 105.1648315  43.3372167  27.0055815 105.4107590
  43.0436895  25.6417424 105.9986900  33.7725053  27.8499325 103.4934000
  33.6336139  27.4818109 104.3659938  32.9839650  28.3646964 103.3217958
  34.3673205  32.9508421  94.8359537  34.5424961  32.4796464  95.6505159
  33.6805993  33.5774187  95.0640797  35.3230268  27.2280927 100.8822838
  34.9880101  27.1881697 101.7780488  34.8234214  26.5625643 100.4093248
  38.2589460  24.5736962  91.1559898  37.6418631  23.8483790  91.0592950
  37.7905949  25.3346322  90.8126972  28.9334291  36.0997784 101.6099397
  29.1730889  36.7316308 102.2878415  28.0903487  35.7485824 101.8964756
  30.0488006  18.7922386  90.2781202  29.1717472  18.6711187  89.9143449
  30.5245759  18.0008464  90.0260090  33.4462152  31.9076906 104.0140901
  33.3732324  32.7131878 104.5260205  33.0039546  32.1068872 103.1888922
  33.2351932  31.1448676  97.5243722  32.4519454  31.6870356  97.6181947
  33.9344677  31.6622656  97.9237964  36.5448582  16.9543306 100.1677928
  37.0417282  16.2013268  99.8478998  35.7735564  16.9907622  99.6021137
  44.3978340  22.6583671 101.8096219  44.3868216  23.5408387 101.4390152
  43.5295719  22.3055222 101.6150756  35.9060836  31.8063740 106.1699059
  36.6188808  32.4411205 106.0974961  35.4150865  31.9027606 105.3539061
  37.6278363  25.7114993  97.7416351  36.6934642  25.8316455  97.5721055
  37.8055031  24.8087460  97.4776361  41.0150914  21.5532312  98.2766385
  41.4811366  22.3860304  98.2026688  41.4658415  21.0877294  98.9811644
  39.0827145  27.8976134  95.2752537  39.3586989  27.7832728  96.1846411
  38.2131644  27.4993618  95.2364710  35.7181209  32.1462484  98.9185351
  35.9003604  31.3284140  99.3813103  36.5414195  32.3630177  98.4810241
  36.0523375  31.0730670  96.1800399  36.5811141  30.5623124  95.5670562
  36.3151594  30.7573200  97.0445932  29.4079123  32.1245786  98.9398175
  28.7389498  32.6091914  98.4562215  29.2691992  32.3715007  99.8541554
  33.5484391  34.1589530 105.5380834  34.1002699  34.3221151 106.3029919
  33.8890585  34.7493968 104.8660859  24.7766700  20.3864241  95.7194107
  25.0720141  19.4774920  95.6661161  23.8754736  20.3651981  95.3975110
  36.6852779  32.1071505 102.5244516  36.5603918  31.3061245 102.0155461
  37.3431870  32.6017699 102.0358486  38.7487687  29.9080525 104.1524066
  37.8018023  29.7885877 104.0802393  39.0970460  29.0203023 104.2350327
  26.5054541  18.0678339  95.8433433  26.1767248  17.1875718  95.6608539
  26.8593912  18.0126008  96.7309822  35.7534120  29.7033242 100.3528418
  35.6059083  28.7749949 100.5335988  36.5787614  29.7253332  99.8685493
  29.6196365  18.3551309  96.2108910  29.9592437  18.8837230  95.4887519
  30.0668485  18.6931715  96.9867477  39.3568242  30.5261800 101.4393291
  40.2814790  30.3204662 101.3017742  39.1883546  30.2778201 102.3482632
  31.6064512  16.8525930  94.4102203  32.3272874  17.2307183  93.9065920
  30.9829816  17.5714807  94.5137181  35.7495635  17.5571079  95.3460535
  35.9659249  18.4395717  95.0449364  35.2689702  17.1657293  94.6166177
  39.1463558  31.0447468  96.7955382  39.3200436  30.4793890  96.0429235
  39.6392450  31.8448363  96.6134872  31.7528135  16.3873721  97.2399740
  31.8744046  15.4590367  97.4390627  31.4630177  16.4012407  96.3278055
  45.0002950  23.8083891  98.4145682  45.4434096  23.0591216  98.0164805
  44.1229460  23.7994027  98.0319414  40.1338731  30.3614232  93.8952281
  40.8289635  30.9820925  94.1139595  40.4761881  29.5109583  94.1704659
  42.0330154  27.8113938  95.4239611  42.5581478  28.1501210  94.6988931
  41.9452507  26.8760953  95.2402746  33.7170815  33.8785921  99.7834865
  33.2775805  33.3862300 100.4767721  34.4678932  33.3358889  99.5426940
  26.1963154  30.0697462  99.7859493  27.0221174  29.7701234  99.4058136
  25.8457206  29.3005084 100.2349281  31.1644687  29.4223930 101.8557166
  30.5424696  28.7594635 101.5559394  31.8349554  29.4485062 101.1730814
  24.3971759  27.9883788 100.7448426  23.5603667  27.5605963 100.5632428
  24.3695404  28.1816232 101.6819217  30.7258194  27.9727853  95.3315627
  30.8746314  28.6563318  94.6782300  31.5324637  27.9532943  95.8465083
  43.3440132  27.7136249 108.2865559  43.0524940  28.0766230 109.1229020
  42.7312263  27.0003257 108.1078892  44.5435814  25.2789129 100.8068130
  45.3782706  25.7178933 100.9705690  44.6794943  24.8027782  99.9876375
  28.4810827  23.9993031  96.3376696  28.2356869  23.0955361  96.5356906
  28.6506741  24.0010181  95.3956174  27.7506474  19.7321389  93.8362857
  27.0575719  19.8065744  93.1802893  27.5058226  18.9681732  94.3584374
  34.2253599  30.4675984  92.8027374  33.6527566  31.0866171  92.3497846
  34.7986393  31.0175346  93.3367296  37.4450859  30.7513134  93.9335957
  38.3781532  30.6858696  94.1368832  37.3574072  31.5869401  93.4750489
  40.0738876  30.0679004  90.8939904  39.9952507  29.7338868  91.7875662
  40.8948543  30.5600772  90.8931376  42.7717067  22.9340744 104.1016223
  42.7393387  21.9956744 104.2875907  43.3817691  23.0124780 103.3682048
  34.6100398  21.8036797  90.1443427  35.5559503  21.6743005  90.2131845
  34.2314643  21.0651458  90.6212855  48.5893617  23.9956750 103.2422260
  49.3197005  23.7342039 103.8029963  47.9800562  23.2585472 103.2824327
  46.6708914  22.1364613 103.8396711  45.9442078  22.0020578 103.2313202
  46.2556201  22.4441442 104.6453429  32.7943315  19.7286773  90.0798312
  31.8874770  19.4319886  90.1561026  33.0719296  19.4316591  89.2132598
  34.4105381  14.2723663  96.2342553  33.6006109  13.9270748  96.6097799
  35.0989798  13.9631206  96.8230165  31.5642100  16.5873708  90.2210291
  32.4261264  16.9128607  90.4806109  31.7492444  15.8005204  89.7083357
  39.7174736  15.4602235  97.3645514  39.1373405  16.1187039  96.9823567
  39.4510669  14.6379579  96.9532932  38.4999614  17.6202325  96.4201862
  37.6125469  17.9051976  96.2022057  38.9153603  17.4596088  95.5729139
  41.8514150  17.6448846 100.1356202  42.6274540  18.1345298 100.4080819
  41.1262284  18.0706900 100.5928071  44.2886709  18.3576465 101.1930142
  44.8831200  18.1172201 100.4823451  44.3613293  17.6383596 101.8203679
  26.5083865  32.2010076 101.5073307  26.3738332  31.4410477 100.9411305
  26.0915927  32.9250976 101.0402096  37.6442828  27.3847000  90.5149882
  38.3478678  27.5897002  91.1307538  36.9205476  27.9523762  90.7798966
  38.4740638  23.1356861  96.6352153  38.4175839  23.5925412  95.7959785
  39.0268980  22.3747546  96.4574995  42.2845444  18.9246593  97.4602272
  42.0282378  18.5243229  98.2910480  41.6598312  19.6390387  97.3352411
  46.5957782  21.6642666  99.9673563  46.0357340  21.7335855 100.7405126
  45.9901285  21.4883651  99.2473060  29.6652990  33.0979393 101.7191750
  29.5485375  34.0424826 101.6170440  28.8445437  32.7952955 102.1077549
  39.5529525  27.8229529  92.5648342  40.3875129  27.3910727  92.3825817
  39.3913868  27.6511543  93.4925237  39.2075417  24.3261642  93.9304682
  39.1524221  24.1605914  92.9893126  38.5821472  25.0337675  94.0866871
  32.5171543  13.8269751  93.5090000  32.5050212  14.7711591  93.6658271
  33.4094964  13.6439897  93.2149461  30.6907505  33.7507655 104.9347678
  31.5934751  33.7831265 105.2514173  30.4644875  32.8208106 104.9494014
  32.4461107  32.5038642 101.5957757  31.4956738  32.5040503 101.4822129
  32.7493593  31.7571376 101.0793791  48.1813800  38.3399180 102.6603519
  48.8192210  38.2205927 101.9566859  48.0634643  39.2880024 102.7191471
  44.9903506  38.2926608 102.5965044  44.6522018  38.1767673 101.7085579
  45.8593275  37.8917773 102.5766050  40.8490322  40.1462085  98.5861935
  40.2855187  40.0552021  97.8178223  40.7342717  39.3261989  99.0664427
  45.4723289  39.4461460 108.5551249  45.4611930  39.0514258 107.6831753
  45.6343929  38.7127532 109.1485021  38.3954754  41.6413276 101.4246155
  39.1876046  41.3004101 101.0092455  38.6351404  41.7508251 102.3448309
  46.4289881  43.8133052  93.8976400  45.7777861  44.3987133  93.5110414
  47.2234244  44.3439247  93.9571437  40.3545508  40.9022189  94.2963534
  41.1276384  40.3551176  94.1576410  40.7070907  41.7666439  94.5077996
  42.1930550  42.2298572 107.5030433  41.9020416  43.1344203 107.3877100
  42.8287535  42.2715099 108.2174503  43.1186757  39.6075420 104.0931793
  43.7150330  39.3831443 103.3788756  43.1761729  38.8660166 104.6957241
  42.6911786  37.0614856  91.9281984  42.9437306  36.5396377  91.1665447
  41.7536345  36.8981001  92.0308668  47.7355069  36.0650634  99.7356727
  48.5218158  35.6470057  99.3847144  47.9993773  36.9696726  99.9038376
  47.9065146  41.5023484  94.4345384  47.2710979  41.5758111  95.1466289
  47.5762552  42.0917083  93.7564463  53.1363496  36.0025867 100.6389706
  53.8688668  35.4325084 100.8727535  52.3802851  35.6147468 101.0796211
  42.4108074  38.9642961  94.1306359  42.2944333  38.2887865  94.7987443
  42.5210334  38.4775335  93.3138512  44.7539615  38.4253109  97.8353048
  44.3897823  37.8983730  98.5465970  45.6106731  38.0351578  97.6619534
  50.6588916  29.7147441 105.0984314  50.3272241  30.5842852 104.8745529
  50.0634529  29.3983725 105.7778345  44.3945102  33.4543008  92.8314397
  44.5619505  34.3223245  93.1984868  44.2042271  33.6170290  91.9075686
  47.1520436  41.9159987 104.4980227  46.8521159  42.8185026 104.3896034
  46.8071495  41.6492170 105.3501380  40.6032917  38.3673784 100.5316932
  39.6783414  38.2349998 100.7394623  40.8517330  39.1468003 101.0286874
  50.5517579  34.4342527 102.1777664  49.6434457  34.3657936 101.8836425
  50.5005175  34.9114472 103.0059490  44.3734323  35.9100666  93.8161064
  44.2533948  36.3557717  94.6546544  43.6786912  36.2585983  93.2574602
  37.9641728  38.0107058 101.3660721  38.0934109  38.2641536 102.2800132
  37.2839179  38.6034766 101.0465376  42.1341215  48.6804308  97.4651195
  42.0565245  49.6312133  97.5439675  41.5302859  48.3350180  98.1226121
  44.6258445  35.8532173 110.1212562  43.8491779  36.4126093 110.1115426
  45.2649008  36.3388956 110.6427432  52.4179226  32.6358966 103.9555538
  51.7753606  32.9291499 103.3095333  51.9134154  32.5211886 104.7608735
  50.0719389  36.3822139  94.6441398  50.9837246  36.6149526  94.4689095
  49.5629036  36.9659183  94.0816476  42.8804817  38.6617626 109.6830529
  43.6219502  39.2002670 109.4065352  42.1741803  39.2883915 109.8402080
  48.3560157  40.8046767 108.2802690  48.7643513  40.3629177 107.5357323
  47.6337419  40.2299394 108.5336883  44.7091227  35.7419374 105.6536247
  45.5552422  36.1658787 105.7970896  44.6489865  35.0852998 106.3474810
  48.6788972  41.3647957 102.0354979  48.0497834  41.5293672 101.3331047
  48.2914634  41.7789567 102.8065943  52.5578204  42.3002395  99.3899343
  51.8729242  42.6801297  98.8396376  52.6422053  42.9097722 100.1231291
  47.8590672  33.4023742 107.3117421  47.6151604  34.1565802 106.7751696
  48.1350603  33.7809090 108.1464668  49.8129135  39.9462354 105.9894686
  50.0246030  40.5894114 105.3129067  49.7658883  39.1124671 105.5216616
  47.4155364  32.5580175 102.8931258  46.5539843  32.8561428 103.1847996
  47.4417799  32.7750574 101.9612291  44.2316934  41.1022365  99.3005064
  44.6955279  41.3810068  98.5109687  43.9673732  40.2005810  99.1178155
  41.1241015  40.6493847 102.2384827  41.6942372  41.0781115 101.6002312
  41.7149127  40.3676432 102.9369013  43.1685820  37.2245518  96.1094629
  43.8709863  37.6766562  96.5768556  42.8366448  36.5829337  96.7374522
  41.6166181  35.8157274 110.4845839  40.9864842  36.4973555 110.7181236
  41.5102269  35.7040356 109.5398977  36.9111154  35.4829071 101.4111763
  36.1210208  35.7386599 100.9351873  37.4022401  36.2977408 101.5163803
  50.9274963  42.8234310 104.1617044  51.7492407  42.4214497 103.8799725
  50.9237366  42.7202544 105.1133159  38.8625899  35.8473650  98.3695240
  38.0657062  35.9592344  98.8878735  38.6351491  36.1860302  97.5036130
  44.6931567  42.3718353 106.3177754  44.7575999  42.8338760 107.1535926
  43.9842490  41.7415718 106.4460064  35.1948857  35.7359561 103.8426754
  35.4456895  36.6206571 104.1084330  35.7308405  35.5564162 103.0701845
  59.0180956  39.1673058 100.5102015  58.2644665  38.5980456 100.3546020
  59.1528497  39.1335723 101.4572650  44.4079584  44.0386460  96.1856735
  44.2725259  44.8837996  96.6141582  44.9489397  44.2405738  95.4222668
  37.8608982  41.5561899  96.7584660  38.3733502  42.3505149  96.9090224
  38.5131694  40.8588189  96.6918261  39.6703866  44.6727655  98.8407413
  39.8470495  45.5945619  98.6528397  40.4660700  44.3586074  99.2701793
  43.8114885  31.5335919 110.4391346  44.5524598  32.1343073 110.3595809
  44.0432808  30.7913557 109.8809389  38.9556223  36.7192287 108.7169576
  38.8409738  35.8177544 109.0176675  38.1000741  36.9655983 108.3654393
  46.0348061  44.6610027 110.3157077  45.5911915  43.8746406 109.9977981
  46.6965274  44.8489177 109.6500967  40.7935182  46.1905829 104.8417755
  41.3442607  46.0622892 104.0694749  39.9546658  46.4900718 104.4912648
  48.1329299  44.9412827 108.3438478  48.1147774  45.7621708 107.8518747
  49.0549219  44.8166902 108.5688619  44.5902353  42.4556956 109.1861986
  45.1230690  41.6945245 108.9561294  44.0616434  42.1630608 109.9286141
  47.7572048  27.5617022 104.7155628  47.4136317  28.4518664 104.6394739
  48.1251010  27.3718680 103.8525213  35.8257898  39.8850553  97.5344230
  36.6633120  40.2947561  97.3177938  36.0036166  38.9449995  97.5044424
  47.7222331  37.5525633  93.2228063  47.2068954  38.3230238  93.4616451
  47.4499639  36.8790770  93.8461125  45.3069442  32.3975334  98.2813301
  44.4511038  32.0082185  98.1018940  45.7196393  32.4767295  97.4213087
  46.8368588  29.9321678 102.6804861  46.3333384  29.8951813 101.8672667
  47.1299195  30.8414420 102.7401518  43.0811474  30.0160407 101.6871043
  43.9464471  29.8203216 101.3276932  43.1488983  29.7870759 102.6140400
  52.6956605  40.3057988  95.1581237  51.9186047  39.9669148  94.7136399
  53.3748086  40.3110611  94.4836202  47.5108634  35.4252726  95.0487844
  47.2058769  35.7398875  95.8997987  48.4639076  35.5034145  95.0915177
  45.9555066  41.5842949  96.6980798  45.4276427  40.8495708  96.3854036
  45.4542568  42.3617625  96.4520767  50.9347912  39.7791969 101.8147845
  50.2771586  40.4691231 101.9027973  51.7388311  40.1688401 102.1581831
  40.6873793  32.2462615  99.0587410  41.2617545  32.0237797  98.3260603
  41.2744776  32.3151310  99.8116011  49.7453370  38.1336342  99.8651786
  50.2585252  38.7666334 100.3673496  50.3954594  37.5337538  99.4995146
  41.0143380  34.2767076  93.0783295  40.1780693  34.6141763  93.3992570
  40.8748150  34.1416056  92.1410432  42.9896461  29.1203864  97.7862479
  42.3360873  28.8052881  97.1619094  42.9476935  28.4979605  98.5122302
  44.1007666  39.4023159  89.7015771  43.1934727  39.1712413  89.9006920
  44.5978698  38.6060778  89.8889753  47.0075745  48.1120666  92.6212457
  46.3337443  48.4152363  93.2297415  47.3941567  48.9149747  92.2717915
  46.2234201  35.6085798 102.1110127  45.3056763  35.8300745 101.9531815
  46.6394345  35.6832108 101.2521834  47.0069249  37.0077213  97.2412807
  47.7541068  37.5198610  96.9319929  47.2760839  36.6861266  98.1017201
  45.2795899  39.5035754  94.2239761  44.3707118  39.2194787  94.3212231
  45.3090983  39.9234833  93.3643068  50.5115167  43.1142344  97.9930929
  50.0577494  42.2733253  98.0496119  49.8809133  43.7503742  98.3305709
  49.4548086  34.0434330  99.2231596  48.7170843  33.5311716  99.5541839
  49.7074860  33.6034711  98.4114873  48.9548106  44.9518840  98.9280747
  49.2471080  45.5123897  98.2093113  49.4646726  45.2447401  99.6833906
  49.5559713  26.8210582  99.8173366  49.8618590  25.9607945  99.5299281
  50.2812318  27.4128202  99.6172360  35.8484070  37.2241268  98.2054964
  35.6508469  36.6310629  97.4806030  35.2930734  36.9193478  98.9230902
  43.8280793  37.1164375 100.3249557  43.8829403  36.1638211 100.2492033
  43.0171995  37.2723814 100.8090855  44.9771987  41.0444498  91.5627840
  44.5391417  40.3280357  91.1033477  45.7182428  41.2720612  91.0012931
  41.7673153  35.7341434  98.0839936  40.9541019  36.0335605  98.4905128
  42.2632147  35.3397123  98.8014418  43.9181731  45.7299191 100.0174200
  43.8757910  45.9560038  99.0882732  44.8344430  45.4962566 100.1660001
  47.3647365  36.1983259 106.9154830  47.7196753  36.4254732 107.7749295
  48.0119496  36.5301636 106.2932085  53.0945102  39.3201695  97.6204159
  52.9563000  39.5103291  96.6925348  52.7381321  40.0821078  98.0772210
  41.2587228  33.3059790 103.7001171  41.8986607  33.1648549 103.0024134
  40.4264758  33.0194303 103.3239773  53.1214481  41.3878222 102.6315430
  53.5550988  41.2953511 103.4798484  53.8346062  41.3635722 101.9935446
  42.0347532  42.6062220  99.8136163  42.8288130  42.1112540  99.6118738
  41.3239224  42.0780083  99.4503869  46.8542376  44.9880316 104.1648531
  46.9079399  45.5571252 104.9326247  45.9857158  45.1582201 103.8002568
  38.3430295  36.7505302  95.8895916  37.4127883  36.6889758  96.1065878
  38.4387767  36.2281255  95.0932557  38.2615844  33.2760115  98.4774157
  38.5222662  34.1905448  98.3683318  39.0833017  32.8084557  98.6270770
  39.7340770  34.6897872 105.6472982  40.4063823  34.4815234 104.9985631
  38.9070556  34.4919958 105.2078214  53.9830031  41.4301922 105.1648315
  54.1765921  42.3347733 105.4107590  53.8830649  40.9709341 105.9986900
  45.6366342  31.3159813 107.6638643  44.9894257  32.0149763 107.5703119
  46.4067357  31.7495957 108.0314891  49.0445140  41.5808665 110.7389196
  48.8930646  41.3519217 109.8219280  49.0349819  42.5379267 110.7520541
  45.8130476  39.1540578 105.7235462  46.7422536  39.3051737 105.5504430
  45.3921506  39.2424599 104.8684109  44.6118808  43.1791242 103.4934000
  44.4729894  42.8110027 104.3659938  43.8233404  43.6938882 103.3217958
  45.2066960  48.2800339  94.8359537  45.3818715  47.8088382  95.6505159
  44.5199748  48.9066105  95.0640797  46.1624023  42.5572845 100.8822838
  45.8273856  42.5173615 101.7780488  45.6627969  41.8917561 100.4093248
  40.1368267  37.9640475 106.4075419  39.9988065  37.2320714 107.0086958
  41.0473190  37.8749375 106.1259607  49.0983215  39.9028879  91.1559898
  48.4812385  39.1775707  91.0592950  48.6299703  40.6638240  90.8126972
  42.7650568  37.6760434 105.8959099  43.4750186  37.0353627 105.8545717
  42.7219876  37.9273329 106.8185279  50.7537346  44.6127788 108.8165678
  50.6949892  43.9287008 108.1496261  51.1556865  45.3546778 108.3646304
  41.4779502  34.6625652 107.7154738  40.9416859  34.2116391 108.3676335
  40.8896210  34.7971561 106.9725203  40.8881761  34.1214304  90.2781202
  40.0111227  34.0003104  89.9143449  41.3639514  33.3300382  90.0260090
  50.7554754  42.5767372 107.0479658  49.8681532  42.2393293 107.1706056
  51.3253305  41.8450403 107.2848423  32.4083901  38.9091463 100.3722709
  33.0954940  38.5953193  99.7843724  32.2532029  39.8132828 100.0989960
  37.2118623  33.7981660 104.8007733  37.1276812  33.1907329 104.0658143
  36.3901329  34.2890678 104.8017229  44.2855907  47.2368824 104.0140901
  44.2126078  48.0423795 104.5260205  43.8433300  47.4360790 103.1888922
  44.0745687  46.4740594  97.5243722  43.2913208  47.0162274  97.6181947
  44.7738432  46.9914574  97.9237964  47.3842337  32.2835223 100.1677928
  47.8811036  31.5305186  99.8478998  46.6129318  32.3199540  99.6021137
  55.2372094  37.9875589 101.8096219  55.2261970  38.8700304 101.4390152
  54.3689474  37.6347140 101.6150756  46.7454590  47.1355658 106.1699059
  47.4582563  47.7703123 106.0974961  46.2544619  47.2319524 105.3539061
  48.4672117  41.0406911  97.7416351  47.5328396  41.1608373  97.5721055
  48.6448786  40.1379377  97.4776361  43.9677305  34.4252606  99.8949612
  43.5975093  33.8723647 100.5830518  44.4636398  33.8210740  99.3424612
  51.8544669  36.8824230  98.2766385  52.3205121  37.7152222  98.2026688
  52.3052169  36.4169212  98.9811644  41.7966504  44.8850101 106.9904630
  42.4975963  45.5186584 107.1434024  41.3261619  45.2264833 106.2300270
  49.9220900  43.2268051  95.2752537  50.1980744  43.1124646  96.1846411
  49.0525399  42.8285536  95.2364710  49.8261331  29.2504817 102.3157287
  48.9124411  29.4809044 102.4839494  50.2554433  29.3343261 103.1671319
  49.5967790  37.4394709 104.8157181  48.9439240  37.6870616 104.1609633
  49.9748170  36.6258847 104.4819658  46.5574964  47.4754402  98.9185351
  46.7397358  46.6576058  99.3813103  47.3807950  47.6922094  98.4810241
  46.8917129  46.4022587  96.1800399  47.4204896  45.8915042  95.5670562
  47.1545349  46.0865117  97.0445932  45.6455363  38.1814520 111.3023218
  44.9696000  38.0808649 111.9725593  46.4682997  38.0253734 111.7659215
  37.3934222  44.4186456 103.9235733  37.9787659  43.6730144 104.0563637
  37.1959061  44.7290413 104.8072397  40.2472877  47.4537704  98.9398175
  39.5783253  47.9383832  98.4562215  40.1085747  47.7006924  99.8541554
  31.9851877  36.9892057 102.6440176  32.0235976  36.4555647 103.4377294
  31.4792170  36.4627262 102.0251153  44.3878146  49.4881447 105.5380834
  44.9396454  49.6513069 106.3029919  44.7284339  50.0785885 104.8660859
  39.3642639  31.8356597 106.1402718  39.4283966  32.6971428 105.7280116
  39.3009759  31.2230599 105.4075077  38.8394912  33.9079730 109.7875753
  39.4666950  33.5256807 110.4013277  37.9822830  33.6893932 110.1531445
  49.2389020  44.3142705 111.3929488  49.7828924  44.9272663 110.8984443
  48.6575865  44.8722283 111.9096501  35.6160454  35.7156159  95.7194107
  35.9113895  34.8066837  95.6661161  34.7148490  35.6943898  95.3975110
  47.5246533  47.4363423 102.5244516  47.3997673  46.6353163 102.0155461
  48.1825624  47.9309616 102.0358486  39.1454701  33.7912155 101.7021656
  38.4241287  34.4048123 101.5629129  39.9347957  34.3269920 101.6238302
  49.5881442  45.2372443 104.1524066  48.6411777  45.1177794 104.0802393
  49.9364215  44.3494941 104.2350327  41.9481015  31.1266582 107.9762308
  42.4715417  31.3728878 108.7388617  41.7293348  31.9586617 107.5565445
  37.3448296  33.3970257  95.8433433  37.0161002  32.5167635  95.6608539
  37.6987667  33.3417925  96.7309822  46.5927875  45.0325159 100.3528418
  46.4452837  44.1041867 100.5335988  47.4181368  45.0545250  99.8685493
  40.4590119  33.6843226  96.2108910  40.7986192  34.2129148  95.4887519
  40.9062240  34.0223632  96.9867477  50.1961997  45.8553718 101.4393291
  51.1208544  45.6496579 101.3017742  50.0277300  45.6070119 102.3482632
  43.1533560  32.0680277 105.6611978  42.8130380  31.2688090 106.0632658
  42.4472566  32.3681988 105.0888812  43.8050032  29.1529589 104.1139301
  44.6276101  28.6790068 103.9918192  44.0488095  29.9320073 104.6137988
  42.4458266  32.1817848  94.4102203  43.1666629  32.5599101  93.9065920
  41.8223570  32.9006725  94.5137181  46.5889389  32.8862997  95.3460535
  46.8053004  33.7687635  95.0449364  46.1083456  32.4949210  94.6166177
  41.3288611  35.8448710 101.9231280  41.1833191  36.1589013 102.8155562
  40.8513814  36.4633610 101.3702179  43.1884993  32.8351258 101.9712170
  43.1746562  31.9392351 101.6344468  43.9057422  32.8421922 102.6050456
  45.0411124  33.2688598 104.0165297  44.7828902  34.1905669 104.0149627
  44.5096164  32.8719033 104.7065761  49.9857313  46.3739385  96.7955382
  50.1594190  45.8085808  96.0429235  50.4786204  47.1740280  96.6134872
  35.8034273  38.3854054 104.8618941  35.2587741  39.1613862 104.9939216
  36.6813623  38.7324859 104.7038063  42.5921889  31.7165638  97.2399740
  42.7137801  30.7882285  97.4390627  42.3023932  31.7304324  96.3278055
  45.4613080  29.4020549 100.3766460  45.4834777  29.4659882  99.4218439
  45.8781139  28.5625057 100.5706966  55.8396704  39.1375808  98.4145682
  56.2827850  38.3883134  98.0164805  54.9623214  39.1285945  98.0319414
  50.9732485  45.6906150  93.8952281  51.6683390  46.3112843  94.1139595
  51.3155635  44.8401501  94.1704659  36.5900295  37.5123951 107.7549098
  35.8482031  37.6606586 108.3413728  36.2693039  37.7732216 106.8915847
  52.8723908  43.1405855  95.4239611  53.3975233  43.4793128  94.6988931
  52.7846261  42.2052871  95.2402746  44.5343957  47.0539929 107.5529488
  44.8431084  46.8089076 108.4252188  45.3319439  47.2586567 107.0648358
  44.5564569  49.2077839  99.7834865  44.1169560  48.7154217 100.4767721
  45.3072686  48.6650806  99.5426940  37.0356908  45.3989379  99.7859493
  37.8614928  45.0993151  99.4058136  36.6850960  44.6297002 100.2349281
  42.0038441  44.7515848 101.8557166  41.3818451  44.0886553 101.5559394
  42.6743308  44.7776980 101.1730814  35.2365513  43.3175706 100.7448426
  34.3997422  42.8897880 100.5632428  35.2089159  43.5108149 101.6819217
  42.0762969  33.2297636 111.4489672  42.1251124  34.1059759 111.0667442
  42.6185483  32.6875029 110.8761316  52.5617815  43.7738759 110.7290809
  51.7713358  43.7562898 110.1895309  52.3251169  44.3127053 111.4839846
  52.6815690  40.6231225 108.0423538  52.7313695  40.4581233 108.9839061
  52.5729613  39.7558484 107.6521419  41.5651948  43.3019771  95.3315627
  41.7140069  43.9855235  94.6782300  42.3718392  43.2824861  95.8465083
  49.9719452  36.6062153 109.3582845  50.8729315  36.4668618 109.0666842
  50.0467426  36.7716608 110.2981022  44.3062257  33.9829008 108.2036031
  43.4365567  34.2762574 107.9318620  44.5421738  34.5669453 108.9243295
  54.1833886  43.0428167 108.2865559  53.8918695  43.4058147 109.1229020
  53.5706018  42.3295175 108.1078892  55.3829569  40.6081047 100.8068130
  56.2176460  41.0470851 100.9705690  55.5188698  40.1319700  99.9876375
  52.4321075  38.1660782 106.7545617  52.9075196  38.3588428 105.9464469
  51.5086640  38.2219967 106.5089001  39.3204581  39.3284949  96.3376696
  39.0750623  38.4247279  96.5356906  39.4900496  39.3302099  95.3956174
  47.0101291  30.2008625 105.7201451  47.5283235  30.9369652 105.3947940
  46.6556424  30.5072618 106.5548210  38.5900229  35.0613306  93.8362857
  37.8969474  35.1357661  93.1802893  38.3451981  34.2973650  94.3584374
  47.2613885  26.6208908 101.2402348  47.5415639  25.9532097 101.8662774
  48.0464492  26.8138003 100.7277012  45.0647354  45.7967901  92.8027374
  44.4921321  46.4158089  92.3497846  45.6380147  46.3467263  93.3367296
  51.1322744  35.0426542 104.9873923  52.0840167  35.1424639 105.0086147
  50.9626194  34.2504810 105.4972007  49.1537123  32.1282125 105.1733324
  48.5587055  32.4087138 104.4779813  48.8686820  32.6176026 105.9450065
  48.2844614  46.0805052  93.9335957  49.2175287  46.0150613  94.1368832
  48.1967826  46.9161318  93.4750489  50.9132630  45.3970922  90.8939904
  50.8346262  45.0630786  91.7875662  51.7342297  45.8892690  90.8931376
  53.6110821  38.2632661 104.1016223  53.5787142  37.3248662 104.2875907
  54.2211445  38.3416698 103.3682048  45.4494152  37.1328714  90.1443427
  46.3953257  37.0034922  90.2131845  45.0708397  36.3943376  90.6212855
  53.7605310  35.0543705 104.1474506  53.2444359  34.2702161 103.9604435
  54.6445258  34.7262421 104.3121025  51.4216037  28.7984720 100.1070319
  51.2240858  28.4899808 100.9913651  52.0315742  29.5246359 100.2368248
  59.4287371  39.3248668 103.2422260  60.1590760  39.0633956 103.8029963
  58.8194317  38.5877390 103.2824327  57.5102668  37.4656531 103.8396711
  56.7835832  37.3312496 103.2313202  57.0949955  37.7733359 104.6453429
  45.3332845  41.1846460 111.6044084  46.2535854  41.3625059 111.7984130
  45.2982428  40.2402506 111.4523783  43.6337069  35.0578691  90.0798312
  42.7268525  34.7611803  90.1561026  43.9113050  34.7608509  89.2132598
  34.5515010  36.3785054 100.5297358  34.2317794  35.5250362 100.2371732
  34.0048438  36.5933632 101.2855326  38.3294917  39.0947495 104.2466865
  38.5480927  40.0264603 104.2654899  38.7420691  38.7355469 105.0321669
  45.2499135  29.6015580  96.2342553  44.4399864  29.2562665  96.6097799
  45.9383552  29.2923124  96.8230165  47.1789683  28.6793627  97.8566850
  47.7320722  29.0989081  98.5156873  47.4159770  27.7529375  97.8989806
  42.4035854  31.9165626  90.2210291  43.2655018  32.2420524  90.4806109
  42.5886198  31.1297122  89.7083357  34.4203270  39.9987966 102.4990480
  33.7266741  39.5841918 101.9860434  35.1676261  40.0408502 101.9023899
  50.5568491  30.7894152  97.3645514  49.9767160  31.4478956  96.9823567
  50.2904423  29.9671497  96.9532932  49.0072057  30.1899210  99.5666835
  49.5071835  30.3015745  98.7581153  49.6507665  29.8860263 100.2067643
  43.0654053  38.0977840 112.4534675  42.5821134  38.8978200 112.6598565
  43.1514992  38.1085785 111.5002119  36.3340012  39.9306219 100.3756495
  36.3110700  40.0293907  99.4238378  36.6440649  40.7771370 100.6973661
  38.9927390  41.9882374 104.4903109  39.9470644  41.9566317 104.4233041
  38.7939914  41.5272998 105.3053335  39.5826772  40.5583490 107.0573907
  40.4019661  41.0527569 107.0808744  39.8563580  39.6415459 107.0291474
  49.3393369  32.9494243  96.4201862  48.4519224  33.2343893  96.2022057
  49.7547358  32.7888006  95.5729139  52.6907905  32.9740764 100.1356202
  53.4668295  33.4637216 100.4080819  51.9656039  33.3998818 100.5928071
  55.1280463  33.6868383 101.1930142  55.7224954  33.4464119 100.4823451
  55.2007047  32.9675513 101.8203679  37.3477619  47.5301994 101.5073307
  37.2132087  46.7702395 100.9411305  36.9309681  48.2542894 101.0402096
  48.4836582  42.7138917  90.5149882  49.1872432  42.9188920  91.1307538
  47.7599231  43.2815679  90.7798966  49.3134392  38.4648779  96.6352153
  49.2569594  38.9217330  95.7959785  49.8662735  37.7039463  96.4574995
  53.1239198  34.2538511  97.4602272  52.8676132  33.8535146  98.2910480
  52.4992066  34.9682304  97.3352411  57.4351536  36.9934584  99.9673563
  56.8751094  37.0627773 100.7405126  56.8295039  36.8175568  99.2473060
  40.5046745  48.4271311 101.7191750  40.3879129  49.3716743 101.6170440
  39.6839191  48.1244872 102.1077549  50.3923279  43.1521447  92.5648342
  51.2268883  42.7202645  92.3825817  50.2307622  42.9803460  93.4925237
  50.0469172  39.6553560  93.9304682  49.9917975  39.4897831  92.9893126
  49.4215227  40.3629593  94.0866871  34.8361687  34.8921624 107.7566104
  35.4820550  34.3820578 108.2453329  34.6278838  35.6290306 108.3309529
  47.3615079  41.9602472 113.2558245  48.2306238  42.1343124 112.8944879
  46.8821830  42.7796889 113.1333974  43.3565297  29.1561669  93.5090000
  43.3443967  30.1003509  93.6658271  44.2488719  28.9731814  93.2149461
  41.5301259  49.0799573 104.9347678  42.4328506  49.1123183 105.2514173
  41.3038629  48.1500024 104.9494014  43.2854861  47.8330559 101.5957757
  42.3350492  47.8332421 101.4822129  43.5887347  47.0863294 101.0793791
  47.1717417  25.7504446  97.7635937  46.4049812  25.1962932  97.9092619
  47.5828122  25.8226314  98.6250089  59.0207555  53.6691098 102.6603519
  59.6585964  53.5497845 101.9566859  58.9028397  54.6171942 102.7191471
  55.8297261  53.6218526 102.5965044  55.4915772  53.5059590 101.7085579
  56.6987029  53.2209691 102.5766050  51.6884077  55.4754002  98.5861935
  51.1248942  55.3843939  97.8178223  51.5736472  54.6553907  99.0664427
  56.3117044  54.7753378 108.5551249  56.3005685  54.3806176 107.6831753
  56.4737683  54.0419450 109.1485021  51.1939262  56.2314107  94.2963534
  51.9670138  55.6843094  94.1576410  51.5464661  57.0958356  94.5077996
  53.0324305  57.5590489 107.5030433  52.7414171  58.4636120 107.3877100
  53.6681289  57.6007017 108.2174503  53.9580512  54.9367338 104.0931793
  54.5544084  54.7123360 103.3788756  54.0155483  54.1952083 104.6957241
  53.5305540  52.3906773  91.9281984  53.7831061  51.8688294  91.1665447
  52.5930099  52.2272919  92.0308668  58.5748823  51.3942552  99.7356727
  59.3611912  50.9761975  99.3847144  58.8387527  52.2988644  99.9038376
  58.7458900  56.8315402  94.4345384  58.1104733  56.9050028  95.1466289
  58.4156307  57.4209001  93.7564463  63.9757250  51.3317785 100.6389706
  64.7082422  50.7617002 100.8727535  63.2196606  50.9439385 101.0796211
  53.2501829  54.2934879  94.1306359  53.1338087  53.6179783  94.7987443
  53.3604089  53.8067253  93.3138512  55.5933370  53.7545026  97.8353048
  55.2291577  53.2275647  98.5465970  56.4500486  53.3643495  97.6619534
  61.4982670  45.0439359 105.0984314  61.1665995  45.9134770 104.8745529
  60.9028284  44.7275643 105.7778345  55.2338857  48.7834926  92.8314397
  55.4013259  49.6515162  93.1984868  55.0436026  48.9462208  91.9075686
  57.9914190  57.2451905 104.4980227  57.6914913  58.1476944 104.3896034
  57.6465250  56.9784088 105.3501380  51.4426672  53.6965702 100.5316932
  50.5177168  53.5641916 100.7394623  51.6911085  54.4759921 101.0286874
  61.3911334  49.7634445 102.1777664  60.4828211  49.6949853 101.8836425
  61.3398930  50.2406390 103.0059490  55.2128078  51.2392583  93.8161064
  55.0927703  51.6849634  94.6546544  54.5180666  51.5877901  93.2574602
  48.8035483  53.3398975 101.3660721  48.9327864  53.5933454 102.2800132
  48.1232934  53.9326683 101.0465376  55.4652200  51.1824091 110.1212562
  54.6885534  51.7418011 110.1115426  56.1042763  51.6680874 110.6427432
  63.2572980  47.9650883 103.9555538  62.6147360  48.2583417 103.3095333
  62.7527909  47.8503804 104.7608735  60.9113144  51.7114057  94.6441398
  61.8231000  51.9441443  94.4689095  60.4022791  52.2951101  94.0816476
  53.7198572  53.9909544 109.6830529  54.4613256  54.5294588 109.4065352
  53.0135557  54.6175833 109.8402080  59.1953912  56.1338684 108.2802690
  59.6037268  55.6921095 107.5357323  58.4731173  55.5591312 108.5336883
  55.5484982  51.0711291 105.6536247  56.3946177  51.4950705 105.7970896
  55.4883619  50.4144916 106.3474810  59.5182726  56.6939875 102.0354979
  58.8891589  56.8585589 101.3331047  59.1308388  57.1081485 102.8065943
  63.3971958  57.6294313  99.3899343  62.7122996  58.0093214  98.8396376
  63.4815807  58.2389640 100.1231291  58.6984427  48.7315660 107.3117421
  58.4545359  49.4857720 106.7751696  58.9744357  49.1101007 108.1464668
  60.6522890  55.2754272 105.9894686  60.8639785  55.9186032 105.3129067
  60.6052638  54.4416588 105.5216616  58.2549119  47.8872093 102.8931258
  57.3933598  48.1853346 103.1847996  58.2811553  48.1042491 101.9612291
  55.0710688  56.4314283  99.3005064  55.5349034  56.7101986  98.5109687
  54.8067486  55.5297728  99.1178155  51.9634769  55.9785765 102.2384827
  52.5336126  56.4073033 101.6002312  52.5542881  55.6968349 102.9369013
  54.0079574  52.5537436  96.1094629  54.7103617  53.0058479  96.5768556
  53.6760203  51.9121254  96.7374522  52.4559936  51.1449192 110.4845839
  51.8258596  51.8265473 110.7181236  52.3496024  51.0332274 109.5398977
  47.7504908  50.8120988 101.4111763  46.9603962  51.0678517 100.9351873
  48.2416155  51.6269326 101.5163803  61.7668718  58.1526227 104.1617044
  62.5886161  57.7506415 103.8799725  61.7631121  58.0494462 105.1133159
  49.7019653  51.1765567  98.3695240  48.9050817  51.2884262  98.8878735
  49.4745246  51.5152220  97.5036130  55.5325321  57.7010271 106.3177754
  55.5969754  58.1630678 107.1535926  54.8236245  57.0707636 106.4460064
  46.0342611  51.0651479 103.8426754  46.2850649  51.9498489 104.1084330
  46.5702159  50.8856080 103.0701845  69.8574711  54.4964976 100.5102015
  69.1038419  53.9272374 100.3546020  69.9922252  54.4627640 101.4572650
  55.2473339  59.3678378  96.1856735  55.1119014  60.2129914  96.6141582
  55.7883151  59.5697656  95.4222668  51.7340678  45.4469958 112.8471090
  51.3407624  44.8936157 113.5218734  52.5506819  45.7580536 113.2377607
  48.7002736  56.8853816  96.7584660  49.2127257  57.6797066  96.9090224
  49.3525449  56.1880107  96.6918261  50.5097621  60.0019572  98.8407413
  50.6864249  60.9237537  98.6528397  51.3054454  59.6877992  99.2701793
  54.6508639  46.8627837 110.4391346  55.3918353  47.4634990 110.3595809
  54.8826562  46.1205475 109.8809389  49.7949977  52.0484204 108.7169576
  49.6803493  51.1469462 109.0176675  48.9394495  52.2947901 108.3654393
  56.8741815  59.9901945 110.3157077  56.4305669  59.2038323 109.9977981
  57.5359029  60.1781095 109.6500967  51.6328936  61.5197746 104.8417755
  52.1836361  61.3914810 104.0694749  50.7940412  61.8192635 104.4912648
  58.9723053  60.2704745 108.3438478  58.9541529  61.0913626 107.8518747
  59.8942973  60.1458820 108.5688619  55.4296107  57.7848874 109.1861986
  55.9624444  57.0237162 108.9561294  54.9010188  57.4922526 109.9286141
  58.5965802  42.8908940 104.7155628  58.2530072  43.7810582 104.6394739
  58.9644765  42.7010598 103.8525213  58.5616085  52.8817551  93.2228063
  58.0462708  53.6522156  93.4616451  58.2893393  52.2082687  93.8461125
  56.1463196  47.7267252  98.2813301  55.2904792  47.3374102  98.1018940
  56.5590148  47.8059213  97.4213087  57.6762343  45.2613595 102.6804861
  57.1727138  45.2243730 101.8672667  57.9692950  46.1706338 102.7401518
  53.9205229  45.3452325 101.6871043  54.7858225  45.1495134 101.3276932
  53.9882738  45.1162677 102.6140400  63.5350359  55.6349906  95.1581237
  62.7579802  55.2961065  94.7136399  64.2141840  55.6402529  94.4836202
  58.3502388  50.7544643  95.0487844  58.0452524  51.0690792  95.8997987
  59.3032830  50.8326063  95.0915177  56.7948820  56.9134867  96.6980798
  56.2670182  56.1787626  96.3854036  56.2936323  57.6909543  96.4520767
  61.7741666  55.1083887 101.8147845  61.1165341  55.7983148 101.9027973
  62.5782065  55.4980319 102.1581831  51.5267548  47.5754533  99.0587410
  52.1011300  47.3529714  98.3260603  52.1138530  47.6443227  99.8116011
  60.5847125  53.4628260  99.8651786  61.0979007  54.0958252 100.3673496
  61.2348349  52.8629455  99.4995146  51.8537135  49.6058994  93.0783295
  51.0174447  49.9433680  93.3992570  51.7141904  49.4707974  92.1410432
  53.8290215  44.4495782  97.7862479  53.1754628  44.1344799  97.1619094
  53.7870690  43.8271522  98.5122302  54.9401420  54.7315077  89.7015771
  54.0328482  54.5004330  89.9006920  55.4372452  53.9352696  89.8889753
  57.0627956  50.9377715 102.1110127  56.1450517  51.1592662 101.9531815
  57.4788099  51.0124026 101.2521834  57.8463004  52.3369131  97.2412807
  58.5934822  52.8490528  96.9319929  58.1154593  52.0153184  98.1017201
  56.1189654  54.8327672  94.2239761  55.2100873  54.5486704  94.3212231
  56.1484737  55.2526750  93.3643068  61.3508921  58.4434261  97.9930929
  60.8971248  57.6025171  98.0496119  60.7202888  59.0795660  98.3305709
  60.2941841  49.3726247  99.2231596  59.5564597  48.8603633  99.5541839
  60.5468614  48.9326629  98.4114873  59.7941860  60.2810758  98.9280747
  60.0864835  60.8415815  98.2093113  60.3040481  60.5739319  99.6833906
  60.3953468  42.1502499  99.8173366  60.7012345  41.2899863  99.5299281
  61.1206073  42.7420119  99.6172360  54.6674548  52.4456292 100.3249557
  54.7223158  51.4930129 100.2492033  53.8565750  52.6015731 100.8090855
  55.8165741  56.3736415  91.5627840  55.3785171  55.6572274  91.1033477
  56.5576182  56.6012530  91.0012931  52.6066908  51.0633352  98.0839936
  51.7934773  51.3627523  98.4905128  53.1025902  50.6689041  98.8014418
  54.7575486  61.0591109 100.0174200  54.7151664  61.2851955  99.0882732
  55.6738184  60.8254484 100.1660001  58.2041119  51.5275177 106.9154830
  58.5590507  51.7546650 107.7749295  58.8513251  51.8593553 106.2932085
  63.9338856  54.6493612  97.6204159  63.7956755  54.8395208  96.6925348
  63.5775075  55.4112995  98.0772210  52.0980982  48.6351708 103.7001171
  52.7380362  48.4940467 103.0024134  51.2658513  48.3486221 103.3239773
  63.9608236  56.7170139 102.6315430  64.3944743  56.6245428 103.4798484
  64.6739817  56.6927640 101.9935446  52.8741286  57.9354138  99.8136163
  53.6681885  57.4404458  99.6118738  52.1632979  57.4072001  99.4503869
  57.6936131  60.3172234 104.1648531  57.7473153  60.8863170 104.9326247
  56.8250912  60.4874119 103.8002568  49.1824050  52.0797220  95.8895916
  48.2521638  52.0181675  96.1065878  49.2781522  51.5573172  95.0932557
  49.1009599  48.6052033  98.4774157  49.3616416  49.5197366  98.3683318
  49.9226771  48.1376475  98.6270770  50.5734524  50.0189790 105.6472982
  51.2457578  49.8107152 104.9985631  49.7464311  49.8211876 105.2078214
  64.8223785  56.7593840 105.1648315  65.0159676  57.6639651 105.4107590
  64.7224404  56.3001259 105.9986900  56.4760096  46.6451731 107.6638643
  55.8288011  47.3441680 107.5703119  57.2461112  47.0787875 108.0314891
  59.8838894  56.9100583 110.7389196  59.7324401  56.6811134 109.8219280
  59.8743574  57.8671184 110.7520541  56.6524231  54.4832496 105.7235462
  57.5816291  54.6343655 105.5504430  56.2315261  54.5716516 104.8684109
  55.4512562  58.5083160 103.4934000  55.3123648  58.1401944 104.3659938
  54.6627159  59.0230799 103.3217958  57.0017777  57.8864763 100.8822838
  56.6667610  57.8465533 101.7780488  56.5021723  57.2209479 100.4093248
  50.9762021  53.2932393 106.4075419  50.8381819  52.5612632 107.0086958
  51.8866945  53.2041293 106.1259607  59.9376969  55.2320797  91.1559898
  59.3206140  54.5067625  91.0592950  59.4693458  55.9930157  90.8126972
  53.6044322  53.0052352 105.8959099  54.3143941  52.3645544 105.8545717
  53.5613630  53.2565247 106.8185279  61.5931101  59.9419705 108.8165678
  61.5343647  59.2578925 108.1496261  61.9950619  60.6838695 108.3646304
  52.3173256  49.9917570 107.7154738  51.7810613  49.5408308 108.3676335
  51.7289965  50.1263479 106.9725203  51.7275515  49.4506221  90.2781202
  50.8504981  49.3295022  89.9143449  52.2033268  48.6592300  90.0260090
  61.5948508  57.9059289 107.0479658  60.7075287  57.5685211 107.1706056
  62.1647059  57.1742321 107.2848423  48.0512377  49.1273578 104.8007733
  47.9670566  48.5199247 104.0658143  47.2295084  49.6182596 104.8017229
  55.1249661  62.5660742 104.0140901  55.0519833  63.3715713 104.5260205
  54.6827055  62.7652707 103.1888922  54.9139441  61.8032512  97.5243722
  54.1306963  62.3454192  97.6181947  55.6132186  62.3206491  97.9237964
  58.2236091  47.6127141 100.1677928  58.7204791  46.8597103  99.8478998
  57.4523073  47.6491458  99.6021137  66.0765849  53.3167507 101.8096219
  66.0655725  54.1992222 101.4390152  65.2083228  52.9639057 101.6150756
  57.5848345  62.4647576 106.1699059  58.2976317  63.0995040 106.0974961
  57.0938374  62.5611442 105.3539061  59.3065872  56.3698828  97.7416351
  58.3722151  56.4900291  97.5721055  59.4842540  55.4671295  97.4776361
  54.8071060  49.7544524  99.8949612  54.4368847  49.2015564 100.5830518
  55.3030152  49.1502658  99.3424612  62.6938423  52.2116148  98.2766385
  63.1598875  53.0444139  98.2026688  63.1445924  51.7461129  98.9811644
  52.6360258  60.2142019 106.9904630  53.3369718  60.8478502 107.1434024
  52.1655373  60.5556751 106.2300270  60.7614654  58.5559969  95.2752537
  61.0374498  58.4416563  96.1846411  59.8919153  58.1577454  95.2364710
  60.6655086  44.5796735 102.3157287  59.7518166  44.8100961 102.4839494
  61.0948187  44.6635179 103.1671319  60.4361544  52.7686627 104.8157181
  59.7832995  53.0162534 104.1609633  60.8141924  51.9550765 104.4819658
  56.4849117  53.5106438 111.3023218  55.8089754  53.4100567 111.9725593
  57.3076751  53.3545651 111.7659215  48.2327977  59.7478374 103.9235733
  48.8181413  59.0022062 104.0563637  48.0352815  60.0582331 104.8072397
  42.8245631  52.3183974 102.6440176  42.8629731  51.7847565 103.4377294
  42.3185924  51.7919180 102.0251153  55.2271900  64.8173365 105.5380834
  55.7790208  64.9804987 106.3029919  55.5678094  65.4077803 104.8660859
  50.2036394  47.1648515 106.1402718  50.2677720  48.0263346 105.7280116
  50.1403514  46.5522517 105.4075077  49.6788666  49.2371647 109.7875753
  50.3060705  48.8548725 110.4013277  48.8216585  49.0185849 110.1531445
  60.0782775  59.6434623 111.3929488  60.6222679  60.2564581 110.8984443
  59.4969620  60.2014201 111.9096501  46.4554209  51.0448077  95.7194107
  46.7507650  50.1358755  95.6661161  45.5542245  51.0235816  95.3975110
  58.3640288  62.7655341 102.5244516  58.2391427  61.9645080 102.0155461
  59.0219379  63.2601534 102.0358486  49.9848456  49.1204073 101.7021656
  49.2635042  49.7340041 101.5629129  50.7741712  49.6561838 101.6238302
  60.4275196  60.5664361 104.1524066  59.4805532  60.4469712 104.0802393
  60.7757969  59.6786859 104.2350327  52.7874769  46.4558500 107.9762308
  53.3109171  46.7020796 108.7388617  52.5687103  47.2878534 107.5565445
  48.1842050  48.7262174  95.8433433  47.8554757  47.8459553  95.6608539
  48.5381421  48.6709843  96.7309822  57.4321629  60.3617077 100.3528418
  57.2846592  59.4333784 100.5335988  58.2575123  60.3837168  99.8685493
  51.2983874  49.0135144  96.2108910  51.6379946  49.5421065  95.4887519
  51.7455994  49.3515550  96.9867477  61.0355751  61.1845636 101.4393291
  61.9602299  60.9788497 101.3017742  60.8671055  60.9362037 102.3482632
  53.9927314  47.3972195 105.6611978  53.6524135  46.5980008 106.0632658
  53.2866321  47.6973906 105.0888812  54.6443786  44.4821507 104.1139301
  55.4669856  44.0081985 103.9918192  54.8881850  45.2611991 104.6137988
  53.2852021  47.5109766  94.4102203  54.0060383  47.8891018  93.9065920
  52.6617325  48.2298642  94.5137181  57.4283144  48.2154915  95.3460535
  57.6446758  49.0979552  95.0449364  56.9477211  47.8241128  94.6166177
  52.1682365  51.1740628 101.9231280  52.0226946  51.4880931 102.8155562
  51.6907569  51.7925528 101.3702179  54.0278748  48.1643176 101.9712170
  54.0140317  47.2684269 101.6344468  54.7451176  48.1713840 102.6050456
  55.8804879  48.5980516 104.0165297  55.6222656  49.5197587 104.0149627
  55.3489919  48.2010951 104.7065761  46.6428027  53.7145972 104.8618941
  46.0981495  54.4905780 104.9939216  47.5207377  54.0616777 104.7038063
  53.4315644  47.0457556  97.2399740  53.5531555  46.1174202  97.4390627
  53.1417686  47.0596242  96.3278055  56.3006834  44.7312466 100.3766460
  56.3228531  44.7951800  99.4218439  56.7174893  43.8916975 100.5706966
  66.6790459  54.4667726  98.4145682  67.1221605  53.7175051  98.0164805
  65.8016969  54.4577862  98.0319414  47.4294049  52.8415868 107.7549098
  46.6875785  52.9898504 108.3413728  47.1086793  53.1024134 106.8915847
  63.7117663  58.4697773  95.4239611  64.2368987  58.8085046  94.6988931
  63.6240016  57.5344788  95.2402746  55.3737712  62.3831847 107.5529488
  55.6824838  62.1380993 108.4252188  56.1713194  62.5878485 107.0648358
  52.8432196  60.0807765 101.8557166  52.2212205  59.4178470 101.5559394
  53.5137063  60.1068897 101.1730814  52.9156723  48.5589553 111.4489672
  52.9644879  49.4351676 111.0667442  53.4579238  48.0166946 110.8761316
  63.4011569  59.1030677 110.7290809  62.6107113  59.0854816 110.1895309
  63.1644924  59.6418970 111.4839846  63.5209444  55.9523143 108.0423538
  63.5707449  55.7873150 108.9839061  63.4123367  55.0850402 107.6521419
  52.4045703  58.6311689  95.3315627  52.5533823  59.3147153  94.6782300
  53.2112146  58.6116779  95.8465083  60.8113206  51.9354071 109.3582845
  61.7123069  51.7960536 109.0666842  60.8861181  52.1008526 110.2981022
  55.1456012  49.3120926 108.2036031  54.2759321  49.6054492 107.9318620
  55.3815492  49.8961371 108.9243295  65.0227641  58.3720085 108.2865559
  64.7312449  58.7350065 109.1229020  64.4099772  57.6587093 108.1078892
  66.2223323  55.9372964 100.8068130  67.0570215  56.3762768 100.9705690
  66.3582452  55.4611618  99.9876375  63.2714829  53.4952699 106.7545617
  63.7468951  53.6880345 105.9464469  62.3480395  53.5511885 106.5089001
  50.1598336  54.6576866  96.3376696  49.9144378  53.7539196  96.5356906
  50.3294250  54.6594017  95.3956174  57.8495046  45.5300543 105.7201451
  58.3676990  46.2661570 105.3947940  57.4950178  45.8364536 106.5548210
  49.4293983  50.3905224  93.8362857  48.7363228  50.4649579  93.1802893
  49.1845735  49.6265568  94.3584374  58.1007640  41.9500825 101.2402348
  58.3809394  41.2824014 101.8662774  58.8858247  42.1429921 100.7277012
  61.9716498  50.3718459 104.9873923  62.9233921  50.4716557 105.0086147
  61.8019949  49.5796728 105.4972007  59.9930878  47.4574042 105.1733324
  59.3980810  47.7379055 104.4779813  59.7080574  47.9467943 105.9450065
  64.4504576  53.5924579 104.1016223  64.4180896  52.6540580 104.2875907
  65.0605200  53.6708616 103.3682048  56.2887907  52.4620632  90.1443427
  57.2347012  52.3326840  90.2131845  55.9102152  51.7235294  90.6212855
  64.5999064  50.3835622 104.1474506  64.0838113  49.5994079 103.9604435
  65.4839013  50.0554339 104.3121025  62.2609791  44.1276638 100.1070319
  62.0634612  43.8191726 100.9913651  62.8709497  44.8538277 100.2368248
  70.2681126  54.6540586 103.2422260  70.9984514  54.3925874 103.8029963
  69.6588071  53.9169308 103.2824327  68.3496423  52.7948448 103.8396711
  67.6229586  52.6604413 103.2313202  67.9343710  53.1025277 104.6453429
  56.1726599  56.5138378 111.6044084  57.0929609  56.6916977 111.7984130
  56.1376182  55.5694423 111.4523783  54.4730824  50.3870608  90.0798312
  53.5662279  50.0903721  90.1561026  54.7506805  50.0900426  89.2132598
  45.3908764  51.7076972 100.5297358  45.0711549  50.8542280 100.2371732
  44.8442193  51.9225550 101.2855326  49.1688672  54.4239413 104.2466865
  49.3874682  55.3556521 104.2654899  49.5814446  54.0647387 105.0321669
  56.0892890  44.9307498  96.2342553  55.2793618  44.5854583  96.6097799
  56.7777307  44.6215042  96.8230165  58.0183438  44.0085545  97.8566850
  58.5714477  44.4280998  98.5156873  58.2553524  43.0821293  97.8989806
  54.0416537  49.9972618 113.6369614  53.9413264  50.9466975 113.5681705
  53.8238079  49.6690857 112.7645684  53.2429609  47.2457544  90.2210291
  54.1048773  47.5712442  90.4806109  53.4279953  46.4589039  89.7083357
  61.3962245  46.1186070  97.3645514  60.8160914  46.7770874  96.9823567
  61.1298178  45.2963415  96.9532932  59.8465811  45.5191128  99.5666835
  60.3465590  45.6307662  98.7581153  60.4901419  45.2152181 100.2067643
  53.9047807  53.4269757 112.4534675  53.4214889  54.2270117 112.6598565
  53.9908746  53.4377702 111.5002119  49.8321145  57.3174292 104.4903109
  50.7864398  57.2858234 104.4233041  49.6333668  56.8564916 105.3053335
  50.4220527  55.8875408 107.0573907  51.2413416  56.3819487 107.0808744
  50.6957335  54.9707376 107.0291474  60.1787123  48.2786160  96.4201862
  59.2912978  48.5635811  96.2022057  60.5941112  48.1179924  95.5729139
  63.5301659  48.3032681 100.1356202  64.3062049  48.7929134 100.4080819
  62.8049793  48.7290736 100.5928071  65.9674218  49.0160301 101.1930142
  66.5618709  48.7756037 100.4823451  66.0400802  48.2967431 101.8203679
  60.1528147  53.7940696  96.6352153  60.0963348  54.2509248  95.7959785
  60.7056489  53.0331381  96.4574995  63.9632953  49.5830428  97.4602272
  63.7069887  49.1827064  98.2910480  63.3385821  50.2974222  97.3352411
  68.2745291  52.3226501  99.9673563  67.7144849  52.3919691 100.7405126
  67.6688794  52.1467486  99.2473060  51.3440499  63.7563229 101.7191750
  51.2272884  64.7008661 101.6170440  50.5232946  63.4536790 102.1077549
  61.2317034  58.4813364  92.5648342  62.0662638  58.0494563  92.3825817
  61.0701377  58.3095378  93.4925237  60.8862926  54.9845478  93.9304682
  60.8311730  54.8189749  92.9893126  60.2608981  55.6921510  94.0866871
  45.6755441  50.2213542 107.7566104  46.3214305  49.7112496 108.2453329
  45.4672592  50.9582224 108.3309529  58.2008833  57.2894389 113.2558245
  59.0699993  57.4635042 112.8944879  57.7215585  58.1088806 113.1333974
  54.1959052  44.4853587  93.5090000  54.1837721  45.4295426  93.6658271
  55.0882473  44.3023732  93.2149461  52.3695014  64.4091490 104.9347678
  53.2722260  64.4415101 105.2514173  52.1432384  63.4791941 104.9494014
  54.1248616  63.1622477 101.5957757  53.1744247  63.1624339 101.4822129
  54.4281102  62.4155212 101.0793791  58.0111171  41.0796363  97.7635937
  57.2443567  40.5254850  97.9092619  58.4221876  41.1518232  98.6250089
  50.0152932  47.3681159 111.8541118  50.8784394  47.0117964 112.0644443
  49.4418343  47.0295054 112.5416522  69.8601309  68.9983015 102.6603519
  70.4979719  68.8789763 101.9566859  69.7422152  69.9463859 102.7191471
  66.6691015  68.9510443 102.5965044  66.3309527  68.8351508 101.7085579
  67.5380784  68.5501609 102.5766050  67.1510798  70.1045295 108.5551249
  67.1399439  69.7098093 107.6831753  67.3131438  69.3711368 109.1485021
  63.8718059  72.8882407 107.5030433  63.5807925  73.7928038 107.3877100
  64.5075044  72.9298935 108.2174503  64.7974266  70.2659256 104.0931793
  65.3937839  70.0415278 103.3788756  64.8549238  69.5244001 104.6957241
  69.4142578  66.7234469  99.7356727  70.2005667  66.3053892  99.3847144
  69.6781282  67.6280561  99.9038376  74.8151005  66.6609702 100.6389706
  75.5476177  66.0908919 100.8727535  74.0590360  66.2731303 101.0796211
  72.3376425  60.3731277 105.0984314  72.0059750  61.2426687 104.8745529
  71.7422038  60.0567561 105.7778345  68.8307945  72.5743823 104.4980227
  68.5308668  73.4768861 104.3896034  68.4859004  72.3076006 105.3501380
  62.2820426  69.0257619 100.5316932  61.3570922  68.8933833 100.7394623
  62.5304839  69.8051839 101.0286874  72.2305088  65.0926363 102.1777664
  71.3221966  65.0241771 101.8836425  72.1792684  65.5698308 103.0059490
  66.3045954  66.5116008 110.1212562  65.5279288  67.0709928 110.1115426
  66.9436517  66.9972791 110.6427432  74.0966735  63.2942801 103.9555538
  73.4541115  63.5875334 103.3095333  73.5921663  63.1795721 104.7608735
  64.5592326  69.3201462 109.6830529  65.3007011  69.8586506 109.4065352
  63.8529312  69.9467750 109.8402080  70.0347666  71.4630602 108.2802690
  70.4431022  71.0213013 107.5357323  69.3124928  70.8883230 108.5336883
  66.3878736  66.4003209 105.6536247  67.2339931  66.8242622 105.7970896
  66.3277374  65.7436833 106.3474810  70.3576481  72.0231793 102.0354979
  69.7285343  72.1877507 101.3331047  69.9702143  72.4373402 102.8065943
  74.2365713  72.9586231  99.3899343  73.5516751  73.3385132  98.8396376
  74.3209562  73.5681557 100.1231291  69.5378181  64.0607577 107.3117421
  69.2939113  64.8149638 106.7751696  69.8138112  64.4392925 108.1464668
  71.4916644  70.6046190 105.9894686  71.7033539  71.2477950 105.3129067
  71.4446392  69.7708506 105.5216616  69.0942873  63.2164010 102.8931258
  68.2327352  63.5145264 103.1847996  69.1205308  63.4334409 101.9612291
  62.8028524  71.3077682 102.2384827  63.3729881  71.7364951 101.6002312
  63.3936635  71.0260267 102.9369013  63.2953690  66.4741110 110.4845839
  62.6652351  67.1557391 110.7181236  63.1889778  66.3624191 109.5398977
  58.5898663  66.1412906 101.4111763  57.7997717  66.3970434 100.9351873
  59.0809910  66.9561244 101.5163803  72.6062472  73.4818145 104.1617044
  73.4279916  73.0798332 103.8799725  72.6024875  73.3786379 105.1133159
  66.3719076  73.0302188 106.3177754  66.4363508  73.4922596 107.1535926
  65.6629999  72.3999553 106.4460064  56.8736366  66.3943396 103.8426754
  57.1244404  67.2790406 104.1084330  57.4095914  66.2147998 103.0701845
  80.6968465  69.8256894 100.5102015  79.9432174  69.2564292 100.3546020
  80.8316006  69.7919558 101.4572650  62.5734433  60.7761876 112.8471090
  62.1801378  60.2228074 113.5218734  63.3900573  61.0872454 113.2377607
  65.4902394  62.1919755 110.4391346  66.2312107  62.7926908 110.3595809
  65.7220317  61.4497393 109.8809389  60.6343732  67.3776122 108.7169576
  60.5197247  66.4761379 109.0176675  59.7788250  67.6239819 108.3654393
  67.7135570  75.3193862 110.3157077  67.2699424  74.5330241 109.9977981
  68.3752783  75.5073013 109.6500967  62.4722691  76.8489664 104.8417755
  63.0230116  76.7206727 104.0694749  61.6334167  77.1484553 104.4912648
  69.8116808  75.5996662 108.3438478  69.7935283  76.4205543 107.8518747
  70.7336728  75.4750737 108.5688619  66.2689862  73.1140792 109.1861986
  66.8018199  72.3529080 108.9561294  65.7403943  72.8214444 109.9286141
  69.4359557  58.2200858 104.7155628  69.0923826  59.1102499 104.6394739
  69.8038519  58.0302515 103.8525213  68.5156097  60.5905513 102.6804861
  68.0120893  60.5535648 101.8672667  68.8086704  61.4998256 102.7401518
  64.7598983  60.6744243 101.6871043  65.6251980  60.4787051 101.3276932
  64.8276492  60.4454594 102.6140400  74.3744114  70.9641823  95.1581237
  73.5973556  70.6252983  94.7136399  75.0535595  70.9694447  94.4836202
  72.6135421  70.4375805 101.8147845  71.9559095  71.1275066 101.9027973
  73.4175820  70.8272237 102.1581831  62.3661302  62.9046451  99.0587410
  62.9405054  62.6821632  98.3260603  62.9532285  62.9735145  99.8116011
  71.4240879  68.7920177  99.8651786  71.9372761  69.4250169 100.3673496
  72.0742103  68.1921373  99.4995146  64.6683970  59.7787699  97.7862479
  64.0148382  59.4636717  97.1619094  64.6264444  59.1563440  98.5122302
  67.9021710  66.2669633 102.1110127  66.9844272  66.4884580 101.9531815
  68.3181854  66.3415943 101.2521834  72.1902676  73.7726179  97.9930929
  71.7365003  72.9317089  98.0496119  71.5596642  74.4087577  98.3305709
  71.1335595  64.7018165  99.2231596  70.3958352  64.1895551  99.5541839
  71.3862369  64.2618546  98.4114873  70.6335615  75.6102676  98.9280747
  70.9258589  76.1707733  98.2093113  71.1434235  75.9031237  99.6833906
  71.2347222  57.4794417  99.8173366  71.5406099  56.6191780  99.5299281
  71.9599827  58.0712037  99.6172360  69.0434874  66.8567094 106.9154830
  69.3984262  67.0838567 107.7749295  69.6907005  67.1885471 106.2932085
  74.7732611  69.9785530  97.6204159  74.6350509  70.1687126  96.6925348
  74.4168830  70.7404913  98.0772210  62.9374737  63.9643625 103.7001171
  63.5774116  63.8232384 103.0024134  62.1052267  63.6778139 103.3239773
  74.8001990  72.0462057 102.6315430  75.2338497  71.9537346 103.4798484
  75.5133571  72.0219558 101.9935446  68.5329885  75.6464151 104.1648531
  68.5866908  76.2155087 104.9326247  67.6644667  75.8166036 103.8002568
  61.4128279  65.3481707 105.6472982  62.0851332  65.1399070 104.9985631
  60.5858065  65.1503793 105.2078214  75.6617540  72.0885758 105.1648315
  75.8553430  72.9931568 105.4107590  75.5618158  71.6293177 105.9986900
  67.3153851  61.9743648 107.6638643  66.6681766  62.6733598 107.5703119
  68.0854866  62.4079792 108.0314891  70.7232649  72.2392500 110.7389196
  70.5718155  72.0103052 109.8219280  70.7137328  73.1963102 110.7520541
  67.4917985  69.8124413 105.7235462  68.4210045  69.9635573 105.5504430
  67.0709015  69.9008434 104.8684109  66.2906317  73.8375078 103.4934000
  66.1517402  73.4693862 104.3659938  65.5020913  74.3522717 103.3217958
  67.8411532  73.2156680 100.8822838  67.5061365  73.1757450 101.7780488
  67.3415478  72.5501396 100.4093248  61.8155776  68.6224310 106.4075419
  61.6775574  67.8904549 107.0086958  62.7260699  68.5333210 106.1259607
  64.4438077  68.3344270 105.8959099  65.1537695  67.6937462 105.8545717
  64.4007385  68.5857165 106.8185279  72.4324855  75.2711623 108.8165678
  72.3737401  74.5870843 108.1496261  72.8344374  76.0130613 108.3646304
  63.1567011  65.3209488 107.7154738  62.6204368  64.8700226 108.3676335
  62.5683719  65.4555396 106.9725203  61.4515554  82.0873537 101.6099397
  61.6912152  82.7192061 102.2878415  60.6084751  81.7361577 101.8964756
  72.4342263  73.2351207 107.0479658  71.5469041  72.8977129 107.1706056
  73.0040814  72.5034238 107.2848423  58.8906132  64.4565495 104.8007733
  58.8064321  63.8491165 104.0658143  58.0688838  64.9474514 104.8017229
  65.9643416  77.8952659 104.0140901  65.8913587  78.7007631 104.5260205
  65.5220809  78.0944625 103.1888922  69.0629846  62.9419059 100.1677928
  69.5598545  62.1889021  99.8478998  68.2916827  62.9783375  99.6021137
  76.9159603  68.6459424 101.8096219  76.9049479  69.5284140 101.4390152
  76.0476982  68.2930975 101.6150756  68.4242099  77.7939493 106.1699059
  69.1370072  78.4286958 106.0974961  67.9332128  77.8903359 105.3539061
  70.1459626  71.6990746  97.7416351  69.2115905  71.8192208  97.5721055
  70.3236295  70.7963213  97.4776361  73.5332178  67.5408065  98.2766385
  73.9992630  68.3736057  98.2026688  73.9839678  67.0753047  98.9811644
  63.4754013  75.5433937 106.9904630  64.1763472  76.1770420 107.1434024
  63.0049128  75.8848668 106.2300270  71.6008409  73.8851887  95.2752537
  71.8768253  73.7708481  96.1846411  70.7312908  73.4869371  95.2364710
  71.5048840  59.9088652 102.3157287  70.5911920  60.1392879 102.4839494
  71.9341942  59.9927096 103.1671319  71.2755299  68.0978544 104.8157181
  70.6226749  68.3454452 104.1609633  71.6535679  67.2842682 104.4819658
  68.2362473  78.1338237  98.9185351  68.4184867  77.3159893  99.3813103
  69.0595459  78.3505930  98.4810241  68.5704638  77.0606423  96.1800399
  69.0992405  76.5498877  95.5670562  68.8332858  76.7448953  97.0445932
  67.3242872  68.8398355 111.3023218  66.6483509  68.7392485 111.9725593
  68.1470506  68.6837569 111.7659215  59.0721731  75.0770292 103.9235733
  59.6575168  74.3313980 104.0563637  58.8746569  75.3874249 104.8072397
  66.0665655  80.1465283 105.5380834  66.6183963  80.3096904 106.3029919
  66.4071848  80.7369721 104.8660859  61.0430148  62.4940433 106.1402718
  61.1071475  63.3555263 105.7280116  60.9797268  61.8814434 105.4075077
  60.5182421  64.5663565 109.7875753  61.1454459  64.1840642 110.4013277
  59.6610339  64.3477767 110.1531445  70.9176529  74.9726540 111.3929488
  71.4616433  75.5856499 110.8984443  70.3363374  75.5306119 111.9096501
  69.2034042  78.0947258 102.5244516  69.0785182  77.2936998 102.0155461
  69.8613133  78.5893452 102.0358486  60.8242210  64.4495991 101.7021656
  60.1028796  65.0631959 101.5629129  61.6135466  64.9853756 101.6238302
  71.2668950  75.8956278 104.1524066  70.3199286  75.7761630 104.0802393
  71.6151724  75.0078776 104.2350327  63.6268524  61.7850417 107.9762308
  64.1502926  62.0312714 108.7388617  63.4080857  62.6170452 107.5565445
  68.2715384  75.6908995 100.3528418  68.1240346  74.7625702 100.5335988
  69.0968877  75.7129085  99.8685493  71.8749506  76.5137553 101.4393291
  72.7996053  76.3080415 101.3017742  71.7064809  76.2653954 102.3482632
  64.8321069  62.7264112 105.6611978  64.4917889  61.9271925 106.0632658
  64.1260075  63.0265823 105.0888812  65.4837541  59.8113425 104.1139301
  66.3063610  59.3373903 103.9918192  65.7275604  60.5903909 104.6137988
  63.0076119  66.5032545 101.9231280  62.8620700  66.8172849 102.8155562
  62.5301323  67.1217446 101.3702179  64.8672502  63.4935093 101.9712170
  64.8534071  62.5976187 101.6344468  65.5844930  63.5005757 102.6050456
  66.7198633  63.9272434 104.0165297  66.4616411  64.8489504 104.0149627
  66.1883673  63.5302868 104.7065761  71.6644822  77.0323221  96.7955382
  71.8381699  76.4669643  96.0429235  72.1573713  77.8324116  96.6134872
  57.4821782  69.0437890 104.8618941  56.9375250  69.8197698 104.9939216
  58.3601132  69.3908694 104.7038063  67.1400589  60.0604384 100.3766460
  67.1622286  60.1243717  99.4218439  67.5568648  59.2208893 100.5706966
  77.5184213  69.7959644  98.4145682  77.9615359  69.0466969  98.0164805
  76.6410723  69.7869780  98.0319414  58.2687804  68.1707786 107.7549098
  57.5269540  68.3190421 108.3413728  57.9480548  68.4316052 106.8915847
  74.5511417  73.7989691  95.4239611  75.0762742  74.1376963  94.6988931
  74.4633770  72.8636706  95.2402746  66.2131466  77.7123764 107.5529488
  66.5218593  77.4672911 108.4252188  67.0106948  77.9170403 107.0648358
  66.2352078  79.8661674  99.7834865  65.7957068  79.3738053 100.4767721
  66.9860195  79.3234642  99.5426940  63.6825950  75.4099683 101.8557166
  63.0605960  74.7470388 101.5559394  64.3530817  75.4360815 101.1730814
  63.7550478  63.8881471 111.4489672  63.8038633  64.7643594 111.0667442
  64.2972992  63.3458864 110.8761316  74.2405324  74.4322594 110.7290809
  73.4500867  74.4146733 110.1895309  74.0038678  74.9710888 111.4839846
  74.3603199  71.2815061 108.0423538  74.4101204  71.1165068 108.9839061
  74.2517122  70.4142320 107.6521419  71.6506961  67.2645989 109.3582845
  72.5516824  67.1252454 109.0666842  71.7254935  67.4300444 110.2981022
  65.9849766  64.6412844 108.2036031  65.1153076  64.9346410 107.9318620
  66.2209247  65.2253289 108.9243295  75.8621395  73.7012002 108.2865559
  75.5706204  74.0641983 109.1229020  75.2493527  72.9879011 108.1078892
  77.0617078  71.2664882 100.8068130  77.8963969  71.7054686 100.9705690
  77.1976207  70.7903535  99.9876375  74.1108584  68.8244617 106.7545617
  74.5862705  69.0172263 105.9464469  73.1874149  68.8803803 106.5089001
  68.6888800  60.8592460 105.7201451  69.2070744  61.5953487 105.3947940
  68.3343933  61.1656454 106.5548210  68.9401394  57.2792743 101.2402348
  69.2203148  56.6115932 101.8662774  69.7252001  57.4721839 100.7277012
  72.8110253  65.7010377 104.9873923  73.7627676  65.8008475 105.0086147
  72.6413703  64.9088646 105.4972007  70.8324632  62.7865960 105.1733324
  70.2374564  63.0670973 104.4779813  70.5474329  63.2759861 105.9450065
  69.9632123  76.7388887  93.9335957  70.8962796  76.6734449  94.1368832
  69.8755335  77.5745154  93.4750489  75.2898330  68.9216497 104.1016223
  75.2574651  67.9832497 104.2875907  75.8998954  69.0000533 103.3682048
  75.4392819  65.7127540 104.1474506  74.9231868  64.9285997 103.9604435
  76.3232767  65.3846257 104.3121025  73.1003546  59.4568556 100.1070319
  72.9028367  59.1483644 100.9913651  73.7103251  60.1830195 100.2368248
  81.1074880  69.9832503 103.2422260  81.8378269  69.7217792 103.8029963
  80.4981826  69.2461225 103.2824327  79.1890177  68.1240366 103.8396711
  78.4623341  67.9896331 103.2313202  78.7737464  68.4317195 104.6453429
  67.0120354  71.8430296 111.6044084  67.9323363  72.0208895 111.7984130
  66.9769937  70.8986341 111.4523783  60.0082426  69.7531330 104.2466865
  60.2268436  70.6848438 104.2654899  60.4208200  69.3939305 105.0321669
  66.9286644  60.2599416  96.2342553  66.1187372  59.9146501  96.6097799
  67.6171061  59.9506959  96.8230165  68.8577192  59.3377463  97.8566850
  69.4108231  59.7572916  98.5156873  69.0947279  58.4113211  97.8989806
  64.8810292  65.3264536 113.6369614  64.7807019  66.2758893 113.5681705
  64.6631834  64.9982775 112.7645684  72.2356000  61.4477988  97.3645514
  71.6554669  62.1062792  96.9823567  71.9691932  60.6255332  96.9532932
  70.6859566  60.8483045  99.5666835  71.1859344  60.9599580  98.7581153
  71.3295174  60.5444098 100.2067643  64.7441562  68.7561675 112.4534675
  64.2608643  69.5562035 112.6598565  64.8302501  68.7669620 111.5002119
  60.6714899  72.6466210 104.4903109  61.6258153  72.6150152 104.4233041
  60.4727423  72.1856833 105.3053335  61.2614281  71.2167326 107.0573907
  62.0807170  71.7111404 107.0808744  61.5351089  70.2999294 107.0291474
  71.0180878  63.6078078  96.4201862  70.1306733  63.8927729  96.2022057
  71.4334867  63.4471841  95.5729139  74.3695414  63.6324599 100.1356202
  75.1455804  64.1221051 100.4080819  73.6443548  64.0582653 100.5928071
  76.8067972  64.3452218 101.1930142  77.4012463  64.1047954 100.4823451
  76.8794556  63.6259349 101.8203679  59.0265128  78.1885829 101.5073307
  58.8919596  77.4286230 100.9411305  58.6097190  78.9126729 101.0402096
  74.8026707  64.9122346  97.4602272  74.5463641  64.5118982  98.2910480
  74.1779575  65.6266140  97.3352411  79.1139045  67.6518419  99.9673563
  78.5538603  67.7211608 100.7405126  78.5082548  67.4759404  99.2473060
  62.1834254  79.0855146 101.7191750  62.0666638  80.0300579 101.6170440
  61.3626700  78.7828708 102.1077549  56.5149196  65.5505460 107.7566104
  57.1608059  65.0404414 108.2453329  56.3066347  66.2874141 108.3309529
  69.0402588  72.6186307 113.2558245  69.9093747  72.7926959 112.8944879
  68.5609339  73.4380724 113.1333974  65.0352806  59.8145504  93.5090000
  65.0231476  60.7587344  93.6658271  65.9276228  59.6315650  93.2149461
  63.2088768  79.7383408 104.9347678  64.1116015  79.7707018 105.2514173
  62.9826138  78.8083859 104.9494014  64.9642370  78.4914395 101.5957757
  64.0138001  78.4916256 101.4822129  65.2674856  77.7447129 101.0793791
  68.8504926  56.4088281  97.7635937  68.0837321  55.8546768  97.9092619
  69.2615630  56.4810150  98.6250089  60.8546687  62.6973077 111.8541118
  61.7178148  62.3409882 112.0644443  60.2812097  62.3586972 112.5416522
  80.6995064  84.3274933 102.6603519  81.3373473  84.2081680 101.9566859
  80.5815906  85.2755777 102.7191471  77.5084770  84.2802361 102.5965044
  77.1703281  84.1643426 101.7085579  78.3774538  83.8793526 102.5766050
  73.3671585  86.1337838  98.5861935  72.8036451  86.0427775  97.8178223
  73.2523981  85.3137742  99.0664427  77.9904553  85.4337213 108.5551249
  77.9793194  85.0390011 107.6831753  78.1525192  84.7003285 109.1485021
  70.9136017  87.6289029 101.4246155  71.7057309  87.2879854 101.0092455
  71.1532668  87.7384004 102.3448309  78.9471144  89.8008805  93.8976400
  78.2959124  90.3862886  93.5110414  79.7415507  90.3315000  93.9571437
  72.8726771  86.8897942  94.2963534  73.6457647  86.3426930  94.1576410
  73.2252170  87.7542192  94.5077996  74.7111814  88.2174325 107.5030433
  74.4201680  89.1219956 107.3877100  75.3468798  88.2590852 108.2174503
  75.6368021  85.5951173 104.0931793  76.2331593  85.3707196 103.3788756
  75.6942992  84.8535919 104.6957241  75.2093049  83.0490609  91.9281984
  75.4618570  82.5272130  91.1665447  74.2717608  82.8856754  92.0308668
  80.2536332  82.0526387  99.7356727  81.0399421  81.6345810  99.3847144
  80.5175036  82.9572479  99.9038376  80.4246409  87.4899237  94.4345384
  79.7892242  87.5633864  95.1466289  80.0943816  88.0792836  93.7564463
  85.6544759  81.9901620 100.6389706  86.3869931  81.4200837 100.8727535
  84.8984115  81.6023221 101.0796211  74.9289338  84.9518714  94.1306359
  74.8125596  84.2763618  94.7987443  75.0391598  84.4651088  93.3138512
  77.2720879  84.4128862  97.8353048  76.9079086  83.8859483  98.5465970
  78.1287995  84.0227331  97.6619534  83.1770179  75.7023194 105.0984314
  82.8453504  76.5718605 104.8745529  82.5815793  75.3859478 105.7778345
  76.9126366  79.4418761  92.8314397  77.0800768  80.3098998  93.1984868
  76.7223535  79.6046043  91.9075686  79.6701699  87.9035740 104.4980227
  79.3702422  88.8060779 104.3896034  79.3252759  87.6367923 105.3501380
  73.1214180  84.3549537 100.5316932  72.1964677  84.2225751 100.7394623
  73.3698594  85.1343756 101.0286874  83.0698843  80.4218280 102.1777664
  82.1615720  80.3533689 101.8836425  83.0186439  80.8990225 103.0059490
  76.8915587  81.8976419  93.8161064  76.7715212  82.3433470  94.6546544
  76.1968175  82.2461736  93.2574602  70.4822992  83.9982811 101.3660721
  70.6115373  84.2517290 102.2800132  69.8020443  84.5910519 101.0465376
  74.6522479  94.6680061  97.4651195  74.5746509  95.6187886  97.5439675
  74.0484122  94.3225933  98.1226121  77.1439709  81.8407926 110.1212562
  76.3673043  82.4001846 110.1115426  77.7830272  82.3264709 110.6427432
  84.9360489  78.6234719 103.9555538  84.2934869  78.9167252 103.3095333
  84.4315418  78.5087639 104.7608735  82.5900653  82.3697892  94.6441398
  83.5018509  82.6025279  94.4689095  82.0810300  82.9534936  94.0816476
  75.3986081  84.6493379 109.6830529  76.1400765  85.1878423 109.4065352
  74.6923066  85.2759668 109.8402080  80.8741421  86.7922520 108.2802690
  81.2824777  86.3504930 107.5357323  80.1518682  86.2175147 108.5336883
  77.2272491  81.7295127 105.6536247  78.0733686  82.1534540 105.7970896
  77.1671128  81.0728751 106.3474810  81.1970235  87.3523710 102.0354979
  80.5679098  87.5169425 101.3331047  80.8095897  87.7665320 102.8065943
  85.0759467  88.2878148  99.3899343  84.3910505  88.6677050  98.8396376
  85.1603316  88.8973475 100.1231291  80.3771936  79.3899495 107.3117421
  80.1332868  80.1441555 106.7751696  80.6531866  79.7684843 108.1464668
  82.3310399  85.9338107 105.9894686  82.5427294  86.5769867 105.3129067
  82.2840147  85.1000424 105.5216616  79.9336628  78.5455928 102.8931258
  79.0721107  78.8437182 103.1847996  79.9599062  78.7626327 101.9612291
  76.7498197  87.0898119  99.3005064  77.2136543  87.3685822  98.5109687
  76.4854995  86.1881563  99.1178155  73.6422278  86.6369600 102.2384827
  74.2123635  87.0656868 101.6002312  74.2330390  86.3552185 102.9369013
  75.6867083  83.2121271  96.1094629  76.3891126  83.6642315  96.5768556
  75.3547712  82.5705090  96.7374522  74.1347445  81.8033028 110.4845839
  73.5046105  82.4849308 110.7181236  74.0283533  81.6916109 109.5398977
  69.4292417  81.4704824 101.4111763  68.6391471  81.7262352 100.9351873
  69.9203664  82.2853161 101.5163803  83.4456227  88.8110063 104.1617044
  84.2673670  88.4090250 103.8799725  83.4418629  88.7078297 105.1133159
  71.3807162  81.8349403  98.3695240  70.5838326  81.9468097  98.8878735
  71.1532755  82.1736055  97.5036130  77.2112830  88.3594106 106.3177754
  77.2757263  88.8214513 107.1535926  76.5023754  87.7291471 106.4460064
  67.7130120  81.7235314 103.8426754  67.9638158  82.6082324 104.1084330
  68.2489668  81.5439916 103.0701845  91.5362220  85.1548811 100.5102015
  90.7825928  84.5856209 100.3546020  91.6709761  85.1211476 101.4572650
  76.9260848  90.0262214  96.1856735  76.7906523  90.8713749  96.6141582
  77.4670660  90.2281491  95.4222668  73.4128187  76.1053793 112.8471090
  73.0195133  75.5519992 113.5218734  74.2294328  76.4164372 113.2377607
  70.3790245  87.5437652  96.7584660  70.8914766  88.3380902  96.9090224
  71.0312958  86.8463942  96.6918261  72.1885130  90.6603408  98.8407413
  72.3651758  91.5821373  98.6528397  72.9841963  90.3461827  99.2701793
  76.3296148  77.5211672 110.4391346  77.0705862  78.1218826 110.3595809
  76.5614071  76.7789310 109.8809389  71.4737486  82.7068040 108.7169576
  71.3591002  81.8053297 109.0176675  70.6182004  82.9531736 108.3654393
  78.5529324  90.6485780 110.3157077  78.1093178  89.8622159 109.9977981
  79.2146538  90.8364931 109.6500967  73.3116445  92.1781582 104.8417755
  73.8623870  92.0498645 104.0694749  72.4727921  92.4776471 104.4912648
  80.6510562  90.9288580 108.3438478  80.6329038  91.7497461 107.8518747
  81.5730482  90.8042655 108.5688619  77.1083616  88.4432709 109.1861986
  77.6411953  87.6820998 108.9561294  76.5797697  88.1506361 109.9286141
  80.2753311  73.5492775 104.7155628  79.9317581  74.4394417 104.6394739
  80.6432274  73.3594433 103.8525213  68.3439162  85.8726306  97.5344230
  69.1814384  86.2823314  97.3177938  68.5217430  84.9325748  97.5044424
  80.2403594  83.5401386  93.2228063  79.7250217  84.3105991  93.4616451
  79.9680902  82.8666523  93.8461125  77.8250705  78.3851087  98.2813301
  76.9692301  77.9957938  98.1018940  78.2377657  78.4643048  97.4213087
  79.3549852  75.9197431 102.6804861  78.8514647  75.8827566 101.8672667
  79.6480459  76.8290173 102.7401518  75.5992738  76.0036160 101.6871043
  76.4645734  75.8078969 101.3276932  75.6670246  75.7746512 102.6140400
  85.2137868  86.2933741  95.1581237  84.4367311  85.9544901  94.7136399
  85.8929349  86.2986364  94.4836202  80.0289897  81.4128479  95.0487844
  79.7240033  81.7274628  95.8997987  80.9820339  81.4909898  95.0915177
  78.4736329  87.5718702  96.6980798  77.9457691  86.8371461  96.3854036
  77.9723832  88.3493378  96.4520767  83.4529175  85.7667722 101.8147845
  82.7952849  86.4566984 101.9027973  84.2569574  86.1564154 102.1581831
  73.2055057  78.2338368  99.0587410  73.7798809  78.0113550  98.3260603
  73.7926039  78.3027063  99.8116011  82.2634634  84.1212095  99.8651786
  82.7766516  84.7542087 100.3673496  82.9135858  83.5213291  99.4995146
  73.5324644  80.2642829  93.0783295  72.6961956  80.6017516  93.3992570
  73.3929413  80.1291809  92.1410432  75.5077724  75.1079617  97.7862479
  74.8542137  74.7928634  97.1619094  75.4658199  74.4855358  98.5122302
  76.6188929  85.3898912  89.7015771  75.7115991  85.1588166  89.9006920
  77.1159961  84.5936531  89.8889753  79.5257008  94.0996419  92.6212457
  78.8518707  94.4028116  93.2297415  79.9122830  94.9025500  92.2717915
  78.7415465  81.5961551 102.1110127  77.8238026  81.8176498 101.9531815
  79.1575608  81.6707861 101.2521834  79.5250512  82.9952966  97.2412807
  80.2722331  83.5074364  96.9319929  79.7942102  82.6737019  98.1017201
  77.7977163  85.4911507  94.2239761  76.8888382  85.2070540  94.3212231
  77.8272246  85.9110586  93.3643068  83.0296430  89.1018097  97.9930929
  82.5758757  88.2609006  98.0496119  82.3990397  89.7379495  98.3305709
  81.9729350  80.0310083  99.2231596  81.2352106  79.5187469  99.5541839
  82.2256123  79.5910464  98.4114873  81.4729369  90.9394593  98.9280747
  81.7652344  91.4999650  98.2093113  81.9827990  91.2323154  99.6833906
  82.0740977  72.8086335  99.8173366  82.3799854  71.9483698  99.5299281
  82.7993582  73.4003955  99.6172360  68.3665333  83.2117021  98.2054964
  68.1689733  82.6186382  97.4806030  67.8111997  82.9069231  98.9230902
  76.3462057  83.1040128 100.3249557  76.4010666  82.1513964 100.2492033
  75.5353259  83.2599567 100.8090855  77.4953250  87.0320251  91.5627840
  77.0572680  86.3156110  91.1033477  78.2363691  87.2596366  91.0012931
  74.2854417  81.7217187  98.0839936  73.4722282  82.0211358  98.4905128
  74.7813411  81.3272876  98.8014418  76.4362995  91.7174944 100.0174200
  76.3939173  91.9435791  99.0882732  77.3525693  91.4838319 100.1660001
  79.8828628  82.1859012 106.9154830  80.2378016  82.4130485 107.7749295
  80.5300760  82.5177389 106.2932085  85.6126365  85.3077448  97.6204159
  85.4744264  85.4979044  96.6925348  85.2562584  86.0696831  98.0772210
  73.7768491  79.2935543 103.7001171  74.4167871  79.1524302 103.0024134
  72.9446022  79.0070056 103.3239773  85.6395745  87.3753975 102.6315430
  86.0732252  87.2829264 103.4798484  86.3527326  87.3511475 101.9935446
  74.5528795  88.5937973  99.8136163  75.3469394  88.0988293  99.6118738
  73.8420488  88.0655836  99.4503869  79.3723640  90.9756069 104.1648531
  79.4260662  91.5447005 104.9326247  78.5038421  91.1457954 103.8002568
  70.8611559  82.7381055  95.8895916  69.9309147  82.6765511  96.1065878
  70.9569031  82.2157008  95.0932557  70.7797108  79.2635868  98.4774157
  71.0403925  80.1781201  98.3683318  71.6014280  78.7960310  98.6270770
  72.2522033  80.6773625 105.6472982  72.9245087  80.4690987 104.9985631
  71.4251820  80.4795711 105.2078214  86.5011294  87.4177675 105.1648315
  86.6947184  88.3223486 105.4107590  86.4011913  86.9585094 105.9986900
  78.1547605  77.3035566 107.6638643  77.5075520  78.0025516 107.5703119
  78.9248621  77.7371710 108.0314891  81.5626403  87.5684418 110.7389196
  81.4111910  87.3394970 109.8219280  81.5531083  88.5255020 110.7520541
  78.3311739  85.1416331 105.7235462  79.2603799  85.2927491 105.5504430
  77.9102770  85.2300352 104.8684109  77.1300071  89.1666995 103.4934000
  76.9911157  88.7985780 104.3659938  76.3414668  89.6814635 103.3217958
  77.7248223  94.2676092  94.8359537  77.8999979  93.7964135  95.6505159
  77.0381011  94.8941858  95.0640797  78.6805286  88.5448598 100.8822838
  78.3455119  88.5049368 101.7780488  78.1809232  87.8793314 100.4093248
  72.6549530  83.9516228 106.4075419  72.5169328  83.2196467 107.0086958
  73.5654454  83.8625128 106.1259607  81.6164478  85.8904632  91.1559898
  80.9993649  85.1651461  91.0592950  81.1480967  86.6513993  90.8126972
  75.2831831  83.6636187 105.8959099  75.9931450  83.0229380 105.8545717
  75.2401139  83.9149082 106.8185279  83.2718610  90.6003541 108.8165678
  83.2131156  89.9162761 108.1496261  83.6738128  91.3422531 108.3646304
  73.9960765  80.6501405 107.7154738  73.4598122  80.1992144 108.3676335
  73.4077473  80.7847314 106.9725203  72.2909309  97.4165455 101.6099397
  72.5305907  98.0483979 102.2878415  71.4478505  97.0653495 101.8964756
  73.4063024  80.1090057  90.2781202  72.5292490  79.9878857  89.9143449
  73.8820777  79.3176135  90.0260090  83.2736017  88.5643125 107.0479658
  82.3862796  88.2269046 107.1706056  83.8434568  87.8326156 107.2848423
  64.9265164  84.8967216 100.3722709  65.6136204  84.5828946  99.7843724
  64.7713293  85.8008581 100.0989960  69.7299886  79.7857413 104.8007733
  69.6458075  79.1783082 104.0658143  68.9082593  80.2766431 104.8017229
  76.8037170  93.2244577 104.0140901  76.7307342  94.0299548 104.5260205
  76.3614564  93.4236543 103.1888922  76.5926950  92.4616347  97.5243722
  75.8094472  93.0038027  97.6181947  77.2919695  92.9790327  97.9237964
  79.9023600  78.2710976 100.1677928  80.3992300  77.5180939  99.8478998
  79.1310582  78.3075293  99.6021137  87.7553358  83.9751342 101.8096219
  87.7443234  84.8576057 101.4390152  86.8870737  83.6222893 101.6150756
  79.2635854  93.1231411 106.1699059  79.9763826  93.7578876 106.0974961
  78.7725883  93.2195277 105.3539061  80.9853381  87.0282664  97.7416351
  80.0509660  87.1484126  97.5721055  81.1630049  86.1255130  97.4776361
  76.4858569  80.4128359  99.8949612  76.1156356  79.8599400 100.5830518
  76.9817661  79.8086493  99.3424612  84.3725932  82.8699983  98.2766385
  84.8386384  83.7027975  98.2026688  84.8233433  82.4044965  98.9811644
  74.3147767  90.8725854 106.9904630  75.0157227  91.5062337 107.1434024
  73.8442882  91.2140586 106.2300270  82.4402163  89.2143804  95.2752537
  82.7162007  89.1000399  96.1846411  81.5706662  88.8161289  95.2364710
  82.3442595  75.2380570 102.3157287  81.4305675  75.4684797 102.4839494
  82.7735696  75.3219014 103.1671319  82.1149053  83.4270462 104.8157181
  81.4620504  83.6746369 104.1609633  82.4929433  82.6134600 104.4819658
  79.0756227  93.4630155  98.9185351  79.2578622  92.6451811  99.3813103
  79.8989213  93.6797847  98.4810241  79.4098393  92.3898340  96.1800399
  79.9386159  91.8790795  95.5670562  79.6726612  92.0740870  97.0445932
  78.1636626  84.1690273 111.3023218  77.4877263  84.0684402 111.9725593
  78.9864260  84.0129487 111.7659215  69.9115486  90.4062210 103.9235733
  70.4968922  89.6605897 104.0563637  69.7140324  90.7166166 104.8072397
  72.7654141  93.4413457  98.9398175  72.0964516  93.9259585  98.4562215
  72.6267010  93.6882677  99.8541554  64.5033140  82.9767810 102.6440176
  64.5417240  82.4431400 103.4377294  63.9973433  82.4503015 102.0251153
  76.9059409  95.4757200 105.5380834  77.4577717  95.6388822 106.3029919
  77.2465603  96.0661638 104.8660859  71.8823903  77.8232350 106.1402718
  71.9465229  78.6847181 105.7280116  71.8191023  77.2106352 105.4075077
  71.3576175  79.8955483 109.7875753  71.9848214  79.5132560 110.4013277
  70.5004094  79.6769685 110.1531445  68.1341718  81.7031912  95.7194107
  68.4295159  80.7942590  95.6661161  67.2329754  81.6819651  95.3975110
  80.0427797  93.4239176 102.5244516  79.9178936  92.6228916 102.0155461
  80.7006888  93.9185369 102.0358486  71.6635965  79.7787908 101.7021656
  70.9422551  80.3923876 101.5629129  72.4529221  80.3145673 101.6238302
  82.1062705  91.2248196 104.1524066  81.1593041  91.1053547 104.0802393
  82.4545478  90.3370694 104.2350327  74.4662278  77.1142335 107.9762308
  74.9896680  77.3604632 108.7388617  74.2474612  77.9462370 107.5565445
  69.8629559  79.3846010  95.8433433  69.5342266  78.5043388  95.6608539
  70.2168930  79.3293678  96.7309822  79.1109138  91.0200912 100.3528418
  78.9634101  90.0917620 100.5335988  79.9362632  91.0421003  99.8685493
  72.9771383  79.6718979  96.2108910  73.3167455  80.2004901  95.4887519
  73.4243503  80.0099385  96.9867477  82.7143260  91.8429471 101.4393291
  83.6389808  91.6372332 101.3017742  82.5458564  91.5945872 102.3482632
  75.6714823  78.0556030 105.6611978  75.3311644  77.2563843 106.0632658
  74.9653830  78.3557741 105.0888812  76.3231295  75.1405342 104.1139301
  77.1457365  74.6665821 103.9918192  76.5669359  75.9195826 104.6137988
  74.9639530  78.1693601  94.4102203  75.6847892  78.5474854  93.9065920
  74.3404834  78.8882478  94.5137181  79.1070653  78.8738750  95.3460535
  79.3234267  79.7563388  95.0449364  78.6264720  78.4824963  94.6166177
  73.8469874  81.8324463 101.9231280  73.7014455  82.1464766 102.8155562
  73.3695078  82.4509363 101.3702179  75.7066257  78.8227011 101.9712170
  75.6927826  77.9268104 101.6344468  76.4238685  78.8297675 102.6050456
  77.5592388  79.2564351 104.0165297  77.3010165  80.1781422 104.0149627
  77.0277428  78.8594786 104.7065761  82.5038576  92.3615138  96.7955382
  82.6775454  91.7961561  96.0429235  82.9967468  93.1616033  96.6134872
  68.3215536  84.3729808 104.8618941  67.7769004  85.1489615 104.9939216
  69.1994886  84.7200612 104.7038063  75.1103153  77.7041391  97.2399740
  75.2319064  76.7758038  97.4390627  74.8205195  77.7180077  96.3278055
  77.9794343  75.3896302 100.3766460  78.0016040  75.4535635  99.4218439
  78.3962402  74.5500810 100.5706966  88.3577968  85.1251561  98.4145682
  88.8009114  84.3758887  98.0164805  87.4804478  85.1161698  98.0319414
  83.4913749  91.6781903  93.8952281  84.1864653  92.2988596  94.1139595
  83.8336899  90.8277254  94.1704659  69.1081558  83.4999704 107.7549098
  68.3663294  83.6482339 108.3413728  68.7874302  83.7607969 106.8915847
  85.3905172  89.1281608  95.4239611  85.9156496  89.4668881  94.6988931
  85.3027525  88.1928624  95.2402746  77.0525221  93.0415682 107.5529488
  77.3612347  92.7964829 108.4252188  77.8500703  93.2462320 107.0648358
  77.0745833  95.1953592  99.7834865  76.6350823  94.7029970 100.4767721
  77.8253950  94.6526559  99.5426940  69.5538172  91.3865133  99.7859493
  70.3796192  91.0868904  99.4058136  69.2032224  90.6172755 100.2349281
  74.5219705  90.7391601 101.8557166  73.8999714  90.0762306 101.5559394
  75.1924572  90.7652733 101.1730814  67.7546777  89.3051459 100.7448426
  66.9178685  88.8773633 100.5632428  67.7270422  89.4983902 101.6819217
  74.5944232  79.2173389 111.4489672  74.6432388  80.0935512 111.0667442
  75.1366747  78.6750782 110.8761316  85.1996953  86.6106978 108.0423538
  85.2494958  86.4456986 108.9839061  85.0910876  85.7434237 107.6521419
  74.0833212  89.2895524  95.3315627  74.2321332  89.9730988  94.6782300
  74.8899655  89.2700614  95.8465083  82.4900715  82.5937906 109.3582845
  83.3910578  82.4544371 109.0666842  82.5648690  82.7592361 110.2981022
  76.8243521  79.9704761 108.2036031  75.9546830  80.2638327 107.9318620
  77.0603001  80.5545206 108.9243295  86.7015150  89.0303920 108.2865559
  86.4099958  89.3933900 109.1229020  86.0887281  88.3170928 108.1078892
  87.9010832  86.5956800 100.8068130  88.7357724  87.0346604 100.9705690
  88.0369961  86.1195453  99.9876375  84.9502338  84.1536535 106.7545617
  85.4256460  84.3464181 105.9464469  84.0267904  84.2095720 106.5089001
  71.8385845  85.3160702  96.3376696  71.5931887  84.4123032  96.5356906
  72.0081759  85.3177852  95.3956174  79.5282555  76.1884378 105.7201451
  80.0464498  76.9245405 105.3947940  79.1737687  76.4948371 106.5548210
  71.1081492  81.0489059  93.8362857  70.4150737  81.1233414  93.1802893
  70.8633244  80.2849403  94.3584374  79.7795149  72.6084661 101.2402348
  80.0596903  71.9407850 101.8662774  80.5645756  72.8013756 100.7277012
  77.5828617  91.7843655  92.8027374  77.0102584  92.4033842  92.3497846
  78.1561411  92.3343016  93.3367296  83.6504007  81.0302295 104.9873923
  84.6021430  81.1300392 105.0086147  83.4807458  80.2380563 105.4972007
  81.6718387  78.1157878 105.1733324  81.0768319  78.3962891 104.4779813
  81.3868083  78.6051779 105.9450065  80.8025877  92.0680805  93.9335957
  81.7356550  92.0026366  94.1368832  80.7149090  92.9037072  93.4750489
  83.4313894  91.3846675  90.8939904  83.3527525  91.0506539  91.7875662
  84.2523561  91.8768443  90.8931376  86.1292085  84.2508414 104.1016223
  86.0968405  83.3124415 104.2875907  86.7392709  84.3292451 103.3682048
  77.9675416  83.1204467  90.1443427  78.9134521  82.9910675  90.2131845
  77.5889661  82.3819129  90.6212855  86.2786573  81.0419458 104.1474506
  85.7625622  80.2577914 103.9604435  87.1626522  80.7138174 104.3121025
  83.9397300  74.7860473 100.1070319  83.7422121  74.4775562 100.9913651
  84.5497006  75.5122112 100.2368248  91.9468635  85.3124421 103.2422260
  92.6772023  85.0509709 103.8029963  91.3375580  84.5753143 103.2824327
  90.0283932  83.4532284 103.8396711  89.3017095  83.3188249 103.2313202
  89.6131219  83.7609112 104.6453429  77.8514108  87.1722213 111.6044084
  78.7717118  87.3500812 111.7984130  77.8163691  86.2278259 111.4523783
  76.1518333  81.0454444  90.0798312  75.2449788  80.7487556  90.1561026
  76.4294314  80.7484262  89.2132598  67.0696273  82.3660807 100.5297358
  66.7499058  81.5126115 100.2371732  66.5229702  82.5809385 101.2855326
  70.8476181  85.0823248 104.2466865  71.0662191  86.0140356 104.2654899
  71.2601955  84.7231222 105.0321669  77.7680399  75.5891333  96.2342553
  76.9581127  75.2438418  96.6097799  78.4564816  75.2798877  96.8230165
  79.6970947  74.6669380  97.8566850  80.2501986  75.0864834  98.5156873
  79.9341033  73.7405128  97.8989806  75.7204046  80.6556454 113.6369614
  75.6200773  81.6050811 113.5681705  75.5025588  80.3274693 112.7645684
  66.9384533  85.9863719 102.4990480  66.2448005  85.5717671 101.9860434
  67.6857524  86.0284255 101.9023899  83.0749754  76.7769905  97.3645514
  82.4948423  77.4354709  96.9823567  82.8085687  75.9547250  96.9532932
  81.5253320  76.1774963  99.5666835  82.0253099  76.2891498  98.7581153
  82.1688928  75.8736016 100.2067643  75.5835316  84.0853593 112.4534675
  75.1002398  84.8853953 112.6598565  75.6696255  84.0961538 111.5002119
  68.8521276  85.9181972 100.3756495  68.8291964  86.0169660  99.4238378
  69.1621912  86.7647123 100.6973661  71.5108654  87.9758127 104.4903109
  72.4651907  87.9442070 104.4233041  71.3121177  87.5148751 105.3053335
  72.1008036  86.5459243 107.0573907  72.9200925  87.0403322 107.0808744
  72.3744844  85.6291212 107.0291474  81.8574632  78.9369996  96.4201862
  80.9700487  79.2219646  96.2022057  82.2728621  78.7763759  95.5729139
  85.2089168  78.9616517 100.1356202  85.9849558  79.4512969 100.4080819
  84.4837302  79.3874571 100.5928071  87.6461727  79.6744136 101.1930142
  88.2406218  79.4339872 100.4823451  87.7188311  78.9551267 101.8203679
  69.8658883  93.5177747 101.5073307  69.7313350  92.7578148 100.9411305
  69.4490945  94.2418647 101.0402096  81.0017846  88.7014670  90.5149882
  81.7053696  88.9064673  91.1307538  80.2780494  89.2691432  90.7798966
  81.8315656  84.4524532  96.6352153  81.7750857  84.9093083  95.7959785
  82.3843998  83.6915216  96.4574995  85.6420462  80.2414264  97.4602272
  85.3857396  79.8410899  98.2910480  85.0173330  80.9558057  97.3352411
  89.9532800  82.9810337  99.9673563  89.3932358  83.0503526 100.7405126
  89.3476303  82.8051321  99.2473060  73.0228008  94.4147064 101.7191750
  72.9060393  95.3592496 101.6170440  72.2020455  94.1120625 102.1077549
  82.9104543  89.1397200  92.5648342  83.7450147  88.7078398  92.3825817
  82.7488886  88.9679213  93.4925237  82.5650435  85.6429313  93.9304682
  82.5099239  85.4773584  92.9893126  81.9396490  86.3505346  94.0866871
  67.3542950  80.8797377 107.7566104  68.0001814  80.3696331 108.2453329
  67.1460101  81.6166059 108.3309529  75.8746561  75.1437422  93.5090000
  75.8625230  76.0879262  93.6658271  76.7669982  74.9607567  93.2149461
  74.0482523  95.0675326 104.9347678  74.9509769  95.0998936 105.2514173
  73.8219893  94.1375777 104.9494014  75.8036125  93.8206312 101.5957757
  74.8531756  93.8208174 101.4822129  76.1068611  93.0739047 101.0793791
  79.6898680  71.7380199  97.7635937  78.9231076  71.1838685  97.9092619
  80.1009385  71.8102067  98.6250089  71.6940441  78.0264994 111.8541118
  72.5571903  77.6701799 112.0644443  71.1205852  77.6878889 112.5416522
  88.3478524  99.6094279 102.5965044  88.0097036  99.4935344 101.7085579
  89.2168292  99.2085444 102.5766050  84.2065340 101.4629755  98.5861935
  83.6430205 101.3719692  97.8178223  84.0917735 100.6429660  99.0664427
  81.7529772 102.9580947 101.4246155  82.5451064 102.6171771 101.0092455
  81.9926422 103.0675922 102.3448309  89.7864899 105.1300723  93.8976400
  89.1352878 105.7154803  93.5110414  90.5809262 105.6606918  93.9571437
  83.7120526 102.2189860  94.2963534  84.4851402 101.6718847  94.1576410
  84.0645925 103.0834109  94.5077996  86.0486804  98.3782526  91.9281984
  86.3012324  97.8564047  91.1665447  85.1111363  98.2148672  92.0308668
  91.0930086  97.3818305  99.7356727  91.8793176  96.9637728  99.3847144
  91.3568791  98.2864397  99.9038376  91.2640164 102.8191155  94.4345384
  90.6285997 102.8925781  95.1466289  90.9337570 103.4084754  93.7564463
  96.4938514  97.3193538 100.6389706  97.2263686  96.7492755 100.8727535
  95.7377869  96.9315138 101.0796211  85.7683092 100.2810632  94.1306359
  85.6519351  99.6055536  94.7987443  85.8785352  99.7943006  93.3138512
  88.1114633  99.7420779  97.8353048  87.7472841  99.2151400  98.5465970
  88.9681749  99.3519248  97.6619534  94.0163934  91.0315112 105.0984314
  93.6847259  91.9010523 104.8745529  93.4209547  90.7151396 105.7778345
  87.7520120  94.7710679  92.8314397  87.9194523  95.6390915  93.1984868
  87.5617289  94.9337961  91.9075686  83.9607935  99.6841455 100.5316932
  83.0358431  99.5517669 100.7394623  84.2092348 100.4635674 101.0286874
  87.7309341  97.2268336  93.8161064  87.6108966  97.6725387  94.6546544
  87.0361930  97.5753654  93.2574602  81.3216746  99.3274728 101.3660721
  81.4509127  99.5809207 102.2800132  80.6414197  99.9202436 101.0465376
  85.4916233 109.9971978  97.4651195  85.4140263 110.9479803  97.5439675
  84.8877877 109.6517851  98.1226121  93.4294407  97.6989810  94.6441398
  94.3412263  97.9317196  94.4689095  92.9204054  98.2826854  94.0816476
  90.7730382  93.8747846 102.8931258  89.9114861  94.1729099 103.1847996
  90.7992817  94.0918245 101.9612291  87.5891952 102.4190036  99.3005064
  88.0530297 102.6977739  98.5109687  87.3248750 101.5173481  99.1178155
  84.4816033 101.9661518 102.2384827  85.0517390 102.3948786 101.6002312
  85.0724144 101.6844102 102.9369013  86.5260838  98.5413189  96.1094629
  87.2284881  98.9934232  96.5768556  86.1941466  97.8997007  96.7374522
  80.2686172  96.7996741 101.4111763  79.4785226  97.0554270 100.9351873
  80.7597419  97.6145079 101.5163803  82.2200917  97.1641320  98.3695240
  81.4232080  97.2760015  98.8878735  81.9926509  97.5027973  97.5036130
  78.5523875  97.0527232 103.8426754  78.8031913  97.9374242 104.1084330
  79.0883423  96.8731833 103.0701845  87.7654602 105.3554131  96.1856735
  87.6300277 106.2005667  96.6141582  88.3064415 105.5573409  95.4222668
  81.2184000 102.8729569  96.7584660  81.7308520 103.6672819  96.9090224
  81.8706712 102.1755860  96.6918261  83.0278884 105.9895325  98.8407413
  83.2045513 106.9113290  98.6528397  83.8235718 105.6753745  99.2701793
  91.1147066  88.8784693 104.7155628  90.7711335  89.7686335 104.6394739
  91.4826028  88.6886351 103.8525213  79.1832916 101.2018224  97.5344230
  80.0208138 101.6115232  97.3177938  79.3611184 100.2617666  97.5044424
  91.0797349  98.8693304  93.2228063  90.5643972  99.6397909  93.4616451
  90.8074657  98.1958440  93.8461125  88.6644460  93.7143005  98.2813301
  87.8086056  93.3249855  98.1018940  89.0771411  93.7934966  97.4213087
  90.1943606  91.2489348 102.6804861  89.6908402  91.2119483 101.8672667
  90.4874213  92.1582091 102.7401518  86.4386492  91.3328078 101.6871043
  87.3039489  91.1370887 101.3276932  86.5064001  91.1038430 102.6140400
  96.0531623 101.6225659  95.1581237  95.2761065 101.2836818  94.7136399
  96.7323104 101.6278282  94.4836202  90.8683652  96.7420396  95.0487844
  90.5633787  97.0566545  95.8997987  91.8214094  96.8201816  95.0915177
  89.3130084 102.9010620  96.6980798  88.7851445 102.1663379  96.3854036
  88.8117586 103.6785296  96.4520767  84.0448811  93.5630286  99.0587410
  84.6192563  93.3405467  98.3260603  84.6319794  93.6318980  99.8116011
  93.1028388  99.4504013  99.8651786  93.6160270 100.0834005 100.3673496
  93.7529612  98.8505208  99.4995146  84.3718398  95.5934747  93.0783295
  83.5355711  95.9309433  93.3992570  84.2323168  95.4583727  92.1410432
  86.3471479  90.4371535  97.7862479  85.6935891  90.1220552  97.1619094
  86.3051953  89.8147275  98.5122302  87.4582684 100.7190830  89.7015771
  86.5509745 100.4880083  89.9006920  87.9553716  99.9228449  89.8889753
  90.3650763 109.4288337  92.6212457  89.6912461 109.7320034  93.2297415
  90.7516585 110.2317417  92.2717915  89.5809219  96.9253468 102.1110127
  88.6631781  97.1468415 101.9531815  89.9969363  96.9999779 101.2521834
  90.3644267  98.3244884  97.2412807  91.1116086  98.8366281  96.9319929
  90.6335857  98.0028937  98.1017201  88.6370917 100.8203425  94.2239761
  87.7282136 100.5362458  94.3212231  88.6666001 101.2402503  93.3643068
  92.8123104  95.3602000  99.2231596  92.0745861  94.8479386  99.5541839
  93.0649878  94.9202382  98.4114873  92.9134731  88.1378252  99.8173366
  93.2193608  87.2775616  99.5299281  93.6387336  88.7295872  99.6172360
  79.2059088  98.5408939  98.2054964  79.0083487  97.9478300  97.4806030
  78.6505752  98.2361149  98.9230902  87.1855811  98.4332045 100.3249557
  87.2404421  97.4805882 100.2492033  86.3747013  98.5891484 100.8090855
  88.3347005 102.3612168  91.5627840  87.8966435 101.6448027  91.1033477
  89.0757446 102.5888283  91.0012931  85.1248171  97.0509105  98.0839936
  84.3116037  97.3503276  98.4905128  85.6207165  96.6564794  98.8014418
  96.4520120 100.6369365  97.6204159  96.3138018 100.8270961  96.6925348
  96.0956339 101.3988748  98.0772210  84.6162246  94.6227461 103.7001171
  85.2561625  94.4816220 103.0024134  83.7839776  94.3361974 103.3239773
  85.3922550 103.9229891  99.8136163  86.1863148 103.4280211  99.6118738
  84.6814242 103.3947754  99.4503869  81.7005313  98.0672973  95.8895916
  80.7702901  98.0057428  96.1065878  81.7962785  97.5448925  95.0932557
  81.6190862  94.5927786  98.4774157  81.8797680  95.5073119  98.3683318
  82.4408035  94.1252228  98.6270770  83.0915788  96.0065543 105.6472982
  83.7638841  95.7982905 104.9985631  82.2645574  95.8087629 105.2078214
  88.5641978 109.5968009  94.8359537  88.7393733 109.1256053  95.6505159
  87.8774766 110.2233776  95.0640797  92.4558233 101.2196550  91.1559898
  91.8387403 100.4943378  91.0592950  91.9874721 101.9805910  90.8126972
  84.2456778  95.4381974  90.2781202  83.3686245  95.3170775  89.9143449
  84.7214532  94.6468053  90.0260090  75.7658919 100.2259134 100.3722709
  76.4529958  99.9120864  99.7843724  75.6107047 101.1300499 100.0989960
  80.5693641  95.1149331 104.8007733  80.4851829  94.5075000 104.0658143
  79.7476347  95.6058349 104.8017229  87.4320705 107.7908265  97.5243722
  86.6488226 108.3329945  97.6181947  88.1313450 108.3082244  97.9237964
  90.7417355  93.6002894 100.1677928  91.2386054  92.8472856  99.8478998
  89.9704336  93.6367211  99.6021137  91.8247135 102.3574581  97.7416351
  90.8903414 102.4776044  97.5721055  92.0023804 101.4547048  97.4776361
  87.3252323  95.7420277  99.8949612  86.9550111  95.1891318 100.5830518
  87.8211416  95.1378411  99.3424612  95.2119687  98.1991901  98.2766385
  95.6780139  99.0319892  98.2026688  95.6627187  97.7336882  98.9811644
  93.2795918 104.5435722  95.2752537  93.5555762 104.4292317  96.1846411
  92.4100417 104.1453207  95.2364710  93.1836349  90.5672488 102.3157287
  92.2699429  90.7976714 102.4839494  93.6129451  90.6510932 103.1671319
  90.2492147 107.7190258  96.1800399  90.7779914 107.2082713  95.5670562
  90.5120367 107.4032788  97.0445932  75.3426895  98.3059727 102.6440176
  75.3810994  97.7723318 103.4377294  74.8367188  97.7794933 102.0251153
  82.7217657  93.1524268 106.1402718  82.7858984  94.0139099 105.7280116
  82.6584777  92.5398270 105.4075077  78.9735472  97.0323830  95.7194107
  79.2688913  96.1234508  95.6661161  78.0723508  97.0111569  95.3975110
  82.5029719  95.1079826 101.7021656  81.7816305  95.7215794 101.5629129
  83.2922975  95.6437591 101.6238302  80.7023314  94.7137927  95.8433433
  80.3736020  93.8335306  95.6608539  81.0562685  94.6585596  96.7309822
  83.8165137  95.0010897  96.2108910  84.1561210  95.5296818  95.4887519
  84.2637258  95.3391303  96.9867477  86.5108578  93.3847948 105.6611978
  86.1705398  92.5855761 106.0632658  85.8047584  93.6849659 105.0888812
  87.1625050  90.4697260 104.1139301  87.9851119  89.9957738 103.9918192
  87.4063113  91.2487744 104.6137988  85.8033284  93.4985519  94.4102203
  86.5241647  93.8766771  93.9065920  85.1798588  94.2174395  94.5137181
  89.9464407  94.2030668  95.3460535  90.1628021  95.0855305  95.0449364
  89.4658474  93.8116881  94.6166177  84.6863628  97.1616381 101.9231280
  84.5408209  97.4756684 102.8155562  84.2088832  97.7801281 101.3702179
  86.5460011  94.1518929 101.9712170  86.5321580  93.2560022 101.6344468
  87.2632439  94.1589593 102.6050456  88.3986142  94.5856269 104.0165297
  88.1403920  95.5073340 104.0149627  87.8671182  94.1886704 104.7065761
  79.1609291  99.7021725 104.8618941  78.6162759 100.4781533 104.9939216
  80.0388640 100.0492530 104.7038063  85.9496907  93.0333309  97.2399740
  86.0712818  92.1049955  97.4390627  85.6598950  93.0471995  96.3278055
  88.8188098  90.7188220 100.3766460  88.8409794  90.7827553  99.4218439
  89.2356157  89.8792728 100.5706966  94.3307503 107.0073821  93.8952281
  95.0258408 107.6280513  94.1139595  94.6730653 106.1569172  94.1704659
  96.2298926 104.4573526  95.4239611  96.7550251 104.7960799  94.6988931
  96.1421279 103.5220541  95.2402746  80.3931926 106.7157050  99.7859493
  81.2189946 106.4160822  99.4058136  80.0425978 105.9464673 100.2349281
  78.5940531 104.6343377 100.7448426  77.7572440 104.2065551 100.5632428
  78.5664177 104.8275820 101.6819217  84.9226966 104.6187442  95.3315627
  85.0715087 105.3022906  94.6782300  85.7293410 104.5992532  95.8465083
  82.6779599 100.6452619  96.3376696  82.4325641  99.7414949  96.5356906
  82.8475514 100.6469770  95.3956174  90.3676309  91.5176296 105.7201451
  90.8858253  92.2537323 105.3947940  90.0131442  91.8240289 106.5548210
  81.9475247  96.3780977  93.8362857  81.2544492  96.4525332  93.1802893
  81.7026999  95.6141321  94.3584374  90.6188903  87.9376578 101.2402348
  90.8990657  87.2699767 101.8662774  91.4039510  88.1305674 100.7277012
  88.4222372 107.1135572  92.8027374  87.8496339 107.7325759  92.3497846
  88.9955165 107.6634934  93.3367296  91.6419632 107.3972722  93.9335957
  92.5750305 107.3318284  94.1368832  91.5542844 108.2328989  93.4750489
  94.2707648 106.7138593  90.8939904  94.1921280 106.3798456  91.7875662
  95.0917315 107.2060361  90.8931376  88.8069170  98.4496385  90.1443427
  89.7528275  98.3202593  90.2131845  88.4283415  97.7111047  90.6212855
  94.7791055  90.1152391 100.1070319  94.5815876  89.8067479 100.9913651
  95.3890760  90.8414030 100.2368248  86.9912087  96.3746361  90.0798312
  86.0843543  96.0779474  90.1561026  87.2688068  96.0776179  89.2132598
  77.9090028  97.6952725 100.5297358  77.5892812  96.8418033 100.2371732
  77.3623456  97.9101303 101.2855326  81.6869935 100.4115166 104.2466865
  81.9055945 101.3432274 104.2654899  82.0995709 100.0523140 105.0321669
  88.6074153  90.9183251  96.2342553  87.7974881  90.5730336  96.6097799
  89.2958570  90.6090795  96.8230165  90.5364701  89.9961298  97.8566850
  91.0895740  90.4156751  98.5156873  90.7734788  89.0697046  97.8989806
  85.7610872  93.2333297  90.2210291  86.6230036  93.5588195  90.4806109
  85.9461216  92.4464792  89.7083357  77.7778288 101.3155636 102.4990480
  77.0841759 100.9009589 101.9860434  78.5251279 101.3576173 101.9023899
  93.9143509  92.1061823  97.3645514  93.3342178  92.7646627  96.9823567
  93.6479441  91.2839168  96.9532932  92.3647075  91.5066881  99.5666835
  92.8646853  91.6183415  98.7581153  93.0082683  91.2027934 100.2067643
  79.6915030 101.2473890 100.3756495  79.6685718 101.3461577  99.4238378
  80.0015667 102.0939041 100.6973661  92.6968387  94.2661913  96.4201862
  91.8094242  94.5511564  96.2022057  93.1122376  94.1055677  95.5729139
  96.0482923  94.2908434 100.1356202  96.8243313  94.7804887 100.4080819
  95.3231057  94.7166489 100.5928071  98.4855481  95.0036054 101.1930142
  99.0799972  94.7631790 100.4823451  98.5582065  94.2843184 101.8203679
  91.8411600 104.0306588  90.5149882  92.5447450 104.2356591  91.1307538
  91.1174249 104.5983350  90.7798966  92.6709410  99.7816449  96.6352153
  92.6144612 100.2385001  95.7959785  93.2237753  99.0207134  96.4574995
  96.4814216  95.5706181  97.4602272  96.2251150  95.1702817  98.2910480
  95.8567084  96.2849975  97.3352411  93.7498297 104.4689117  92.5648342
  94.5843901 104.0370316  92.3825817  93.5882640 104.2971131  93.4925237
  93.4044190 100.9721231  93.9304682  93.3492993 100.8065502  92.9893126
  92.7790245 101.6797264  94.0866871  78.1936705  96.2089295 107.7566104
  78.8395568  95.6988249 108.2453329  77.9853856  96.9457977 108.3309529
  86.7140315  90.4729340  93.5090000  86.7018985  91.4171180  93.6658271
  87.6063737  90.2899485  93.2149461  90.5292435  87.0672116  97.7635937
  89.7624830  86.5130603  97.9092619  90.9403139  87.1393985  98.6250089
  95.2112153 110.9226665  93.0783295  94.3749465 111.2601351  93.3992570
  95.0716922 110.7875644  92.1410432  95.0850533 110.7673892  90.2781202
  94.2079999 110.6462693  89.9143449  95.5608286 109.9759970  90.0260090
  92.7869001 111.7072895  93.8362857  92.0938246 111.7817250  93.1802893
  92.5420753 110.9433238  94.3584374  97.8305842 111.7038279  90.0798312
  96.9237297 111.4071392  90.1561026  98.1081823 111.4068097  89.2132598
  96.6004627 108.5625214  90.2210291  97.4623791 108.8880113  90.4806109
  96.7854971 107.7756710  89.7083357  97.5534070 105.8021257  93.5090000
  97.5412739 106.7463097  93.6658271  98.4457491 105.6191403  93.2149461
  37.3420047   0.0169385  89.3848826  37.9798457  -0.1023868  88.6812166
  37.2240890   0.9650229  89.4436778  34.1509753  -0.0303187  89.3210351
  33.8128265  -0.1462122  88.4330885  35.0199521  -0.4312022  89.3011357
  30.0096569   1.8232289  85.3107242  29.4461434   1.7322226  84.5423529
  29.8948964   1.0032194  85.7909734  35.5896128   5.4903257  80.6221706
  34.9384107   6.0757338  80.2355720  36.3840490   6.0209452  80.6816744
  29.5151755   2.5792394  81.0208841  30.2882631   2.0321381  80.8821717
  29.8677154   3.4436644  81.2323302  31.8518032  -1.2614940  78.6527291
  32.1043553  -1.7833418  77.8910754  30.9142592  -1.4248794  78.7553974
  36.8961315  -2.2579161  86.4602034  37.6824405  -2.6759738  86.1092451
  37.1600020  -1.3533069  86.6283682  37.0671393   3.1793689  81.1590691
  36.4317226   3.2528316  81.8711595  36.7368799   3.7687288  80.4809770
  42.2969742  -2.3203928  87.3635012  43.0294914  -2.8904711  87.5972842
  41.5409098  -2.7082328  87.8041518  31.5714321   0.6413166  80.8551666
  31.4550579  -0.0341930  81.5232750  31.6816581   0.1545540  80.0383819
  33.9145862   0.1023313  84.5598355  33.5504069  -0.4246066  85.2711276
  34.7712978  -0.2878217  84.3864840  33.5551349  -4.8686787  79.5559703
  33.7225751  -4.0006550  79.9230174  33.3648518  -4.7059505  78.6320993
  36.3126682   3.5930192  91.2225534  36.0127405   4.4955231  91.1141341
  35.9677742   3.3262375  92.0746687  39.7123826  -3.8887268  88.9022971
  38.8040703  -3.9571859  88.6081732  39.6611422  -3.4115323  89.7304797
  33.5340570  -2.4129129  80.5406370  33.4140195  -1.9672079  81.3791850
  32.8393158  -2.0643812  79.9819908  31.2947462  10.3574512  84.1896501
  31.2171492  11.3082338  84.2684982  30.6909106  10.0120385  84.8471428
  39.2325636  -1.9407656  81.3686704  40.1443492  -1.7080269  81.1934402
  38.7235283  -1.3570612  80.8061783  37.8395218   3.0418162  88.7600286
  37.2104081   3.2063876  88.0576354  37.4520881   3.4559772  89.5311250
  41.7184450   3.9772600  86.1144649  41.0335489   4.3571502  85.5641683
  41.8028300   4.5867927  86.8476597  33.3923180   2.7792570  86.0250371
  33.8561526   3.0580273  85.2354993  33.1279978   1.8776015  85.8423461
  32.3292066  -1.0984277  82.8339936  33.0316110  -0.6463234  83.3013862
  31.9972695  -1.7400458  83.4619829  40.0881210   4.5004515  90.8862350
  40.9098654   4.0984702  90.6045032  40.0843613   4.3972749  91.8378466
  48.1787203   0.8443263  87.2347322  47.4250911   0.2750661  87.0791326
  48.3134744   0.8105928  88.1817957  33.5685831   5.7156665  82.9102041
  33.4331506   6.5608201  83.3386889  34.1095644   5.9175943  82.1467975
  27.0215228   3.2332103  83.4829966  27.5339749   4.0275354  83.6335531
  27.6737941   2.5358394  83.4163568  28.8310113   6.3497860  85.5652719
  29.0076741   7.2715824  85.3773703  29.6266947   6.0356279  85.9947099
  29.9541429   7.8676033  91.5663062  30.5048854   7.7393097  90.7940056
  29.1152904   8.1670923  91.2157955  36.8828577  -0.7704162  79.9473370
  36.3675201   0.0000443  80.1861757  36.6105886  -1.4439025  80.5706431
  41.8562851   1.9828193  81.8826543  41.0792294   1.6439353  81.4381705
  42.5354332   1.9880816  81.2081508  36.6714880  -2.8977070  81.7733151
  36.3665016  -2.5830920  82.6243294  37.6245323  -2.8195650  81.8160484
  35.1161312   3.2613154  83.4226105  34.5882674   2.5265913  83.1099342
  34.6148815   4.0387830  83.1766073  40.0954158   1.4562174  88.5393151
  39.4377833   2.1461436  88.6273280  40.8994558   1.8458606  88.8827138
  38.9059617  -0.1893453  86.5897093  39.4191499   0.4436539  87.0918803
  39.5560841  -0.7892258  86.2240453  33.2613913   1.0793364  76.4261078
  32.3540974   0.8482618  76.6252227  33.7584945   0.2830983  76.6135059
  36.1681991   9.7890871  79.3457764  35.4943690  10.0922568  79.9542722
  36.5547813  10.5919952  78.9963221  36.1675496  -1.3152582  83.9658114
  36.9147315  -0.8031185  83.6565236  36.4367085  -1.6368529  84.8262507
  34.4402146   1.1805959  80.9485068  33.5313365   0.8964992  81.0457538
  34.4697230   1.6005037  80.0888375  39.6721413   4.7912548  84.7176236
  39.2183740   3.9503458  84.7741426  39.0415380   5.4273947  85.0551016
  38.6154333  -4.2795466  85.9476903  37.8777090  -4.7918079  86.2787146
  38.8681106  -4.7195084  85.1360180  38.1154353   6.6289045  85.6526054
  38.4077327   7.1894102  84.9338419  38.6252973   6.9217606  86.4079213
  32.9887040  -1.2065420  87.0494863  33.0435650  -2.1591584  86.9737340
  32.1778242  -1.0505981  87.5336162  34.1378234   2.7214703  78.2873147
  33.6997664   2.0050562  77.8278784  34.8788675   2.9490817  77.7258238
  30.9279400  -2.5888361  84.8085242  30.1147265  -2.2894190  85.2150434
  31.4238394  -2.9832672  85.5259725  33.0787978   7.4069396  86.7419507
  33.0364157   7.6330243  85.8128039  33.9950677   7.1732771  86.8905308
  42.2551349   0.9971900  84.3449465  42.1169247   1.1873496  83.4170654
  41.8987567   1.7591282  84.8017516  42.2820728   3.0648427  89.3560737
  42.7157235   2.9723716  90.2043791  42.9952309   3.0405927  88.7180753
  31.1953779   4.2832425  86.5381470  31.9894377   3.7882745  86.3364045
  30.4845471   3.7550288  86.1749175  36.0148623   6.6650521  90.8893837
  36.0685645   7.2341457  91.6571553  35.1463404   6.8352406  90.5247874
  43.1436278   3.1072127  91.8893622  43.3372168   4.0117938  92.1352897
  43.0436896   2.6479546  92.7232207  33.7725055   4.8561447  90.2179307
  33.6336140   4.4880232  91.0905245  32.9839651   5.3709087  90.0463265
  34.3673207   9.9570544  81.5604843  34.5424962   9.4858587  82.3750466
  33.6805995  10.5836310  81.7886104  35.3230270   4.2343050  87.6068145
  34.9880102   4.1943820  88.5025794  34.8234215   3.5687766  87.1338555
  38.2589461   1.5799084  77.8805204  37.6418632   0.8545912  77.7838257
  37.7905950   2.3408445  77.5372278  28.9334292  13.1059906  88.3344703
  29.1730890  13.7378431  89.0123722  28.0903488  12.7547946  88.6210063
  33.4462154   8.9139029  90.7386207  33.3732325   9.7194000  91.2505512
  33.0039547   9.1130995  89.9134229  33.2351933   8.1510799  84.2489029
  32.4519455   8.6932479  84.3427253  33.9344678   8.6684779  84.6483270
  36.5448583  -6.0394572  86.8923234  37.0417283  -6.7924609  86.5724305
  35.7735565  -6.0030255  86.3266444  44.3978341  -0.3354206  88.5341526
  44.3868217   0.5470509  88.1635459  43.5295720  -0.6882655  88.3396063
  35.9060837   8.8125863  92.8944366  36.6188809   9.4473328  92.8220268
  35.4150866   8.9089729  92.0784368  37.6278364   2.7177116  84.4661658
  36.6934643   2.8378578  84.2966362  37.8055033   1.8149582  84.2021668
  41.0150915  -1.4405565  85.0011692  41.4811368  -0.6077574  84.9271995
  41.4658416  -1.9060584  85.7056950  39.0827147   4.9038256  81.9997844
  39.3586990   4.7894851  82.9091718  38.2131645   4.5055741  81.9610017
  35.7181211   9.1524607  85.6430658  35.9003605   8.3346263  86.1058410
  36.5414197   9.3692299  85.2055548  36.0523376   8.0792792  82.9045706
  36.5811143   7.5685247  82.2915868  36.3151596   7.7635322  83.7691239
  29.4079124   9.1307909  85.6643482  28.7389499   9.6154036  85.1807522
  29.2691994   9.3777129  86.5786861  33.5484393  11.1651652  92.2626140
  34.1002701  11.3283274  93.0275226  33.8890586  11.7556090  91.5906165
  36.6852780   9.1133628  89.2489823  36.5603919   8.3123368  88.7400768
  37.3431871   9.6079821  88.7603792  38.7487688   6.9142648  90.8769373
  37.8018024   6.7947999  90.8047699  39.0970461   6.0265146  90.9595634
  35.7534122   6.7095364  87.0773725  35.6059084   5.7812072  87.2581295
  36.5787615   6.7315455  86.5930800  39.3568243   7.5323923  88.1638598
  40.2814791   7.3266784  88.0263049  39.1883547   7.2840324  89.0727939
  35.7495636  -5.4366798  82.0705842  35.9659250  -4.5542160  81.7694670
  35.2689703  -5.8280585  81.3411484  39.1463560   8.0509590  83.5200689
  39.3200437   7.4856013  82.7674541  39.6392451   8.8510485  83.3380179
  45.0002951   0.8146013  85.1390989  45.4434097   0.0653338  84.7410112
  44.1229461   0.8056150  84.7564721  40.1338732   7.3676355  80.6197587
  40.8289637   7.9883047  80.8384902  40.4761882   6.5171706  80.8949965
  42.0330155   4.8176060  82.1484918  42.5581479   5.1563333  81.4234238
  41.9452508   3.8823076  81.9648053  33.7170816  10.8848044  86.5080171
  33.2775806  10.3924422  87.2013028  34.4678933  10.3421011  86.2672247
  26.1963155   7.0759584  86.5104799  27.0221175   6.7763356  86.1303443
  25.8457207   6.3067207  86.9594588  31.1644688   6.4286053  88.5802473
  30.5424697   5.7656758  88.2804701  31.8349555   6.4547185  87.8976121
  24.3971760   4.9945911  87.4693733  23.5603668   4.5668085  87.2877734
  24.3695405   5.1878354  88.4064524  30.7258195   4.9789976  82.0560933
  30.8746315   5.6625440  81.4027606  31.5324639   4.9595066  82.5710389
  43.3440133   4.7198372  95.0110866  43.0524941   5.0828352  95.8474327
  42.7312264   4.0065380  94.8324198  44.5435816   2.2851252  87.5313436
  45.3782707   2.7241056  87.6950997  44.6794944   1.8089905  86.7121682
  28.4810828   1.0055154  83.0622002  28.2356870   0.1017484  83.2602213
  28.6506743   1.0072304  82.1201480  34.2253601   7.4738106  79.5272681
  33.6527568   8.0928294  79.0743153  34.7986394   8.0237468  80.0612603
  37.4450860   7.7575257  80.6581263  38.3781534   7.6920818  80.8614139
  37.3574073   8.5931523  80.1995796  40.0738877   7.0741127  77.6185211
  39.9952509   6.7400991  78.5120969  40.8948544   7.5662895  77.6176683
  42.7717068  -0.0597134  90.8261529  42.7393388  -0.9981133  91.0121213
  43.3817692   0.0186903  90.0927354  34.6100399  -1.1901081  76.8688733
  35.5559504  -1.3194873  76.9377151  34.2314644  -1.9286419  77.3458162
  48.5893618   1.0018873  89.9667566  49.3197007   0.7404161  90.5275269
  47.9800564   0.2647595  90.0069634  46.6708915  -0.8573264  90.5642017
  45.9442079  -0.9917299  89.9558509  46.2556202  -0.5496436  91.3698735
  32.7943316  -3.2651104  76.8043619  31.8874772  -3.5617992  76.8806332
  33.0719297  -3.5621286  75.9377905  39.7174737  -7.5335643  84.0890821
  39.1373406  -6.8750839  83.7068873  39.4510670  -8.3558298  83.6778238
  38.4999615  -5.3735552  83.1447169  37.6125470  -5.0885902  82.9267364
  38.9153604  -5.5341789  82.2974446  41.8514151  -5.3489031  86.8601508
  42.6274542  -4.8592579  87.1326125  41.1262286  -4.9230977  87.3173378
  44.2886710  -4.6361412  87.9175449  44.8831201  -4.8765676  87.2068757
  44.3613294  -5.3554282  88.5448985  26.5083866   9.2072199  88.2318614
  26.3738334   8.4472600  87.6656612  26.0915928   9.9313099  87.7647403
  37.6442829   4.3909122  77.2395189  38.3478679   4.5959125  77.8552845
  36.9205478   4.9585884  77.5044273  38.4740639   0.1418984  83.3597459
  38.4175840   0.5987535  82.5205092  39.0268982  -0.6190332  83.1820302
  42.2845445  -4.0691285  84.1847579  42.0282379  -4.4694649  85.0155786
  41.6598313  -3.3547491  84.0597718  46.5957783  -1.3295211  86.6918870
  46.0357341  -1.2602022  87.4650432  45.9901286  -1.5054227  85.9718366
  29.6652992  10.1041516  88.4437056  29.5485376  11.0486948  88.3415747
  28.8445438   9.8015077  88.8322856  39.5529526   4.8291652  79.2893649
  40.3875130   4.3972850  79.1071124  39.3913869   4.6573665  80.2170544
  39.2075418   1.3323765  80.6549988  39.1524222   1.1668036  79.7138433
  38.5821474   2.0399798  80.8112178  30.6907506  10.7569778  91.6592985
  31.5934753  10.7893388  91.9759480  30.4644876   9.8270229  91.6739321
  32.4461108   9.5100764  88.3203063  31.4956739   9.5102626  88.2067436
  32.7493594   8.7633499  87.8039098  48.1813801  15.3461303  89.3848826
  48.8192211  15.2268050  88.6812166  48.0634644  16.2942147  89.4436778
  44.9903508  15.2988731  89.3210351  44.6522019  15.1829795  88.4330885
  45.8593276  14.8979896  89.3011357  40.8490323  17.1524207  85.3107242
  40.2855188  17.0614144  84.5423529  40.7342718  16.3324112  85.7909734
  45.4723291  16.4523582  95.2796556  45.4611931  16.0576381  94.4077060
  45.6343930  15.7189655  95.8730328  38.3954755  18.6475399  88.1491462
  39.1876047  18.3066223  87.7337761  38.6351405  18.7570374  89.0693615
  46.4289882  20.8195175  80.6221706  45.7777862  21.4049255  80.2355720
  47.2234245  21.3501370  80.6816744  40.3545509  17.9084312  81.0208841
  41.1276385  17.3613299  80.8821717  40.7070908  18.7728561  81.2323302
  42.1930552  19.2360694  94.2275740  41.9020418  20.1406325  94.1122406
  42.8287536  19.2777222  94.9419810  43.1186759  16.6137543  90.8177100
  43.7150331  16.3893565  90.1034063  43.1761730  15.8722288  91.4202548
  42.6911787  14.0676978  78.6527291  42.9437308  13.5458499  77.8910754
  41.7536346  13.9043124  78.7553974  47.7355070  13.0712756  86.4602034
  48.5218159  12.6532180  86.1092451  47.9993774  13.9758849  86.6283682
  47.9065147  18.5085607  81.1590691  47.2710980  18.5820233  81.8711595
  47.5762554  19.0979206  80.4809770  53.1363497  13.0087990  87.3635012
  53.8688669  12.4387206  87.5972842  52.3802853  12.6209590  87.8041518
  42.4108076  15.9705084  80.8551666  42.2944334  15.2949987  81.5232750
  42.5210336  15.4837458  80.0383819  44.7539617  15.4315231  84.5598355
  44.3897824  14.9045852  85.2711276  45.6106733  15.0413700  84.3864840
  50.6588917   6.7209564  91.8229621  50.3272242   7.5904975  91.5990836
  50.0634531   6.4045848  92.5023651  44.3945104  10.4605131  79.5559703
  44.5619506  11.3285367  79.9230174  44.2042273  10.6232413  78.6320993
  47.1520437  18.9222110  91.2225534  46.8521160  19.8247149  91.1141341
  46.8071496  18.6554293  92.0746687  40.6032918  15.3735907  87.2562238
  39.6783415  15.2412121  87.4639930  40.8517331  16.1530126  87.7532181
  50.5517581  11.4404650  88.9022971  49.6434458  11.3720058  88.6081732
  50.5005176  11.9176595  89.7304797  44.3734325  12.9162788  80.5406370
  44.2533950  13.3619839  81.3791850  43.6786913  13.2648106  79.9819908
  37.9641729  15.0169180  88.0906027  38.0934110  15.2703659  89.0045439
  37.2839181  15.6096888  87.7710682  42.1341217  25.6866430  84.1896501
  42.0565246  26.6374255  84.2684982  41.5302860  25.3412303  84.8471428
  44.6258446  12.8594296  96.8457868  43.8491780  13.4188216  96.8360733
  45.2649009  13.3451079  97.3672738  52.4179227   9.6421088  90.6800845
  51.7753607   9.9353622  90.0340640  51.9134156   9.5274009  91.4854042
  50.0719391  13.3884262  81.3686704  50.9837247  13.6211648  81.1934402
  49.5629038  13.9721306  80.8061783  42.8804819  15.6679749  96.4075835
  43.6219503  16.2064793  96.1310659  42.1741804  16.2946038  96.5647387
  48.3560158  17.8108889  95.0047997  48.7643514  17.3691300  94.2602629
  47.6337420  17.2361517  95.2582190  44.7091228  12.7481496  92.3781554
  45.5552424  13.1720910  92.5216203  44.6489866  12.0915120  93.0720117
  48.6788973  18.3710080  88.7600286  48.0497835  18.5355794  88.0576354
  48.2914635  18.7851690  89.5311250  52.5578205  19.3064518  86.1144649
  51.8729243  19.6863419  85.5641683  52.6422054  19.9159844  86.8476597
  47.8590674  10.4085864  94.0362727  47.6151606  11.1627925  93.4997003
  48.1350604  10.7871212  94.8709974  49.8129136  16.9524477  92.7139993
  50.0246032  17.5956237  92.0374374  49.7658885  16.1186793  92.2461923
  47.4155365   9.5642298  89.6176565  46.5539844   9.8623551  89.9093303
  47.4417800   9.7812696  88.6857598  44.2316935  18.1084488  86.0250371
  44.6955280  18.3872191  85.2354993  43.9673733  17.2067933  85.8423461
  41.1241016  17.6555970  88.9630134  41.6942373  18.0843238  88.3247619
  41.7149128  17.3738554  89.6614320  43.1685821  14.2307640  82.8339936
  43.8709864  14.6828684  83.3013862  42.8366449  13.5891459  83.4619829
  41.6166182  12.8219397  97.2091145  40.9864843  13.5035678  97.4426542
  41.5102270  12.7102479  96.2644284  36.9111155  12.4891193  88.1357070
  36.1210209  12.7448722  87.6597180  37.4022402  13.3039531  88.2409110
  50.9274964  19.8296432  90.8862350  51.7492408  19.4276620  90.6045032
  50.9237367  19.7264666  91.8378466  38.8625900  12.8535772  85.0940546
  38.0657064  12.9654467  85.6124042  38.6351492  13.1922425  84.2281437
  44.6931568  19.3780476  93.0423061  44.7576000  19.8400883  93.8781233
  43.9842492  18.7477841  93.1705371  35.1948858  12.7421684  90.5672060
  35.4456896  13.6268693  90.8329636  35.7308406  12.5626285  89.7947152
  59.0180957  16.1735181  87.2347322  58.2644666  15.6042579  87.0791326
  59.1528499  16.1397845  88.1817957  44.4079586  21.0448583  82.9102041
  44.2725260  21.8900119  83.3386889  44.9489398  21.2467861  82.1467975
  37.8608983  18.5624021  83.4829966  38.3733503  19.3567271  83.6335531
  38.5131696  17.8650312  83.4163568  39.6703868  21.6789777  85.5652719
  39.8470496  22.6007742  85.3773703  40.4660701  21.3648197  85.9947099
  43.8114886   8.5398042  97.1636653  44.5524600   9.1405195  97.0841115
  44.0432809   7.7975680  96.6054696  38.9556224  13.7254409  95.4414883
  38.8409739  12.8239667  95.7421982  38.1000742  13.9718106  95.0899699
  46.0348062  21.6672150  97.0402383  45.5911916  20.8808528  96.7223288
  46.6965275  21.8551300  96.3746274  40.7935183  23.1967951  91.5663062
  41.3442608  23.0685015  90.7940056  39.9546659  23.4962840  91.2157955
  48.1329300  21.9474950  95.0683785  48.1147775  22.7683831  94.5764054
  49.0549220  21.8229025  95.2933926  44.5902354  19.4619079  95.9107293
  45.1230691  18.7007367  95.6806601  44.0616435  19.1692731  96.6531447
  47.7572049   4.5679145  91.4400935  47.4136318   5.4580787  91.3640045
  48.1251012   4.3780803  90.5770520  35.8257900  16.8912675  84.2589537
  36.6633122  17.3009684  84.0423245  36.0036167  15.9512118  84.2289731
  47.7222332  14.5587756  79.9473370  47.2068955  15.3292361  80.1861757
  47.4499640  13.8852892  80.5706431  45.3069443   9.4037457  85.0058608
  44.4511039   9.0144307  84.8264247  45.7196395   9.4829418  84.1458394
  46.8368589   6.9383800  89.4050168  46.3333385   6.9013935  88.5917973
  47.1299196   7.8476543  89.4646825  43.0811475   7.0222530  88.4116350
  43.9464472   6.8265339  88.0522239  43.1488984   6.7932882  89.3385706
  52.6956606  17.3120111  81.8826543  51.9186049  16.9731270  81.4381705
  53.3748087  17.3172734  81.2081508  47.5108635  12.4314848  81.7733151
  47.2058771  12.7460997  82.6243294  48.4639077  12.5096268  81.8160484
  45.9555067  18.5905071  83.4226105  45.4276428  17.8557831  83.1099342
  45.4542570  19.3679748  83.1766073  50.9347913  16.7854092  88.5393151
  50.2771587  17.4753353  88.6273280  51.7388312  17.1750524  88.8827138
  40.6873794   9.2524738  85.7832716  41.2617546   9.0299919  85.0505909
  41.2744777   9.3213432  86.5361318  49.7453372  15.1398465  86.5897093
  50.2585253  15.7728456  87.0918803  50.3954596  14.5399660  86.2240453
  41.0143382  11.2829199  79.8028602  40.1780694  11.6203885  80.1237876
  40.8748151  11.1478179  78.8655739  42.9896462   6.1265987  84.5107786
  42.3360874   5.8115004  83.8864401  42.9476936   5.5041727  85.2367609
  44.1007667  16.4085282  76.4261078  43.1934729  16.1774535  76.6252227
  44.5978699  15.6122901  76.6135059  47.0075746  25.1182789  79.3457764
  46.3337445  25.4214486  79.9542722  47.3941568  25.9211869  78.9963221
  46.2234203  12.6147920  88.8355433  45.3056764  12.8362867  88.6777122
  46.6394346  12.6894231  87.9767141  47.0069250  14.0139336  83.9658114
  47.7541069  14.5260733  83.6565236  47.2760840  13.6923389  84.8262507
  45.2795900  16.5097877  80.9485068  44.3707120  16.2256909  81.0457538
  45.3090984  16.9296955  80.0888375  50.5115168  20.1204466  84.7176236
  50.0577495  19.2795376  84.7741426  49.8809135  20.7565864  85.0551016
  49.4548087  11.0496452  85.9476903  48.7170844  10.5373838  86.2787146
  49.7074861  10.6096834  85.1360180  48.9548107  21.9580963  85.6526054
  49.2471081  22.5186020  84.9338419  49.4646728  22.2509524  86.4079213
  49.5559715   3.8272704  86.5418672  49.8618592   2.9670068  86.2544587
  50.2812320   4.4190324  86.3417666  35.8484071  14.2303391  84.9300270
  35.6508471  13.6372751  84.2051337  35.2930735  13.9255601  85.6476209
  43.8280794  14.1226497  87.0494863  43.8829404  13.1700334  86.9737340
  43.0171997  14.2785936  87.5336162  44.9771988  18.0506620  78.2873147
  44.5391418  17.3342479  77.8278784  45.7182429  18.2782735  77.7258238
  41.7673154  12.7403557  84.8085242  40.9541020  13.0397728  85.2150434
  42.2632149  12.3459246  85.5259725  43.9181732  22.7361314  86.7419507
  43.8757911  22.9622160  85.8128039  44.8344431  22.5024688  86.8905308
  47.3647366  13.2045381  93.6400136  47.7196754  13.4316855  94.4994602
  48.0119497  13.5363758  93.0177391  53.0945103  16.3263817  84.3449465
  52.9563002  16.5165413  83.4170654  52.7381322  17.0883200  84.8017516
  41.2587229  10.3121912  90.4246477  41.8986608  10.1710672  89.7269441
  40.4264760  10.0256426  90.0485079  53.1214483  18.3940344  89.3560737
  53.5550989  18.3015633  90.2043791  53.8346063  18.3697845  88.7180753
  42.0347533  19.6124343  86.5381470  42.8288132  19.1174663  86.3364045
  41.3239225  19.0842206  86.1749175  46.8542378  21.9942438  90.8893837
  46.9079400  22.5633375  91.6571553  45.9857159  22.1644323  90.5247874
  38.3430297  13.7567425  82.6141222  37.4127885  13.6951880  82.8311184
  38.4387769  13.2343377  81.8177864  38.2615846  10.2822237  85.2019464
  38.5222663  11.1967571  85.0928624  39.0833018   9.8146680  85.3516077
  39.7340771  11.6959995  92.3718289  40.4063824  11.4877357  91.7230937
  38.9070557  11.4982081  91.9323521  53.9830032  18.4364045  91.8893622
  54.1765922  19.3409855  92.1352897  53.8830650  17.9771464  92.7232207
  45.6366343   8.3221936  94.3883949  44.9894258   9.0211885  94.2948426
  46.4067358   8.7558079  94.7560198  49.0445141  18.5870788  97.4634503
  48.8930647  18.3581339  96.5464586  49.0349820  19.5441389  97.4765848
  45.8130477  16.1602700  92.4480769  46.7422537  16.3113860  92.2749736
  45.3921507  16.2486721  91.5929416  44.6118809  20.1853365  90.2179307
  44.4729895  19.8172149  91.0905245  43.8233405  20.7001004  90.0463265
  45.2066961  25.2862461  81.5604843  45.3818717  24.8150505  82.3750466
  44.5199749  25.9128228  81.7886104  46.1624024  19.5634968  87.6068145
  45.8273857  19.5235738  88.5025794  45.6627970  18.8979683  87.1338555
  40.1368268  14.9702598  93.1320726  39.9988066  14.2382836  93.7332265
  41.0473192  14.8811498  92.8504913  49.0983216  16.9091002  77.8805204
  48.4812387  16.1837830  77.7838257  48.6299704  17.6700362  77.5372278
  42.7650569  14.6822557  92.6204405  43.4750187  14.0415749  92.5791024
  42.7219877  14.9335452  93.5430586  50.7537348  21.6189910  95.5410985
  50.6949894  20.9349130  94.8741568  51.1556866  22.3608900  95.0891611
  41.4779503  11.6687775  94.4400045  40.9416860  11.2178513  95.0921641
  40.8896211  11.8033684  93.6970509  39.7728046  28.4351824  88.3344703
  40.0124645  29.0670348  89.0123722  38.9297243  28.0839864  88.6210063
  40.8881762  11.1276426  77.0026508  40.0111228  11.0065227  76.6388755
  41.3639515  10.3362505  76.7505397  50.7554755  19.5829494  93.7724964
  49.8681534  19.2455416  93.8951363  51.3253306  18.8512525  94.0093730
  32.4083902  15.9153586  87.0968016  33.0954942  15.6015316  86.5089031
  32.2532031  16.8194951  86.8235267  37.2118624  10.8043783  91.5253039
  37.1276813  10.1969452  90.7903449  36.3901330  11.2952801  91.5262536
  44.2855908  24.2430947  90.7386207  44.2126080  25.0485918  91.2505512
  43.8433301  24.4422912  89.9134229  44.0745688  23.4802717  84.2489029
  43.2913210  24.0224397  84.3427253  44.7738433  23.9976696  84.6483270
  47.3842338   9.2897346  86.8923234  47.8811037   8.5367308  86.5724305
  46.6129319   9.3261663  86.3266444  55.2372095  14.9937712  88.5341526
  55.2261972  15.8762427  88.1635459  54.3689475  14.6409262  88.3396063
  46.7454592  24.1417781  92.8944366  47.4582564  24.7765245  92.8220268
  46.2544620  24.2381647  92.0784368  48.4672119  18.0469033  84.4661658
  47.5328397  18.1670496  84.2966362  48.6448787  17.1441500  84.2021668
  43.9677307  11.4314729  86.6194919  43.5975094  10.8785769  87.3075825
  44.4636399  10.8272863  86.0669919  51.8544670  13.8886353  85.0011692
  52.3205122  14.7214344  84.9271995  52.3052170  13.4231334  85.7056950
  41.7966505  21.8912224  93.7149937  42.4975965  22.5248707  93.8679331
  41.3261620  22.2326956  92.9545576  49.9220901  20.2330174  81.9997844
  50.1980745  20.1186768  82.9091718  49.0525400  19.8347659  81.9610017
  49.8261333   6.2566940  89.0402593  48.9124413   6.4871166  89.2084800
  50.2554434   6.3405384  89.8916626  49.5967791  14.4456832  91.5402487
  48.9439241  14.6932739  90.8854940  49.9748171  13.6320970  91.2064965
  46.5574965  24.4816525  85.6430658  46.7397360  23.6638181  86.1058410
  47.3807951  24.6984217  85.2055548  46.8917131  23.4084710  82.9045706
  47.4204897  22.8977164  82.2915868  47.1545350  23.0927240  83.7691239
  45.6455364  15.1876643  98.0268524  44.9696001  15.0870772  98.6970900
  46.4682998  15.0315856  98.4904522  37.3934223  21.4248579  90.6481040
  37.9787660  20.6792267  90.7808944  37.1959062  21.7352536  91.5317704
  40.2472879  24.4599826  85.6643482  39.5783254  24.9445954  85.1807522
  40.1085748  24.7069047  86.5786861  31.9851878  13.9954179  89.3685483
  32.0235978  13.4617770  90.1622601  31.4792171  13.4689385  88.7496460
  44.3878147  26.4943570  92.2626140  44.9396455  26.6575192  93.0275226
  44.7284341  27.0848008  91.5906165  39.3642640   8.8418720  92.8648025
  39.4283967   9.7033551  92.4525423  39.3009761   8.2292721  92.1320384
  38.8394913  10.9141852  96.5121059  39.4666952  10.5318930  97.1258584
  37.9822832  10.6956054  96.8776752  49.2389021  21.3204828  98.1174795
  49.7828925  21.9334786  97.6229750  48.6575866  21.8784406  98.6341808
  35.6160456  12.7218281  82.4439414  35.9113897  11.8128960  82.3906468
  34.7148491  12.7006021  82.1220416  47.5246534  24.4425546  89.2489823
  47.3997674  23.6415285  88.7400768  48.1825626  24.9371739  88.7603792
  39.1454703  10.7974278  88.4266963  38.4241288  11.4110246  88.2874436
  39.9347958  11.3332043  88.3483609  49.5881443  22.2434566  90.8769373
  48.6411778  22.1239917  90.8047699  49.9364216  21.3557064  90.9595634
  41.9481016   8.1328705  94.7007615  42.4715418   8.3791001  95.4633924
  41.7293349   8.9648739  94.2810752  37.3448297  10.4032379  82.5678739
  37.0161003   9.5229758  82.3853845  37.6987668  10.3480048  83.4555129
  46.5927876  22.0387282  87.0773725  46.4452839  21.1103989  87.2581295
  47.4181370  22.0607373  86.5930800  40.4590120  10.6905349  82.9354217
  40.7986193  11.2191270  82.2132825  40.9062241  11.0285755  83.7112784
  50.1961998  22.8615841  88.1638598  51.1208545  22.6558702  88.0263049
  50.0277301  22.6132242  89.0727939  43.1533561   9.0742400  92.3857285
  42.8130382   8.2750213  92.7877965  42.4472567   9.3744110  91.8134118
  43.8050033   6.1591712  90.8384608  44.6276102   5.6852190  90.7163498
  44.0488097   6.9382196  91.3383294  42.4458268   9.1879971  81.1347510
  43.1666630   9.5661223  80.6311227  41.8223572   9.9068847  81.2382488
  46.5889390   9.8925119  82.0705842  46.8053005  10.7749757  81.7694670
  46.1083458   9.5011333  81.3411484  41.3288612  12.8510833  88.6476587
  41.1833192  13.1651136  89.5400868  40.8513815  13.4695733  88.0947485
  43.1884995   9.8413381  88.6957476  43.1746563   8.9454474  88.3589774
  43.9057423   9.8484044  89.3295762  45.0411125  10.2750721  90.7410604
  44.7828903  11.1967792  90.7394934  44.5096166   9.8781155  91.4311068
  49.9857314  23.3801508  83.5200689  50.1594192  22.8147931  82.7674541
  50.4786205  24.1802403  83.3380179  35.8034274  15.3916177  91.5864248
  35.2587742  16.1675985  91.7184522  36.6813624  15.7386982  91.4283369
  42.5921891   8.7227761  83.9645046  42.7137802   7.7944407  84.1635934
  42.3023933   8.7366447  83.0523362  45.4613081   6.4082671  87.1011766
  45.4834778   6.4722004  86.1463746  45.8781140   5.5687180  87.2952272
  55.8396705  16.1437931  85.1390989  56.2827851  15.3945256  84.7410112
  54.9623216  16.1348067  84.7564721  50.9732487  22.6968272  80.6197587
  51.6683391  23.3174965  80.8384902  51.3155637  21.8463624  80.8949965
  36.5900296  14.5186073  94.4794405  35.8482032  14.6668709  95.0659035
  36.2693040  14.7794339  93.6161154  52.8723910  20.1467978  82.1484918
  53.3975234  20.4855251  81.4234238  52.7846262  19.2114993  81.9648053
  44.5343958  24.0602052  94.2774795  44.8431085  23.8151198  95.1497494
  45.3319440  24.2648690  93.7893665  44.5564570  26.2139961  86.5080171
  44.1169561  25.7216340  87.2013028  45.3072687  25.6712929  86.2672247
  37.0356909  22.4051502  86.5104799  37.8614929  22.1055274  86.1303443
  36.6850961  21.6359125  86.9594588  42.0038443  21.7577970  88.5802473
  41.3818452  21.0948675  88.2804701  42.6743310  21.7839102  87.8976121
  35.2365515  20.3237829  87.4693733  34.3997423  19.8960003  87.2877734
  35.2089160  20.5170272  88.4064524  42.0762970  10.2359758  98.1734979
  42.1251126  11.1121881  97.7912749  42.6185484   9.6937151  97.6006622
  52.5617816  20.7800882  97.4536116  51.7713360  20.7625020  96.9140615
  52.3251170  21.3189175  98.2085153  52.6815691  17.6293348  94.7668845
  52.7313696  17.4643355  95.7084367  52.5729614  16.7620607  94.3766725
  41.5651950  20.3081894  82.0560933  41.7140070  20.9917358  81.4027606
  42.3718393  20.2886984  82.5710389  49.9719453  13.6124276  96.0828151
  50.8729316  13.4730741  95.7912149  50.0467428  13.7778731  97.0226329
  44.3062259  10.9891131  94.9281338  43.4365568  11.2824697  94.6563926
  44.5421739  11.5731576  95.6488601  54.1833888  20.0490289  95.0110866
  53.8918696  20.4120270  95.8474327  53.5706019  19.3357298  94.8324198
  55.3829570  17.6143169  87.5313436  56.2176461  18.0532973  87.6950997
  55.5188699  17.1381822  86.7121682  52.4321076  15.1722904  93.4790924
  52.9075198  15.3650550  92.6709775  51.5086641  15.2282090  93.2334308
  39.3204583  16.3347071  83.0622002  39.0750624  15.4309401  83.2602213
  39.4900497  16.3364222  82.1201480  47.0101292   7.2070748  92.4446758
  47.5283236   7.9431775  92.1193247  46.6556425   7.5134741  93.2793517
  38.5900230  12.0675429  80.5608164  37.8969475  12.1419784  79.9048200
  38.3451982  11.3035773  81.0829681  47.2613887   3.6271030  87.9647655
  47.5415640   2.9594219  88.5908081  48.0464493   3.8200126  87.4522318
  45.0647355  22.8030024  79.5272681  44.4921322  23.4220211  79.0743153
  45.6380149  23.3529386  80.0612603  51.1322745  12.0488664  91.7119230
  52.0840168  12.1486762  91.7331454  50.9626195  11.2566933  92.2217314
  49.1537124   9.1344247  91.8978631  48.5587057   9.4149260  91.2025119
  48.8686821   9.6238148  92.6695372  48.2844615  23.0867174  80.6581263
  49.2175288  23.0212736  80.8614139  48.1967828  23.9223441  80.1995796
  50.9132632  22.4033045  77.6185211  50.8346263  22.0692908  78.5120969
  51.7342298  22.8954812  77.6176683  53.6110823  15.2694784  90.8261529
  53.5787143  14.3310785  91.0121213  54.2211446  15.3478821  90.0927354
  45.4494154  14.1390837  76.8688733  46.3953258  14.0097045  76.9377151
  45.0708399  13.4005499  77.3458162  53.7605311  12.0605827  90.8719813
  53.2444360  11.2764284  90.6849741  54.6445260  11.7324544  91.0366332
  51.4216038   5.8046843  86.8315625  51.2240859   5.4961931  87.7158957
  52.0315744   6.5308482  86.9613555  59.4287373  16.3310791  89.9667566
  60.1590761  16.0696079  90.5275269  58.8194318  15.5939513  90.0069634
  57.5102670  14.4718653  90.5642017  56.7835833  14.3374618  89.9558509
  57.0949957  14.7795482  91.3698735  45.3332846  18.1908583  98.3289390
  46.2535856  18.3687182  98.5229437  45.2982429  17.2464628  98.1769090
  43.6337071  12.0640813  76.8043619  42.7268526  11.7673926  76.8806332
  43.9113052  11.7670631  75.9377905  34.5515011  13.3847177  87.2542665
  34.2317795  12.5312485  86.9617039  34.0048439  13.5995755  88.0100632
  38.3294919  16.1009618  90.9712172  38.5480928  17.0326725  90.9900205
  38.7420692  15.7417592  91.7566975  45.2499136   6.6077703  82.9587860
  44.4399865   6.2624788  83.3343106  45.9383553   6.2985247  83.5475471
  47.1789685   5.6855750  84.5812157  47.7320723   6.1051203  85.2402180
  47.4159771   4.7591498  84.6235113  42.4035855   8.9227748  76.9455598
  43.2655019   9.2482647  77.2051415  42.5886200   8.1359244  76.4328664
  34.4203271  17.0050088  89.2235787  33.7266743  16.5904041  88.7105741
  35.1676262  17.0470625  88.6269206  50.5568492   7.7956275  84.0890821
  49.9767161   8.4541079  83.7068873  50.2904425   6.9733620  83.6778238
  49.0072058   7.1961333  86.2912141  49.5071837   7.3077867  85.4826460
  49.6507666   6.8922385  86.9312950  43.0654054  15.1039962  99.1779982
  42.5821136  15.9040322  99.3843871  43.1514993  15.1147907  98.2247426
  36.3340014  16.9368342  87.1001801  36.3110702  17.0356029  86.1483685
  36.6440650  17.7833493  87.4218968  38.9927392  18.9944497  91.2148416
  39.9470645  18.9628439  91.1478347  38.7939915  18.5335121  92.0298642
  39.5826774  17.5645613  93.7819214  40.4019663  18.0589692  93.8054051
  39.8563581  16.6477581  93.7536781  49.3393370   9.9556365  83.1447169
  48.4519225  10.2406016  82.9267364  49.7547359   9.7950129  82.2974446
  52.6907906   9.9802886  86.8601508  53.4668296  10.4699339  87.1326125
  51.9656040  10.4060940  87.3173378  55.1280465  10.6930506  87.9175449
  55.7224955  10.4526241  87.2068757  55.2007048   9.9737636  88.5448985
  37.3477620  24.5364116  88.2318614  37.2132088  23.7764517  87.6656612
  36.9309683  25.2605016  87.7647403  48.4836583  19.7201040  77.2395189
  49.1872433  19.9251042  77.8552845  47.7599232  20.2877802  77.5044273
  49.3134394  15.4710901  83.3597459  49.2569595  15.9279453  82.5205092
  49.8662736  14.7101586  83.1820302  53.1239200  11.2600633  84.1847579
  52.8676134  10.8597269  85.0155786  52.4992068  11.9744427  84.0597718
  57.4351537  13.9996706  86.6918870  56.8751095  14.0689896  87.4650432
  56.8295041  13.8237691  85.9718366  40.5046746  25.4333433  88.4437056
  40.3879130  26.3778866  88.3415747  39.6839192  25.1306995  88.8322856
  50.3923281  20.1583569  79.2893649  51.2268885  19.7264768  79.1071124
  50.2307624  19.9865583  80.2170544  50.0469173  16.6615682  80.6549988
  49.9917977  16.4959954  79.7138433  49.4215228  17.3691715  80.8112178
  34.8361688  11.8983747  94.4811411  35.4820551  11.3882701  94.9698636
  34.6278839  12.6352429  95.0554836  47.3615080  18.9664594  99.9803551
  48.2306240  19.1405247  99.6190186  46.8821832  19.7859011  99.8579281
  43.3565298   6.1623791  80.2335307  43.3443968   7.1065631  80.3903578
  44.2488720   5.9793937  79.9394768  41.5301260  26.0861695  91.6592985
  42.4328507  26.1185306  91.9759480  41.3038630  25.1562146  91.6739321
  43.2854862  24.8392682  88.3203063  42.3350493  24.8394544  88.2067436
  43.5887348  24.0925416  87.8039098  47.1717418   2.7566568  84.4881244
  46.4049814   2.2025055  84.6337926  47.5828123   2.8288437  85.3495395
  59.0207556  30.6753220  89.3848826  59.6585966  30.5559968  88.6812166
  58.9028399  31.6234064  89.4436778  55.8297262  30.6280648  89.3210351
  55.4915774  30.5121713  88.4330885  56.6987030  30.2271813  89.3011357
  51.6884078  32.4816125  85.3107242  51.1248943  32.3906062  84.5423529
  51.5736473  31.6616029  85.7909734  56.3117045  31.7815500  95.2796556
  56.3005686  31.3868298  94.4077060  56.4737685  31.0481573  95.8730328
  49.2348510  33.9767316  88.1491462  50.0269802  33.6358141  87.7337761
  49.4745160  34.0862291  89.0693615  57.2683637  36.1487093  80.6221706
  56.6171616  36.7341173  80.2355720  58.0627999  36.6793287  80.6816744
  51.1939264  33.2376230  81.0208841  51.9670140  32.6905217  80.8821717
  51.5464663  34.1020479  81.2323302  53.0324306  34.5652612  94.2275740
  52.7414172  35.4698243  94.1122406  53.6681291  34.6069140  94.9419810
  53.9580513  31.9429460  90.8177100  54.5544085  31.7185483  90.1034063
  54.0155485  31.2014206  91.4202548  53.5305541  29.3968896  78.6527291
  53.7831062  28.8750417  77.8910754  52.5930101  29.2335041  78.7553974
  58.5748824  28.4004674  86.4602034  59.3611914  27.9824097  86.1092451
  58.8387529  29.3050766  86.6283682  58.7458902  33.8377524  81.1590691
  58.1104735  33.9112151  81.8711595  58.4156308  34.4271123  80.4809770
  63.9757251  28.3379907  87.3635012  64.7082423  27.7679124  87.5972842
  63.2196607  27.9501508  87.8041518  53.2501830  31.2997002  80.8551666
  53.1338088  30.6241905  81.5232750  53.3604090  30.8129376  80.0383819
  55.5933371  30.7607149  84.5598355  55.2291578  30.2337770  85.2711276
  56.4500487  30.3705618  84.3864840  61.4982672  22.0501481  91.8229621
  61.1665997  22.9196892  91.5990836  60.9028285  21.7337765  92.5023651
  55.2338858  25.7897049  79.5559703  55.4013260  26.6577285  79.9230174
  55.0436027  25.9524330  78.6320993  57.9914191  34.2514027  91.2225534
  57.6914914  35.1539066  91.1141341  57.6465251  33.9846211  92.0746687
  51.4426673  30.7027824  87.2562238  50.5177169  30.5704038  87.4639930
  51.6911086  31.4822044  87.7532181  61.3911335  26.7696568  88.9022971
  60.4828212  26.7011976  88.6081732  61.3398931  27.2468513  89.7304797
  55.2128079  28.2454706  80.5406370  55.0927704  28.6911757  81.3791850
  54.5180667  28.5940024  79.9819908  48.8035484  30.3461098  88.0906027
  48.9327865  30.5995577  89.0045439  48.1232935  30.9388806  87.7710682
  52.9734971  41.0158348  84.1896501  52.8959001  41.9666173  84.2684982
  52.3696615  40.6704220  84.8471428  55.4652201  28.1886213  96.8457868
  54.6885535  28.7480133  96.8360733  56.1042764  28.6742996  97.3672738
  63.2572981  24.9713006  90.6800845  62.6147362  25.2645539  90.0340640
  62.7527910  24.8565926  91.4854042  60.9113145  28.7176179  81.3686704
  61.8231001  28.9503566  81.1934402  60.4022792  29.3013223  80.8061783
  53.7198573  30.9971667  96.4075835  54.4613258  31.5356711  96.1310659
  53.0135559  31.6237955  96.5647387  59.1953913  33.1400807  95.0047997
  59.6037269  32.6983218  94.2602629  58.4731174  32.5653435  95.2582190
  55.5484983  28.0773414  92.3781554  56.3946178  28.5012827  92.5216203
  55.4883621  27.4207038  93.0720117  59.5182727  33.7001998  88.7600286
  58.8891590  33.8647712  88.0576354  59.1308390  34.1143607  89.5311250
  63.3971959  34.6356436  86.1144649  62.7122998  35.0155337  85.5641683
  63.4815809  35.2451762  86.8476597  58.6984428  25.7377782  94.0362727
  58.4545360  26.4919843  93.4997003  58.9744359  26.1163130  94.8709974
  60.6522891  32.2816395  92.7139993  60.8639786  32.9248154  92.0374374
  60.6052639  31.4478711  92.2461923  58.2549120  24.8934215  89.6176565
  57.3933599  25.1915469  89.9093303  58.2811555  25.1104614  88.6857598
  55.0710689  33.4376406  86.0250371  55.5349035  33.7164109  85.2354993
  54.8067487  32.5359850  85.8423461  51.9634770  32.9847887  88.9630134
  52.5336127  33.4135156  88.3247619  52.5542882  32.7030472  89.6614320
  54.0079575  29.5599558  82.8339936  54.7103619  30.0120602  83.3013862
  53.6760204  28.9183377  83.4619829  52.4559937  28.1511315  97.2091145
  51.8258598  28.8327596  97.4426542  52.3496025  28.0394396  96.2644284
  47.7504909  27.8183111  88.1357070  46.9603963  28.0740639  87.6597180
  48.2416157  28.6331449  88.2409110  61.7668719  35.1588350  90.8862350
  62.5886163  34.7568537  90.6045032  61.7631122  35.0556584  91.8378466
  49.7019655  28.1827690  85.0940546  48.9050818  28.2946384  85.6124042
  49.4745247  28.5214342  84.2281437  55.5325322  34.7072393  93.0423061
  55.5969755  35.1692800  93.8781233  54.8236246  34.0769758  93.1705371
  46.0342612  28.0713601  90.5672060  46.2850651  28.9560611  90.8329636
  46.5702161  27.8918203  89.7947152  69.8574712  31.5027098  87.2347322
  69.1038420  30.9334497  87.0791326  69.9922253  31.4689763  88.1817957
  55.2473340  36.3740501  82.9102041  55.1119015  37.2192036  83.3386889
  55.7883153  36.5759778  82.1467975  51.7340680  22.4532081  99.5716396
  51.3407625  21.8998279 100.2464041  52.5506820  22.7642659  99.9622914
  48.7002737  33.8915939  83.4829966  49.2127258  34.6859189  83.6335531
  49.3525450  33.1942229  83.4163568  50.5097622  37.0081695  85.5652719
  50.6864250  37.9299660  85.3773703  51.3054456  36.6940114  85.9947099
  54.6508641  23.8689960  97.1636653  55.3918354  24.4697113  97.0841115
  54.8826563  23.1267597  96.6054696  49.7949979  29.0546327  95.4414883
  49.6803494  28.1531584  95.7421982  48.9394496  29.3010024  95.0899699
  56.8741816  36.9964067  97.0402383  56.4305671  36.2100446  96.7223288
  57.5359030  37.1843218  96.3746274  51.6328938  38.5259869  91.5663062
  52.1836363  38.3976932  90.7940056  50.7940413  38.8254758  91.2157955
  58.9723054  37.2766867  95.0683785  58.9541530  38.0975748  94.5764054
  59.8942975  37.1520942  95.2933926  55.4296109  34.7910997  95.9107293
  55.9624445  34.0299285  95.6806601  54.9010190  34.4984648  96.6531447
  58.5965804  19.8971063  91.4400935  58.2530073  20.7872704  91.3640045
  58.9644766  19.7072720  90.5770520  46.6651654  32.2204593  84.2589537
  47.5026876  32.6301601  84.0423245  46.8429922  31.2804035  84.2289731
  58.5616086  29.8879674  79.9473370  58.0462710  30.6584278  80.1861757
  58.2893395  29.2144810  80.5706431  56.1463197  24.7329375  85.0058608
  55.2904794  24.3436225  84.8264247  56.5590149  24.8121335  84.1458394
  57.6762344  22.2675718  89.4050168  57.1727140  22.2305853  88.5917973
  57.9692951  23.1768461  89.4646825  53.9205230  22.3514448  88.4116350
  54.7858227  22.1557256  88.0522239  53.9882739  22.1224799  89.3385706
  63.5350360  32.6412028  81.8826543  62.7579803  32.3023188  81.4381705
  64.2141841  32.6464652  81.2081508  58.3502389  27.7606766  81.7733151
  58.0452525  28.0752915  82.6243294  59.3032832  27.8388186  81.8160484
  56.7948821  33.9196989  83.4226105  56.2670183  33.1849749  83.1099342
  56.2936324  34.6971665  83.1766073  61.7741667  32.1146010  88.5393151
  61.1165342  32.8045271  88.6273280  62.5782067  32.5042442  88.8827138
  51.5267549  24.5816655  85.7832716  52.1011301  24.3591837  85.0505909
  52.1138531  24.6505350  86.5361318  60.5847126  30.4690382  86.5897093
  61.0979008  31.1020374  87.0918803  61.2348350  29.8691578  86.2240453
  51.8537136  26.6121116  79.8028602  51.0174448  26.9495803  80.1237876
  51.7141906  26.4770096  78.8655739  53.8290217  21.4557904  84.5107786
  53.1754629  21.1406922  83.8864401  53.7870691  20.8333645  85.2367609
  54.9401421  31.7377199  76.4261078  54.0328483  31.5066453  76.6252227
  55.4372453  30.9414819  76.6135059  57.8469500  40.4474707  79.3457764
  57.1731199  40.7506403  79.9542722  58.2335322  41.2503787  78.9963221
  57.0627957  27.9439838  88.8355433  56.1450518  28.1654785  88.6777122
  57.4788101  28.0186148  87.9767141  57.8463005  29.3431254  83.9658114
  58.5934824  29.8552651  83.6565236  58.1154594  29.0215306  84.8262507
  56.1189655  31.8389794  80.9485068  55.2100874  31.5548827  81.0457538
  56.1484739  32.2588873  80.0888375  61.3508922  35.4496384  84.7176236
  60.8971249  34.6087294  84.7741426  60.7202889  36.0857782  85.0551016
  60.2941842  26.3788370  85.9476903  59.5564599  25.8665756  86.2787146
  60.5468615  25.9388751  85.1360180  59.7941862  37.2872880  85.6526054
  60.0864836  37.8477938  84.9338419  60.3040482  37.5801441  86.4079213
  60.3953469  19.1564622  86.5418672  60.7012346  18.2961985  86.2544587
  61.1206074  19.7482242  86.3417666  46.6877825  29.5595308  84.9300270
  46.4902225  28.9664669  84.2051337  46.1324489  29.2547519  85.6476209
  54.6674549  29.4518415  87.0494863  54.7223159  28.4992251  86.9737340
  53.8565751  29.6077854  87.5336162  55.8165743  33.3798538  78.2873147
  55.3785173  32.6634397  77.8278784  56.5576184  33.6074653  77.7258238
  52.6066909  28.0695475  84.8085242  51.7934774  28.3689645  85.2150434
  53.1025903  27.6751163  85.5259725  54.7575487  38.0653232  86.7419507
  54.7151666  38.2914078  85.8128039  55.6738186  37.8316606  86.8905308
  58.2041121  28.5337299  93.6400136  58.5590508  28.7608772  94.4994602
  58.8513252  28.8655676  93.0177391  63.9338858  31.6555735  84.3449465
  63.7956756  31.8457331  83.4170654  63.5775076  32.4175118  84.8017516
  52.0980984  25.6413830  90.4246477  52.7380363  25.5002589  89.7269441
  51.2658514  25.3548344  90.0485079  63.9608237  33.7232262  89.3560737
  64.3944744  33.6307551  90.2043791  64.6739818  33.6989762  88.7180753
  52.8741288  34.9416261  86.5381470  53.6681886  34.4466581  86.3364045
  52.1632980  34.4134124  86.1749175  57.6936132  37.3234356  90.8893837
  57.7473154  37.8925292  91.6571553  56.8250913  37.4936241  90.5247874
  49.1824051  29.0859342  82.6141222  48.2521639  29.0243798  82.8311184
  49.2781523  28.5635295  81.8177864  49.1009600  25.6114155  85.2019464
  49.3616417  26.5259488  85.0928624  49.9226772  25.1438598  85.3516077
  50.5734525  27.0251912  92.3718289  51.2457579  26.8169274  91.7230937
  49.7464312  26.8273998  91.9323521  64.8223787  33.7655963  91.8893622
  65.0159677  34.6701773  92.1352897  64.7224405  33.3063382  92.7232207
  56.4760097  23.6513853  94.3883949  55.8288012  24.3503803  94.2948426
  57.2461113  24.0849997  94.7560198  59.8838895  33.9162705  97.4634503
  59.7324402  33.6873257  96.5464586  59.8743575  34.8733307  97.4765848
  56.6524232  31.4894618  92.4480769  57.5816292  31.6405778  92.2749736
  56.2315262  31.5778639  91.5929416  55.4512564  35.5145283  90.2179307
  55.3123649  35.1464067  91.0905245  54.6627160  36.0292922  90.0463265
  56.0460716  40.6154379  81.5604843  56.2212471  40.1442422  82.3750466
  55.3593504  41.2420145  81.7886104  57.0017779  34.8926885  87.6068145
  56.6667611  34.8527655  88.5025794  56.5021724  34.2271601  87.1338555
  50.9762023  30.2994515  93.1320726  50.8381821  29.5674754  93.7332265
  51.8866946  30.2103415  92.8504913  59.9376970  32.2382920  77.8805204
  59.3206141  31.5129748  77.7838257  59.4693459  32.9992280  77.5372278
  53.6044323  30.0114475  92.6204405  54.3143942  29.3707667  92.5791024
  53.5613631  30.2627369  93.5430586  61.5931102  36.9481828  95.5410985
  61.5343648  36.2641048  94.8741568  61.9950620  37.6900818  95.0891611
  52.3173257  26.9979692  94.4400045  51.7810614  26.5470431  95.0921641
  51.7289966  27.1325601  93.6970509  50.6121801  43.7643742  88.3344703
  50.8518399  44.3962266  89.0123722  49.7690997  43.4131782  88.6210063
  51.7275516  26.4568344  77.0026508  50.8504983  26.3357145  76.6388755
  52.2033269  25.6654422  76.7505397  61.5948509  34.9121412  93.7724964
  60.7075288  34.5747334  93.8951363  62.1647060  34.1804443  94.0093730
  43.2477656  31.2445504  87.0968016  43.9348696  30.9307234  86.5089031
  43.0925785  32.1486868  86.8235267  48.0512379  26.1335700  91.5253039
  47.9670567  25.5261370  90.7903449  47.2295085  26.6244718  91.5262536
  55.1249663  39.5722864  90.7386207  55.0519834  40.3777836  91.2505512
  54.6827056  39.7714830  89.9134229  54.9139442  38.8094634  84.2489029
  54.1306964  39.3516314  84.3427253  55.6132187  39.3268614  84.6483270
  58.2236092  24.6189264  86.8923234  58.7204792  23.8659226  86.5724305
  57.4523074  24.6553580  86.3266444  66.0765850  30.3229629  88.5341526
  66.0655726  31.2054345  88.1635459  65.2083229  29.9701180  88.3396063
  57.5848346  39.4709698  92.8944366  58.2976318  40.1057163  92.8220268
  57.0938375  39.5673564  92.0784368  59.3065873  33.3760951  84.4661658
  58.3722152  33.4962413  84.2966362  59.4842542  32.4733418  84.2021668
  54.8071061  26.7606647  86.6194919  54.4368849  26.2077687  87.3075825
  55.3030154  26.1564780  86.0669919  62.6938424  29.2178270  85.0011692
  63.1598877  30.0506262  84.9271995  63.1445925  28.7523252  85.7056950
  52.6360260  37.2204142  93.7149937  53.3369719  37.8540625  93.8679331
  52.1655375  37.5618873  92.9545576  60.7614656  35.5622092  81.9997844
  61.0374499  35.4478686  82.9091718  59.8919154  35.1639576  81.9610017
  60.6655087  21.5858857  89.0402593  59.7518167  21.8163084  89.2084800
  61.0948189  21.6697301  89.8916626  60.4361546  29.7748749  91.5402487
  59.7832996  30.0224657  90.8854940  60.8141926  28.9612887  91.2064965
  57.3968720  39.8108442  85.6430658  57.5791114  38.9930098  86.1058410
  58.2201706  40.0276135  85.2055548  57.7310885  38.7376627  82.9045706
  58.2598652  38.2269082  82.2915868  57.9939105  38.4219158  83.7691239
  56.4849119  30.5168560  98.0268524  55.8089756  30.4162690  98.6970900
  57.3076753  30.3607774  98.4904522  48.2327978  36.7540497  90.6481040
  48.8181415  36.0084185  90.7808944  48.0352816  37.0644453  91.5317704
  51.0866633  39.7891744  85.6643482  50.4177008  40.2737872  85.1807522
  50.9479503  40.0360965  86.5786861  42.8245633  29.3246097  89.3685483
  42.8629732  28.7909688  90.1622601  42.3185925  28.7981302  88.7496460
  55.2271902  41.8235488  92.2626140  55.7790210  41.9867109  93.0275226
  55.5678095  42.4139926  91.5906165  50.2036395  24.1710637  92.8648025
  50.2677721  25.0325468  92.4525423  50.1403515  23.5584639  92.1320384
  49.6788667  26.2433770  96.5121059  50.3060706  25.8610847  97.1258584
  48.8216586  26.0247972  96.8776752  60.0782776  36.6496745  98.1174795
  60.6222680  37.2626703  97.6229750  59.4969621  37.2076324  98.6341808
  46.4554210  28.0510199  82.4439414  46.7507651  27.1420878  82.3906468
  45.5542246  28.0297939  82.1220416  58.3640289  39.7717463  89.2489823
  58.2391428  38.9707203  88.7400768  59.0219380  40.2663657  88.7603792
  49.9848457  26.1266196  88.4266963  49.2635043  26.7402163  88.2874436
  50.7741713  26.6623961  88.3483609  60.4275197  37.5726483  90.8769373
  59.4805533  37.4531834  90.8047699  60.7757970  36.6848981  90.9595634
  52.7874771  23.4620622  94.7007615  53.3109172  23.7082919  95.4633924
  52.5687104  24.2940657  94.2810752  48.1842052  25.7324297  82.5678739
  47.8554758  24.8521676  82.3853845  48.5381422  25.6771965  83.4555129
  57.4321631  37.3679200  87.0773725  57.2846593  36.4395907  87.2581295
  58.2575124  37.3899290  86.5930800  51.2983875  26.0197267  82.9354217
  51.6379947  26.5483188  82.2132825  51.7455995  26.3577673  83.7112784
  61.0355752  38.1907758  88.1638598  61.9602300  37.9850620  88.0263049
  60.8671056  37.9424159  89.0727939  53.9927316  24.4034317  92.3857285
  53.6524136  23.6042130  92.7877965  53.2866322  24.7036028  91.8134118
  54.6443787  21.4883630  90.8384608  55.4669857  21.0144108  90.7163498
  54.8881851  22.2674114  91.3383294  53.2852022  24.5171888  81.1347510
  54.0060384  24.8953141  80.6311227  52.6617326  25.2360765  81.2382488
  57.4283145  25.2217037  82.0705842  57.6446759  26.1041675  81.7694670
  56.9477212  24.8303251  81.3411484  52.1682366  28.1802750  88.6476587
  52.0226947  28.4943053  89.5400868  51.6907570  28.7987651  88.0947485
  54.0278749  25.1705298  88.6957476  54.0140318  24.2746392  88.3589774
  54.7451177  25.1775962  89.3295762  55.8804880  25.6042639  90.7410604
  55.6222658  26.5259709  90.7394934  55.3489920  25.2073073  91.4311068
  60.8251069  38.7093426  83.5200689  60.9987946  38.1439848  82.7674541
  61.3179960  39.5094321  83.3380179  46.6428028  30.7208095  91.5864248
  46.0981496  31.4967903  91.7184522  47.5207378  31.0678899  91.4283369
  53.4315645  24.0519679  83.9645046  53.5531556  23.1236325  84.1635934
  53.1417687  24.0658365  83.0523362  56.3006835  21.7374589  87.1011766
  56.3228532  21.8013922  86.1463746  56.7174894  20.8979098  87.2952272
  66.6790460  31.4729849  85.1390989  67.1221606  30.7237174  84.7410112
  65.8016970  31.4639985  84.7564721  61.8126241  38.0260190  80.6197587
  62.5077146  38.6466883  80.8384902  62.1549391  37.1755541  80.8949965
  47.4294050  29.8477991  94.4794405  46.6875786  29.9960626  95.0659035
  47.1086795  30.1086257  93.6161154  63.7117664  35.4759896  82.1484918
  64.2368988  35.8147168  81.4234238  63.6240017  34.5406911  81.9648053
  55.3737713  39.3893969  94.2774795  55.6824839  39.1443116  95.1497494
  56.1713195  39.5940608  93.7893665  55.3958325  41.5431879  86.5080171
  54.9563315  41.0508258  87.2013028  56.1466442  41.0004847  86.2672247
  47.8750664  37.7343420  86.5104799  48.7008684  37.4347192  86.1303443
  47.5244716  36.9651042  86.9594588  52.8432197  37.0869888  88.5802473
  52.2212206  36.4240593  88.2804701  53.5137064  37.1131020  87.8976121
  46.0759269  35.6529746  87.4693733  45.2391177  35.2251921  87.2877734
  46.0482914  35.8462190  88.4064524  52.9156725  25.5651676  98.1734979
  52.9644880  26.4413799  97.7912749  53.4579239  25.0229069  97.6006622
  63.4011570  36.1092799  97.4536116  62.6107114  36.0916938  96.9140615
  63.1644925  36.6481093  98.2085153  63.5209445  32.9585266  94.7668845
  63.5707450  32.7935273  95.7084367  63.4123369  32.0912525  94.3766725
  52.4045704  35.6373811  82.0560933  52.5533824  36.3209276  81.4027606
  53.2112147  35.6178901  82.5710389  60.8113208  28.9416194  96.0828151
  61.7123070  28.8022659  95.7912149  60.8861182  29.1070649  97.0226329
  55.1456013  26.3183048  94.9281338  54.2759322  26.6116614  94.6563926
  55.3815493  26.9023493  95.6488601  65.0227642  35.3782207  95.0110866
  64.7312450  35.7412188  95.8474327  64.4099773  34.6649215  94.8324198
  66.2223324  32.9435087  87.5313436  67.0570216  33.3824891  87.6950997
  66.3582453  32.4673740  86.7121682  63.2714830  30.5014822  93.4790924
  63.7468952  30.6942468  92.6709775  62.3480396  30.5574008  93.2334308
  50.1598337  31.6638989  83.0622002  49.9144379  30.7601319  83.2602213
  50.3294252  31.6656139  82.1201480  57.8495047  22.5362665  92.4446758
  58.3676991  23.2723692  92.1193247  57.4950180  22.8426659  93.2793517
  49.4293985  27.3967347  80.5608164  48.7363229  27.4711702  79.9048200
  49.1845736  26.6327690  81.0829681  58.1007641  18.9562948  87.9647655
  58.3809395  18.2886137  88.5908081  58.8858248  19.1492043  87.4522318
  55.9041110  38.1321942  79.5272681  55.3315077  38.7512129  79.0743153
  56.4773903  38.6821303  80.0612603  61.9716499  27.3780582  91.7119230
  62.9233922  27.4778680  91.7331454  61.8019950  26.5858850  92.2217314
  59.9930879  24.4636165  91.8978631  59.3980811  24.7441178  91.2025119
  59.7080576  24.9530066  92.6695372  59.1238369  38.4159092  80.6581263
  60.0569042  38.3504654  80.8614139  59.0361582  39.2515359  80.1995796
  61.7526386  37.7324962  77.6185211  61.6740018  37.3984826  78.5120969
  62.5736053  38.2246730  77.6176683  64.4504577  30.5986702  90.8261529
  64.4180897  29.6602702  91.0121213  65.0605201  30.6770738  90.0927354
  56.2887908  29.4682755  76.8688733  57.2347013  29.3388963  76.9377151
  55.9102153  28.7297416  77.3458162  64.5999066  27.3897745  90.8719813
  64.0838114  26.6056202  90.6849741  65.4839014  27.0616462  91.0366332
  62.2609793  21.1338761  86.8315625  62.0634614  20.8253849  87.7158957
  62.8709498  21.8600399  86.9613555  70.2681127  31.6602708  89.9667566
  70.9984516  31.3987997  90.5275269  69.6588073  30.9231430  90.0069634
  68.3496424  29.8010571  90.5642017  67.6229588  29.6666536  89.9558509
  67.9343711  30.1087400  91.3698735  56.1726601  33.5200501  98.3289390
  57.0929610  33.6979100  98.5229437  56.1376184  32.5756546  98.1769090
  54.4730825  27.3932731  76.8043619  53.5662281  27.0965844  76.8806332
  54.7506806  27.0962549  75.9377905  45.3908766  28.7139094  87.2542665
  45.0711550  27.8604403  86.9617039  44.8442194  28.9287672  88.0100632
  49.1688673  31.4301535  90.9712172  49.3874683  32.3618643  90.9900205
  49.5814447  31.0709510  91.7566975  56.0892891  21.9369621  82.9587860
  55.2793619  21.5916706  83.3343106  56.7777308  21.6277164  83.5475471
  58.0183439  21.0147667  84.5812157  58.5714478  21.4343121  85.2402180
  58.2553526  20.0883416  84.6235113  54.0416538  27.0034741 100.3614920
  53.9413265  27.9529098 100.2927012  53.8238081  26.6752980  99.4890991
  53.2429610  24.2519666  76.9455598  54.1048774  24.5774564  77.2051415
  53.4279954  23.4651162  76.4328664  45.2597026  32.3342006  89.2235787
  44.5660497  31.9195959  88.7105741  46.0070017  32.3762542  88.6269206
  61.3962246  23.1248193  84.0890821  60.8160915  23.7832997  83.7068873
  61.1298179  22.3025537  83.6778238  59.8465813  22.5253250  86.2912141
  60.3465591  22.6369785  85.4826460  60.4901421  22.2214303  86.9312950
  53.9047809  30.4331880  99.1779982  53.4214890  31.2332240  99.3843871
  53.9908748  30.4439825  98.2247426  47.1733768  32.2660260  87.1001801
  47.1504456  32.3647947  86.1483685  47.4834405  33.1125410  87.4218968
  49.8321146  34.3236415  91.2148416  50.7864400  34.2920357  91.1478347
  49.6333670  33.8627038  92.0298642  50.4220528  32.8937531  93.7819214
  51.2413417  33.3881609  93.8054051  50.6957336  31.9769499  93.7536781
  60.1787124  25.2848283  83.1447169  59.2912979  25.5697934  82.9267364
  60.5941113  25.1242046  82.2974446  63.5301660  25.3094804  86.8601508
  64.3062051  25.7991256  87.1326125  62.8049795  25.7352858  87.3173378
  65.9674219  26.0222423  87.9175449  66.5618710  25.7818159  87.2068757
  66.0400803  25.3029554  88.5448985  48.1871375  39.8656034  88.2318614
  48.0525843  39.1056435  87.6656612  47.7703437  40.5896934  87.7647403
  59.3230338  35.0492958  77.2395189  60.0266188  35.2542960  77.8552845
  58.5992987  35.6169720  77.5044273  60.1528148  30.8002819  83.3597459
  60.0963349  31.2571370  82.5205092  60.7056491  30.0393504  83.1820302
  63.9632954  26.5892551  84.1847579  63.7069888  26.1889186  85.0155786
  63.3385822  27.3036345  84.0597718  68.2745292  29.3288624  86.6918870
  67.7144850  29.3981813  87.4650432  67.6688795  29.1529609  85.9718366
  51.3440501  40.7625351  88.4437056  51.2272885  41.7070784  88.3415747
  50.5232947  40.4598913  88.8322856  61.2317035  35.4875487  79.2893649
  62.0662639  35.0556685  79.1071124  61.0701378  35.3157501  80.2170544
  60.8862927  31.9907600  80.6549988  60.8311731  31.8251872  79.7138433
  60.2608983  32.6983633  80.8112178  45.6755442  27.2275665  94.4811411
  46.3214306  26.7174619  94.9698636  45.4672593  27.9644346  95.0554836
  58.2008835  34.2956512  99.9803551  59.0699994  34.4697164  99.6190186
  57.7215586  35.1150929  99.8579281  54.1959053  21.4915709  80.2335307
  54.1837723  22.4357549  80.3903578  55.0882475  21.3085855  79.9394768
  52.3695015  41.4153613  91.6592985  53.2722261  41.4477223  91.9759480
  52.1432385  40.4854064  91.6739321  54.1248617  40.1684600  88.3203063
  53.1744248  40.1686461  88.2067436  54.4281103  39.4217334  87.8039098
  58.0111172  18.0858486  84.4881244  57.2443568  17.5316973  84.6337926
  58.4221877  18.1580355  85.3495395  50.0152933  24.3743282  98.5786425
  50.8784395  24.0180086  98.7889749  49.4418344  24.0357176  99.2661829
  69.8601310  46.0045138  89.3848826  70.4979720  45.8851885  88.6812166
  69.7422153  46.9525982  89.4436778  66.6691017  45.9572566  89.3210351
  66.3309528  45.8413631  88.4330885  67.5380785  45.5563731  89.3011357
  62.5277832  47.8108042  85.3107242  61.9642697  47.7197979  84.5423529
  62.4130227  46.9907947  85.7909734  67.1510800  47.1107418  95.2796556
  67.1399440  46.7160216  94.4077060  67.3131439  46.3773490  95.8730328
  60.0742264  49.3059234  88.1491462  60.8663556  48.9650059  87.7337761
  60.3138914  49.4154209  89.0693615  63.8718061  49.8944530  94.2275740
  63.5807927  50.7990160  94.1122406  64.5075045  49.9361057  94.9419810
  64.7974268  47.2721378  90.8177100  65.3937840  47.0477401  90.1034063
  64.8549239  46.5306124  91.4202548  64.3699296  44.7260813  78.6527291
  64.6224817  44.2042335  77.8910754  63.4323855  44.5626959  78.7553974
  69.4142579  43.7296592  86.4602034  70.2005668  43.3116015  86.1092451
  69.6781283  44.6342684  86.6283682  69.5852656  49.1669442  81.1590691
  68.9498489  49.2404069  81.8711595  69.2550063  49.7563041  80.4809770
  74.8151006  43.6671825  87.3635012  75.5476178  43.0971042  87.5972842
  74.0590362  43.2793425  87.8041518  66.4327126  46.0899067  84.5598355
  66.0685333  45.5629687  85.2711276  67.2894242  45.6997536  84.3864840
  72.3376426  37.3793399  91.8229621  72.0059751  38.2488810  91.5990836
  71.7422040  37.0629683  92.5023651  66.0732613  41.1188966  79.5559703
  66.2407015  41.9869203  79.9230174  65.8829782  41.2816248  78.6320993
  68.8307946  49.5805945  91.2225534  68.5308669  50.4830984  91.1141341
  68.4859005  49.3138128  92.0746687  62.2820427  46.0319742  87.2562238
  61.3570924  45.8995956  87.4639930  62.5304840  46.8113961  87.7532181
  72.2305090  42.0988485  88.9022971  71.3221967  42.0303894  88.6081732
  72.1792685  42.5760430  89.7304797  66.0521833  43.5746624  80.5406370
  65.9321459  44.0203674  81.3791850  65.3574422  43.9231941  79.9819908
  59.6429238  45.6753016  88.0906027  59.7721619  45.9287494  89.0045439
  58.9626690  46.2680724  87.7710682  63.8128726  56.3450265  84.1896501
  63.7352755  57.2958091  84.2684982  63.2090369  55.9996138  84.8471428
  66.3045955  43.5178131  96.8457868  65.5279289  44.0772051  96.8360733
  66.9436518  44.0034914  97.3672738  74.0966736  40.3004924  90.6800845
  73.4541116  40.5937457  90.0340640  73.5921665  40.1857844  91.4854042
  71.7506900  44.0468097  81.3686704  72.6624756  44.2795484  81.1934402
  71.2416547  44.6305141  80.8061783  64.5592328  46.3263584  96.4075835
  65.3007012  46.8648628  96.1310659  63.8529313  46.9529873  96.5647387
  70.0347667  48.4692725  95.0047997  70.4431023  48.0275135  94.2602629
  69.3124929  47.8945352  95.2582190  66.3878737  43.4065331  92.3781554
  67.2339933  43.8304745  92.5216203  66.3277375  42.7498956  93.0720117
  70.3576482  49.0293915  88.7600286  69.7285344  49.1939629  88.0576354
  69.9702144  49.4435525  89.5311250  74.2365714  49.9648353  86.1144649
  73.5516752  50.3447255  85.5641683  74.3209563  50.5743680  86.8476597
  69.5378183  41.0669700  94.0362727  69.2939115  41.8211760  93.4997003
  69.8138113  41.4455047  94.8709974  71.4916645  47.6108312  92.7139993
  71.7033541  48.2540072  92.0374374  71.4446394  46.7770629  92.2461923
  69.0942874  40.2226133  89.6176565  68.2327353  40.5207386  89.9093303
  69.1205309  40.4396532  88.6857598  65.9104444  48.7668323  86.0250371
  66.3742789  49.0456026  85.2354993  65.6461242  47.8651768  85.8423461
  62.8028525  48.3139805  88.9630134  63.3729882  48.7427073  88.3247619
  63.3936637  48.0322390  89.6614320  64.8473330  44.8891476  82.8339936
  65.5497373  45.3412519  83.3013862  64.5153958  44.2475295  83.4619829
  63.2953691  43.4803232  97.2091145  62.6652352  44.1619513  97.4426542
  63.1889779  43.3686314  96.2644284  58.5898664  43.1475028  88.1357070
  57.7997718  43.4032557  87.6597180  59.0809911  43.9623366  88.2409110
  72.6062473  50.4880268  90.8862350  73.4279917  50.0860455  90.6045032
  72.6024876  50.3848502  91.8378466  60.5413409  43.5119608  85.0940546
  59.7444572  43.6238302  85.6124042  60.3139001  43.8506260  84.2281437
  66.3719077  50.0364311  93.0423061  66.4363509  50.4984718  93.8781233
  65.6630001  49.4061676  93.1705371  56.8736367  43.4005519  90.5672060
  57.1244405  44.2852529  90.8329636  57.4095915  43.2210120  89.7947152
  80.6968466  46.8319016  87.2347322  79.9432175  46.2626414  87.0791326
  80.8316008  46.7981681  88.1817957  66.0867094  51.7032418  82.9102041
  65.9512769  52.5483954  83.3386889  66.6276907  51.9051696  82.1467975
  62.5734434  37.7823998  99.5716396  62.1801380  37.2290197 100.2464041
  63.3900574  38.0934577  99.9622914  59.5396492  49.2207856  83.4829966
  60.0521012  50.0151107  83.6335531  60.1919205  48.5234147  83.4163568
  61.3491377  52.3373613  85.5652719  61.5258005  53.2591577  85.3773703
  62.1448210  52.0232032  85.9947099  65.4902395  39.1981877  97.1636653
  66.2312109  39.7989030  97.0841115  65.7220318  38.4559515  96.6054696
  60.6343733  44.3838245  95.4414883  60.5197248  43.4823502  95.7421982
  59.7788251  44.6301941  95.0899699  67.7135571  52.3255985  97.0402383
  67.2699425  51.5392363  96.7223288  68.3752784  52.5135135  96.3746274
  62.4722692  53.8551787  91.5663062  63.0230117  53.7268850  90.7940056
  61.6334168  54.1546676  91.2157955  69.8116809  52.6058785  95.0683785
  69.7935284  53.4267666  94.5764054  70.7336729  52.4812860  95.2933926
  66.2689863  50.1202914  95.9107293  66.8018200  49.3591203  95.6806601
  65.7403944  49.8276566  96.6531447  69.4359558  35.2262980  91.4400935
  69.0923827  36.1164622  91.3640045  69.8038521  35.0364638  90.5770520
  69.4009841  45.2171591  79.9473370  68.8856464  45.9876196  80.1861757
  69.1287149  44.5436728  80.5706431  66.9856952  40.0621292  85.0058608
  66.1298548  39.6728143  84.8264247  67.3983904  40.1413253  84.1458394
  68.5156098  37.5967635  89.4050168  68.0120894  37.5597771  88.5917973
  68.8086705  38.5060378  89.4646825  64.7598984  37.6806365  88.4116350
  65.6251981  37.4849174  88.0522239  64.8276493  37.4516717  89.3385706
  74.3744115  47.9703946  81.8826543  73.5973558  47.6315106  81.4381705
  75.0535596  47.9756569  81.2081508  69.1896144  43.0898684  81.7733151
  68.8846280  43.4044833  82.6243294  70.1426586  43.1680103  81.8160484
  67.6342576  49.2488907  83.4226105  67.1063937  48.5141666  83.1099342
  67.1330079  50.0263583  83.1766073  72.6135422  47.4437927  88.5393151
  71.9559096  48.1337189  88.6273280  73.4175821  47.8334359  88.8827138
  62.3661303  39.9108573  85.7832716  62.9405055  39.6883755  85.0505909
  62.9532286  39.9797268  86.5361318  71.4240881  45.7982300  86.5897093
  71.9372762  46.4312292  87.0918803  72.0742105  45.1983496  86.2240453
  62.6930891  41.9413034  79.8028602  61.8568203  42.2787721  80.1237876
  62.5535660  41.8062014  78.8655739  64.6683971  36.7849822  84.5107786
  64.0148383  36.4698839  83.8864401  64.6264445  36.1625562  85.2367609
  67.9021711  43.2731756  88.8355433  66.9844273  43.4946703  88.6777122
  68.3181855  43.3478066  87.9767141  68.6856759  44.6723171  83.9658114
  69.4328578  45.1844568  83.6565236  68.9548349  44.3507224  84.8262507
  66.9583409  47.1681712  80.9485068  66.0494629  46.8840745  81.0457538
  66.9878493  47.5880791  80.0888375  72.1902677  50.7788301  84.7176236
  71.7365004  49.9379211  84.7741426  71.5596644  51.4149700  85.0551016
  71.1335596  41.7080287  85.9476903  70.3958353  41.1957674  86.2787146
  71.3862370  41.2680669  85.1360180  70.6335616  52.6164798  85.6526054
  70.9258590  53.1769855  84.9338419  71.1434237  52.9093359  86.4079213
  71.2347224  34.4856539  86.5418672  71.5406101  33.6253903  86.2544587
  71.9599829  35.0774160  86.3417666  57.5271580  44.8887226  84.9300270
  57.3295980  44.2956587  84.2051337  56.9718244  44.5839436  85.6476209
  65.5068303  44.7810333  87.0494863  65.5616913  43.8284169  86.9737340
  64.6959505  44.9369772  87.5336162  63.4460663  43.3987392  84.8085242
  62.6328529  43.6981563  85.2150434  63.9419658  43.0043081  85.5259725
  65.5969241  53.3945149  86.7419507  65.5545420  53.6205996  85.8128039
  66.5131940  53.1608524  86.8905308  69.0434875  43.8629217  93.6400136
  69.3984263  44.0900690  94.4994602  69.6907006  44.1947594  93.0177391
  74.7732612  46.9847653  84.3449465  74.6350511  47.1749249  83.4170654
  74.4168831  47.7467035  84.8017516  62.9374738  40.9705748  90.4246477
  63.5774117  40.8294507  89.7269441  62.1052269  40.6840261  90.0485079
  74.8001992  49.0524180  89.3560737  75.2338498  48.9599469  90.2043791
  75.5133572  49.0281680  88.7180753  63.7135042  50.2708178  86.5381470
  64.5075641  49.7758498  86.3364045  63.0026734  49.7426041  86.1749175
  68.5329887  52.6526274  90.8893837  68.5866909  53.2217210  91.6571553
  67.6644668  52.8228159  90.5247874  60.0217806  44.4151260  82.6141222
  59.0915394  44.3535715  82.8311184  60.1175278  43.8927213  81.8177864
  59.9403355  40.9406073  85.2019464  60.2010172  41.8551406  85.0928624
  60.7620527  40.4730515  85.3516077  61.4128280  42.3543830  92.3718289
  62.0851333  42.1461192  91.7230937  60.5858066  42.1565916  91.9323521
  75.6617541  49.0947880  91.8893622  75.8553431  49.9993691  92.1352897
  75.5618159  48.6355299  92.7232207  67.3153852  38.9805771  94.3883949
  66.6681767  39.6795721  94.2948426  68.0854867  39.4141915  94.7560198
  70.7232650  49.2454623  97.4634503  70.5718156  49.0165175  96.5464586
  70.7137329  50.2025224  97.4765848  67.4917986  46.8186536  92.4480769
  68.4210046  46.9697695  92.2749736  67.0709016  46.9070557  91.5929416
  66.2906318  50.8437200  90.2179307  66.1517404  50.4755985  91.0905245
  65.5020914  51.3584840  90.0463265  66.8854470  55.9446297  81.5604843
  67.0606226  55.4734340  82.3750466  66.1987258  56.5712063  81.7886104
  67.8411533  50.2218803  87.6068145  67.5061366  50.1819573  88.5025794
  67.3415479  49.5563519  87.1338555  61.8155777  45.6286433  93.1320726
  61.6775575  44.8966672  93.7332265  62.7260701  45.5395333  92.8504913
  70.7770725  47.5674837  77.8805204  70.1599895  46.8421665  77.7838257
  70.3087213  48.3284198  77.5372278  64.4438078  45.3406392  92.6204405
  65.1537696  44.6999584  92.5791024  64.4007386  45.5919287  93.5430586
  72.4324857  52.2773746  95.5410985  72.3737403  51.5932966  94.8741568
  72.8344375  53.0192736  95.0891611  63.1567012  42.3271610  94.4400045
  62.6204369  41.8762349  95.0921641  62.5683720  42.4617519  93.6970509
  62.5669271  41.7860262  77.0026508  61.6898737  41.6649062  76.6388755
  63.0427024  40.9946340  76.7505397  72.4342264  50.2413330  93.7724964
  71.5469043  49.9039251  93.8951363  73.0040815  49.5096361  94.0093730
  54.0871411  46.5737421  87.0968016  54.7742451  46.2599151  86.5089031
  53.9319540  47.4778786  86.8235267  58.8906133  41.4627618  91.5253039
  58.8064322  40.8553287  90.7903449  58.0688839  41.9536636  91.5262536
  65.9643417  54.9014782  90.7386207  65.8913589  55.7069753  91.2505512
  65.5220810  55.1006748  89.9134229  65.7533197  54.1386552  84.2489029
  64.9700719  54.6808232  84.3427253  66.4525942  54.6560532  84.6483270
  69.0629847  39.9481181  86.8923234  69.5598546  39.1951144  86.5724305
  68.2916828  39.9845498  86.3266444  76.9159604  45.6521547  88.5341526
  76.9049481  46.5346262  88.1635459  76.0476984  45.2993098  88.3396063
  68.4242101  54.8001616  92.8944366  69.1370073  55.4349081  92.8220268
  67.9332129  54.8965482  92.0784368  70.1459628  48.7052869  84.4661658
  69.2115906  48.8254331  84.2966362  70.3236296  47.8025335  84.2021668
  65.6464816  42.0898564  86.6194919  65.2762603  41.5369605  87.3075825
  66.1423908  41.4856698  86.0669919  73.5332179  44.5470188  85.0011692
  73.9992631  45.3798179  84.9271995  73.9839679  44.0815169  85.7056950
  63.4754014  52.5496059  93.7149937  64.1763474  53.1832542  93.8679331
  63.0049129  52.8910791  92.9545576  71.6008410  50.8914009  81.9997844
  71.8768254  50.7770604  82.9091718  70.7312909  50.4931494  81.9610017
  71.5048842  36.9150775  89.0402593  70.5911921  37.1455002  89.2084800
  71.9341943  36.9989219  89.8916626  71.2755300  45.1040667  91.5402487
  70.6226750  45.3516574  90.8854940  71.6535680  44.2904805  91.2064965
  68.2362474  55.1400360  85.6430658  68.4184869  54.3222016  86.1058410
  69.0595460  55.3568052  85.2055548  68.5704640  54.0668545  82.9045706
  69.0992406  53.5561000  82.2915868  68.8332859  53.7511075  83.7691239
  67.3242873  45.8460478  98.0268524  66.6483510  45.7454607  98.6970900
  68.1470507  45.6899692  98.4904522  59.0721732  52.0832414  90.6481040
  59.6575169  51.3376102  90.7808944  58.8746571  52.3936371  91.5317704
  61.9260388  55.1183662  85.6643482  61.2570763  55.6029789  85.1807522
  61.7873257  55.3652882  86.5786861  53.6639387  44.6538015  89.3685483
  53.7023487  44.1201605  90.1622601  53.1579680  44.1273220  88.7496460
  66.0665656  57.1527405  92.2626140  66.6183964  57.3159027  93.0275226
  66.4071850  57.7431843  91.5906165  61.0430149  39.5002555  92.8648025
  61.1071476  40.3617386  92.4525423  60.9797270  38.8876557  92.1320384
  60.5182422  41.5725688  96.5121059  61.1454461  41.1902765  97.1258584
  59.6610341  41.3539890  96.8776752  70.9176530  51.9788663  98.1174795
  71.4616434  52.5918621  97.6229750  70.3363375  52.5368241  98.6341808
  57.2947965  43.3802117  82.4439414  57.5901406  42.4712795  82.3906468
  56.3936000  43.3589856  82.1220416  69.2034043  55.1009381  89.2489823
  69.0785183  54.2999121  88.7400768  69.8613134  55.5955574  88.7603792
  60.8242212  41.4558113  88.4266963  60.1028797  42.0694081  88.2874436
  61.6135467  41.9915878  88.3483609  71.2668952  52.9018401  90.8769373
  70.3199287  52.7823752  90.8047699  71.6151725  52.0140899  90.9595634
  63.6268525  38.7912540  94.7007615  64.1502927  39.0374836  95.4633924
  63.4080858  39.6232575  94.2810752  59.0235806  41.0616214  82.5678739
  58.6948512  40.1813593  82.3853845  59.3775177  41.0063883  83.4555129
  68.2715385  52.6971117  87.0773725  68.1240347  51.7687825  87.2581295
  69.0968879  52.7191208  86.5930800  62.1377629  41.3489184  82.9354217
  62.4773702  41.8775106  82.2132825  62.5849750  41.6869590  83.7112784
  71.8749507  53.5199676  88.1638598  72.7996054  53.3142537  88.0263049
  71.7064810  53.2716077  89.0727939  64.8321070  39.7326235  92.3857285
  64.4917891  38.9334048  92.7877965  64.1260076  40.0327946  91.8134118
  65.4837542  36.8175547  90.8384608  66.3063611  36.3436026  90.7163498
  65.7275606  37.5966031  91.3383294  64.1245776  39.8463806  81.1347510
  64.8454139  40.2245059  80.6311227  63.5011081  40.5652683  81.2382488
  68.2676899  40.5508955  82.0705842  68.4840514  41.4333593  81.7694670
  67.7870967  40.1595168  81.3411484  63.0076121  43.5094668  88.6476587
  62.8620701  43.8234971  89.5400868  62.5301324  44.1279568  88.0947485
  64.8672504  40.4997216  88.6957476  64.8534072  39.6038309  88.3589774
  65.5844932  40.5067880  89.3295762  66.7198634  40.9334556  90.7410604
  66.4616412  41.8551627  90.7394934  66.1883675  40.5364991  91.4311068
  71.6644823  54.0385343  83.5200689  71.8381701  53.4731766  82.7674541
  72.1573714  54.8386238  83.3380179  57.4821783  46.0500012  91.5864248
  56.9375251  46.8259820  91.7184522  58.3601133  46.3970817  91.4283369
  64.2709400  39.3811596  83.9645046  64.3925311  38.4528243  84.1635934
  63.9811442  39.3950282  83.0523362  67.1400590  37.0666507  87.1011766
  67.1622287  37.1305840  86.1463746  67.5568649  36.2271015  87.2952272
  77.5184214  46.8021766  85.1390989  77.9615360  46.0529092  84.7410112
  76.6410725  46.7931903  84.7564721  72.6519996  53.3552108  80.6197587
  73.3470900  53.9758800  80.8384902  72.9943146  52.5047459  80.8949965
  58.2687805  45.1769909  94.4794405  57.5269541  45.3252544  95.0659035
  57.9480549  45.4378174  93.6161154  74.5511419  50.8051813  82.1484918
  75.0762743  51.1439086  81.4234238  74.4633771  49.8698829  81.9648053
  66.2131467  54.7185887  94.2774795  66.5218594  54.4735034  95.1497494
  67.0106949  54.9232525  93.7893665  66.2352079  56.8723797  86.5080171
  65.7957070  56.3800175  87.2013028  66.9860196  56.3296764  86.2672247
  58.7144418  53.0635337  86.5104799  59.5402438  52.7639109  86.1303443
  58.3638470  52.2942960  86.9594588  63.6825952  52.4161806  88.5802473
  63.0605961  51.7532511  88.2804701  64.3530819  52.4422938  87.8976121
  56.9153023  50.9821664  87.4693733  56.0784932  50.5543838  87.2877734
  56.8876669  51.1754107  88.4064524  63.7550479  40.8943594  98.1734979
  63.8038635  41.7705716  97.7912749  64.2972993  40.3520987  97.6006622
  74.2405325  51.4384717  97.4536116  73.4500868  51.4208856  96.9140615
  74.0038679  51.9773011  98.2085153  74.3603200  48.2877183  94.7668845
  74.4101205  48.1227191  95.7084367  74.2517123  47.4204442  94.3766725
  71.6506962  44.2708111  96.0828151  72.5516825  44.1314576  95.7912149
  71.7254937  44.4362566  97.0226329  65.9849768  41.6474966  94.9281338
  65.1153077  41.9408532  94.6563926  66.2209248  42.2315411  95.6488601
  75.8621397  50.7074125  95.0110866  75.5706205  51.0704105  95.8474327
  75.2493528  49.9941133  94.8324198  77.0617079  48.2727005  87.5313436
  77.8963970  48.7116809  87.6950997  77.1976208  47.7965658  86.7121682
  74.1108585  45.8306739  93.4790924  74.5862706  46.0234386  92.6709775
  73.1874150  45.8865925  93.2334308  60.9992092  46.9930907  83.0622002
  60.7538133  46.0893237  83.2602213  61.1688006  46.9948057  82.1201480
  68.6888801  37.8654583  92.4446758  69.2070745  38.6015610  92.1193247
  68.3343934  38.1718576  93.2793517  60.2687739  42.7259264  80.5608164
  59.5756984  42.8003619  79.9048200  60.0239491  41.9619608  81.0829681
  68.9401396  34.2854866  87.9647655  69.2203149  33.6178055  88.5908081
  69.7252002  34.4783961  87.4522318  72.8110254  42.7072500  91.7119230
  73.7627677  42.8070597  91.7331454  72.6413704  41.9150768  92.2217314
  70.8324633  39.7928083  91.8978631  70.2374565  40.0733095  91.2025119
  70.5474330  40.2821984  92.6695372  69.9632124  53.7451010  80.6581263
  70.8962797  53.6796571  80.8614139  69.8755337  54.5807276  80.1995796
  72.5920141  53.0616880  77.6185211  72.5133772  52.7276744  78.5120969
  73.4129807  53.5538648  77.6176683  75.2898332  45.9278619  90.8261529
  75.2574652  44.9894620  91.0121213  75.8998955  46.0062656  90.0927354
  67.1281663  44.7974672  76.8688733  68.0740767  44.6680880  76.9377151
  66.7495907  44.0589334  77.3458162  75.4392820  42.7189663  90.8719813
  74.9231869  41.9348119  90.6849741  76.3232769  42.3908379  91.0366332
  73.1003547  36.4630678  86.8315625  72.9028368  36.1545766  87.7158957
  73.7103253  37.1892317  86.9613555  81.1074882  46.9894626  89.9667566
  81.8378270  46.7279914  90.5275269  80.4981827  46.2523348  90.0069634
  79.1890179  45.1302489  90.5642017  78.4623342  44.9958454  89.9558509
  78.7737466  45.4379317  91.3698735  67.0120355  48.8492418  98.3289390
  67.9323365  49.0271017  98.5229437  66.9769938  47.9048464  98.1769090
  65.3124580  42.7224649  76.8043619  64.4056035  42.4257761  76.8806332
  65.5900561  42.4254467  75.9377905  56.2302520  44.0431012  87.2542665
  55.9105304  43.1896320  86.9617039  55.6835948  44.2579590  88.0100632
  60.0082428  46.7593453  90.9712172  60.2268437  47.6910561  90.9900205
  60.4208201  46.4001427  91.7566975  66.9286645  37.2661538  82.9587860
  66.1187374  36.9208623  83.3343106  67.6171062  36.9569082  83.5475471
  68.8577194  36.3439585  84.5812157  69.4108232  36.7635039  85.2402180
  69.0947280  35.4175333  84.6235113  64.8810293  42.3326659 100.3614920
  64.7807020  43.2821016 100.2927012  64.6631835  42.0044898  99.4890991
  64.0823364  39.5811584  76.9455598  64.9442528  39.9066482  77.2051415
  64.2673708  38.7943080  76.4328664  56.0990780  47.6633923  89.2235787
  55.4054252  47.2487876  88.7105741  56.8463771  47.7054460  88.6269206
  72.2356001  38.4540110  84.0890821  71.6554670  39.1124914  83.7068873
  71.9691933  37.6317455  83.6778238  70.6859567  37.8545168  86.2912141
  71.1859346  37.9661703  85.4826460  71.3295175  37.5506221  86.9312950
  64.7441563  45.7623798  99.1779982  64.2608645  46.5624158  99.3843871
  64.8302502  45.7731742  98.2247426  58.0127523  47.5952177  87.1001801
  57.9898211  47.6939865  86.1483685  58.3228159  48.4417328  87.4218968
  60.6714900  49.6528332  91.2148416  61.6258154  49.6212275  91.1478347
  60.4727424  49.1918956  92.0298642  61.2614283  48.2229448  93.7819214
  62.0807172  48.7173527  93.8054051  61.5351090  47.3061416  93.7536781
  71.0180879  40.6140201  83.1447169  70.1306734  40.8989851  82.9267364
  71.4334868  40.4533964  82.2974446  74.3695415  40.6386722  86.8601508
  75.1455805  41.1283174  87.1326125  73.6443549  41.0644776  87.3173378
  76.8067974  41.3514341  87.9175449  77.4012464  41.1110077  87.2068757
  76.8794557  40.6321471  88.5448985  59.0265129  55.1947952  88.2318614
  58.8919597  54.4348353  87.6656612  58.6097192  55.9188852  87.7647403
  70.9921903  46.1294737  83.3597459  70.9357104  46.5863288  82.5205092
  71.5450245  45.3685421  83.1820302  74.8026708  41.9184468  84.1847579
  74.5463643  41.5181104  85.0155786  74.1779577  42.6328262  84.0597718
  79.1139046  44.6580542  86.6918870  78.5538604  44.7273731  87.4650432
  78.5082550  44.4821526  85.9718366  62.1834255  56.0917269  88.4437056
  62.0666639  57.0362701  88.3415747  61.3626701  55.7890830  88.8322856
  72.0710790  50.8167405  79.2893649  72.9056394  50.3848603  79.1071124
  71.9095133  50.6449418  80.2170544  71.7256682  47.3199518  80.6549988
  71.6705486  47.1543789  79.7138433  71.1002737  48.0275551  80.8112178
  56.5149197  42.5567582  94.4811411  57.1608060  42.0466536  94.9698636
  56.3066348  43.2936264  95.0554836  69.0402589  49.6248430  99.9803551
  69.9093749  49.7989082  99.6190186  68.5609341  50.4442847  99.8579281
  65.0352807  36.8207627  80.2335307  65.0231477  37.7649467  80.3903578
  65.9276229  36.6377772  79.9394768  63.2088769  56.7445531  91.6592985
  64.1116016  56.7769141  91.9759480  62.9826139  55.8145982  91.6739321
  64.9642371  55.4976517  88.3203063  64.0138002  55.4978379  88.2067436
  65.2674857  54.7509252  87.8039098  68.8504927  33.4150403  84.4881244
  68.0837323  32.8608890  84.6337926  69.2615632  33.4872272  85.3495395
  60.8546688  39.7035199  98.5786425  61.7178149  39.3472004  98.7889749
  60.2812099  39.3649094  99.2661829  80.6995065  61.3337056  89.3848826
  81.3373475  61.2143803  88.6812166  80.5815908  62.2817900  89.4436778
  77.5084771  61.2864484  89.3210351  77.1703283  61.1705548  88.4330885
  78.3774539  60.8855649  89.3011357  77.9904554  62.4399335  95.2796556
  77.9793195  62.0452134  94.4077060  78.1525194  61.7065408  95.8730328
  78.9471145  66.8070928  80.6221706  78.2959125  67.3925008  80.2355720
  79.7415508  67.3377123  80.6816744  74.7111815  65.2236447  94.2275740
  74.4201681  66.1282078  94.1122406  75.3468800  65.2652975  94.9419810
  75.6368022  62.6013296  90.8177100  76.2331594  62.3769318  90.1034063
  75.6942994  61.8598041  91.4202548  75.2093050  60.0552731  78.6527291
  75.4618571  59.5334252  77.8910754  74.2717610  59.8918877  78.7553974
  80.2536333  59.0588509  86.4602034  81.0399422  58.6407933  86.1092451
  80.5175038  59.9634602  86.6283682  80.4246411  64.4961360  81.1590691
  79.7892244  64.5695986  81.8711595  80.0943817  65.0854959  80.4809770
  85.6544760  58.9963743  87.3635012  86.3869932  58.4262960  87.5972842
  84.8984116  58.6085343  87.8041518  77.2720880  61.4190984  84.5598355
  76.9079087  60.8921605  85.2711276  78.1287996  61.0289453  84.3864840
  83.1770181  52.7085317  91.8229621  82.8453506  53.5780728  91.5990836
  82.5815794  52.3921601  92.5023651  76.9126367  56.4480884  79.5559703
  77.0800769  57.3161120  79.9230174  76.7223536  56.6108166  78.6320993
  79.6701700  64.9097863  91.2225534  79.3702423  65.8122902  91.1141341
  79.3252760  64.6430046  92.0746687  73.1214182  61.3611660  87.2562238
  72.1964678  61.2287874  87.4639930  73.3698595  62.1405879  87.7532181
  83.0698844  57.4280403  88.9022971  82.1615721  57.3595811  88.6081732
  83.0186440  57.9052348  89.7304797  76.8915588  58.9038541  80.5406370
  76.7715213  59.3495592  81.3791850  76.1968176  59.2523859  79.9819908
  77.1439710  58.8470049  96.8457868  76.3673044  59.4063969  96.8360733
  77.7830273  59.3326832  97.3672738  84.9360490  55.6296841  90.6800845
  84.2934871  55.9229375  90.0340640  84.4315419  55.5149762  91.4854042
  82.5900654  59.3760015  81.3686704  83.5018510  59.6087401  81.1934402
  82.0810301  59.9597059  80.8061783  75.3986082  61.6555502  96.4075835
  76.1400767  62.1940546  96.1310659  74.6923068  62.2821791  96.5647387
  80.8741422  63.7984642  95.0047997  81.2824778  63.3567053  94.2602629
  80.1518683  63.2237270  95.2582190  77.2272492  58.7357249  92.3781554
  78.0733687  59.1596663  92.5216203  77.1671130  58.0790873  93.0720117
  81.1970236  64.3585833  88.7600286  80.5679099  64.5231547  88.0576354
  80.8095899  64.7727443  89.5311250  85.0759468  65.2940271  86.1144649
  84.3910506  65.6739172  85.5641683  85.1603318  65.9035598  86.8476597
  80.3771937  56.3961618  94.0362727  80.1332869  57.1503678  93.4997003
  80.6531868  56.7746965  94.8709974  82.3310400  62.9400230  92.7139993
  82.5427295  63.5831990  92.0374374  82.2840148  62.1062546  92.2461923
  79.9336629  55.5518051  89.6176565  79.0721108  55.8499304  89.9093303
  79.9599064  55.7688449  88.6857598  76.7498198  64.0960241  86.0250371
  77.2136544  64.3747944  85.2354993  76.4854996  63.1943686  85.8423461
  73.6422279  63.6431723  88.9630134  74.2123636  64.0718991  88.3247619
  74.2330391  63.3614307  89.6614320  75.6867084  60.2183393  82.8339936
  76.3891128  60.6704437  83.3013862  75.3547713  59.5767212  83.4619829
  74.1347446  58.8095150  97.2091145  73.5046106  59.4911431  97.4426542
  74.0283534  58.6978232  96.2644284  69.4292418  58.4766946  88.1357070
  68.6391472  58.7324475  87.6597180  69.9203666  59.2915284  88.2409110
  83.4456228  65.8172185  90.8862350  84.2673672  65.4152373  90.6045032
  83.4418631  65.7140419  91.8378466  71.3807164  58.8411525  85.0940546
  70.5838327  58.9530220  85.6124042  71.1532756  59.1798178  84.2281437
  77.2112831  65.3656229  93.0423061  77.2757264  65.8276636  93.8781233
  76.5023755  64.7353594  93.1705371  67.7130121  58.7297437  90.5672060
  67.9638160  59.6144447  90.8329636  68.2489670  58.5502038  89.7947152
  91.5362221  62.1610934  87.2347322  90.7825929  61.5918332  87.0791326
  91.6709762  62.1273598  88.1817957  73.4128189  53.1115916  99.5716396
  73.0195134  52.5582115 100.2464041  74.2294329  53.4226494  99.9622914
  76.3296150  54.5273795  97.1636653  77.0705863  55.1280948  97.0841115
  76.5614072  53.7851433  96.6054696  71.4737488  59.7130162  95.4414883
  71.3591003  58.8115420  95.7421982  70.6182005  59.9593859  95.0899699
  78.5529325  67.6547903  97.0402383  78.1093180  66.8684281  96.7223288
  79.2146539  67.8427053  96.3746274  80.6510563  67.9350703  95.0683785
  80.6329039  68.7559584  94.5764054  81.5730483  67.8104778  95.2933926
  77.1083618  65.4494832  95.9107293  77.6411954  64.6883120  95.6806601
  76.5797699  65.1568484  96.6531447  80.2753313  50.5554898  91.4400935
  79.9317582  51.4456540  91.3640045  80.6432275  50.3656556  90.5770520
  80.2403595  60.5463509  79.9473370  79.7250219  61.3168114  80.1861757
  79.9680904  59.8728645  80.5706431  77.8250706  55.3913210  85.0058608
  76.9692303  55.0020060  84.8264247  78.2377658  55.4705171  84.1458394
  79.3549853  52.9259553  89.4050168  78.8514649  52.8889688  88.5917973
  79.6480460  53.8352296  89.4646825  75.5992739  53.0098283  88.4116350
  76.4645736  52.8141092  88.0522239  75.6670248  52.7808635  89.3385706
  85.2137869  63.2995864  81.8826543  84.4367312  62.9607023  81.4381705
  85.8929350  63.3048487  81.2081508  80.0289898  58.4190601  81.7733151
  79.7240034  58.7336750  82.6243294  80.9820341  58.4972021  81.8160484
  78.4736330  64.5780825  83.4226105  77.9457692  63.8433584  83.1099342
  77.9723833  65.3555501  83.1766073  83.4529176  62.7729845  88.5393151
  82.7952851  63.4629106  88.6273280  84.2569576  63.1626277  88.8827138
  73.2055058  55.2400491  85.7832716  73.7798810  55.0175672  85.0505909
  73.7926040  55.3089185  86.5361318  82.2634635  61.1274218  86.5897093
  82.7766517  61.7604210  87.0918803  82.9135859  60.5275413  86.2240453
  73.5324645  57.2704952  79.8028602  72.6961957  57.6079638  80.1237876
  73.3929415  57.1353932  78.8655739  75.5077726  52.1141740  84.5107786
  74.8542138  51.7990757  83.8864401  75.4658200  51.4917480  85.2367609
  79.5257009  71.1058542  79.3457764  78.8518708  71.4090239  79.9542722
  79.9122831  71.9087622  78.9963221  78.7415466  58.6023673  88.8355433
  77.8238027  58.8238620  88.6777122  79.1575610  58.6769984  87.9767141
  79.5250514  60.0015089  83.9658114  80.2722333  60.5136486  83.6565236
  79.7942103  59.6799142  84.8262507  83.0296431  66.1080219  84.7176236
  82.5758758  65.2671129  84.7741426  82.3990398  66.7441618  85.0551016
  81.9729351  57.0372205  85.9476903  81.2352108  56.5249591  86.2787146
  82.2256124  56.5972587  85.1360180  81.4729371  67.9456716  85.6526054
  81.7652345  68.5061773  84.9338419  81.9827991  68.2385277  86.4079213
  82.0740978  49.8148457  86.5418672  82.3799855  48.9545821  86.2544587
  82.7993583  50.4066077  86.3417666  68.3665334  60.2179144  84.9300270
  68.1689734  59.6248504  84.2051337  67.8111998  59.9131354  85.6476209
  76.3462058  60.1102250  87.0494863  76.4010668  59.1576087  86.9737340
  75.5353260  60.2661689  87.5336162  74.2854418  58.7279310  84.8085242
  73.4722283  59.0273481  85.2150434  74.7813412  58.3334999  85.5259725
  79.8828630  59.1921134  93.6400136  80.2378017  59.4192608  94.4994602
  80.5300761  59.5239511  93.0177391  85.6126367  62.3139570  84.3449465
  85.4744265  62.5041166  83.4170654  85.2562585  63.0758953  84.8017516
  73.7768493  56.2997666  90.4246477  74.4167872  56.1586425  89.7269441
  72.9446023  56.0132179  90.0485079  85.6395746  64.3816097  89.3560737
  86.0732253  64.2891386  90.2043791  86.3527327  64.3573598  88.7180753
  70.8611560  59.7443178  82.6141222  69.9309148  59.6827633  82.8311184
  70.9569032  59.2219130  81.8177864  70.7797109  56.2697990  85.2019464
  71.0403926  57.1843324  85.0928624  71.6014281  55.8022433  85.3516077
  72.2522034  57.6835748  92.3718289  72.9245088  57.4753110  91.7230937
  71.4251821  57.4857834  91.9323521  86.5011296  64.4239798  91.8893622
  86.6947186  65.3285609  92.1352897  86.4011914  63.9647217  92.7232207
  78.1547606  54.3097689  94.3883949  77.5075521  55.0087638  94.2948426
  78.9248622  54.7433833  94.7560198  81.5626404  64.5746541  97.4634503
  81.4111911  64.3457092  96.5464586  81.5531084  65.5317142  97.4765848
  78.3311741  62.1478453  92.4480769  79.2603801  62.2989613  92.2749736
  77.9102771  62.2362474  91.5929416  77.7248225  71.2738214  81.5604843
  77.8999980  70.8026258  82.3750466  77.0381013  71.9003981  81.7886104
  78.6805288  65.5510721  87.6068145  78.3455120  65.5111491  88.5025794
  78.1809233  64.8855437  87.1338555  72.6549532  60.9578351  93.1320726
  72.5169330  60.2258589  93.7332265  73.5654455  60.8687251  92.8504913
  81.6164479  62.8966755  77.8805204  80.9993650  62.1713583  77.7838257
  81.1480968  63.6576115  77.5372278  75.2831832  60.6698310  92.6204405
  75.9931451  60.0291502  92.5791024  75.2401140  60.9211205  93.5430586
  83.2718611  67.6065663  95.5410985  83.2131157  66.9224883  94.8741568
  83.6738129  68.3484653  95.0891611  73.9960766  57.6563528  94.4400045
  73.4598123  57.2054266  95.0921641  73.4077475  57.7909437  93.6970509
  73.4063025  57.1152179  77.0026508  72.5292492  56.9940980  76.6388755
  73.8820778  56.3238258  76.7505397  83.2736018  65.5705247  93.7724964
  82.3862797  65.2331169  93.8951363  83.8434569  64.8388278  94.0093730
  69.7299888  56.7919536  91.5253039  69.6458076  56.1845205  90.7903449
  68.9082594  57.2828554  91.5262536  79.9023601  55.2773099  86.8923234
  80.3992301  54.5243061  86.5724305  79.1310583  55.3137416  86.3266444
  87.7553359  60.9813465  88.5341526  87.7443235  61.8638180  88.1635459
  86.8870738  60.6285015  88.3396063  79.2635855  70.1293534  92.8944366
  79.9763827  70.7640998  92.8220268  78.7725884  70.2257400  92.0784368
  80.9853382  64.0344786  84.4661658  80.0509661  64.1546249  84.2966362
  81.1630051  63.1317253  84.2021668  76.4858570  57.4190482  86.6194919
  76.1156358  56.8661522  87.3075825  76.9817663  56.8148616  86.0669919
  84.3725933  59.8762106  85.0011692  84.8386386  60.7090097  84.9271995
  84.8233434  59.4107087  85.7056950  82.4402165  66.2205927  81.9997844
  82.7162008  66.1062521  82.9091718  81.5706663  65.8223412  81.9610017
  82.3442596  52.2442693  89.0402593  81.4305676  52.4746919  89.2084800
  82.7735698  52.3281137  89.8916626  82.1149055  60.4332585  91.5402487
  81.4620505  60.6808492  90.8854940  82.4929435  59.6196723  91.2064965
  79.4098394  69.3960463  82.9045706  79.9386160  68.8852917  82.2915868
  79.6726614  69.0802993  83.7691239  78.1636628  61.1752396  98.0268524
  77.4877265  61.0746525  98.6970900  78.9864262  61.0191609  98.4904522
  64.5033142  59.9829932  89.3685483  64.5417241  59.4493523  90.1622601
  63.9973434  59.4565138  88.7496460  76.9059411  72.4819323  92.2626140
  77.4577719  72.6450945  93.0275226  77.2465604  73.0723761  91.5906165
  71.8823904  54.8294473  92.8648025  71.9465230  55.6909304  92.4525423
  71.8191024  54.2168474  92.1320384  71.3576176  56.9017605  96.5121059
  71.9848215  56.5194683  97.1258584  70.5004095  56.6831807  96.8776752
  81.7570285  67.3080581  98.1174795  82.3010189  67.9210539  97.6229750
  81.1757130  67.8660159  98.6341808  68.1341719  58.7094034  82.4439414
  68.4295160  57.8004713  82.3906468  67.2329755  58.6881774  82.1220416
  71.6635966  56.7850031  88.4266963  70.9422552  57.3985999  88.2874436
  72.4529222  57.3207796  88.3483609  82.1062706  68.2310319  90.8769373
  81.1593042  68.1115670  90.8047699  82.4545479  67.3432817  90.9595634
  74.4662280  54.1204458  94.7007615  74.9896681  54.3666754  95.4633924
  74.2474613  54.9524492  94.2810752  69.8629561  56.3908132  82.5678739
  69.5342267  55.5105511  82.3853845  70.2168931  56.3355801  83.4555129
  72.9771384  56.6781102  82.9354217  73.3167456  57.2067023  82.2132825
  73.4243504  57.0161508  83.7112784  82.7143261  68.8491594  88.1638598
  83.6389809  68.6434455  88.0263049  82.5458565  68.6007995  89.0727939
  75.6714825  55.0618153  92.3857285  75.3311645  54.2625966  92.7877965
  74.9653831  55.3619864  91.8134118  76.3231296  52.1467465  90.8384608
  77.1457366  51.6727943  90.7163498  76.5669360  52.9257949  91.3383294
  74.9639531  55.1755724  81.1347510  75.6847893  55.5536976  80.6311227
  74.3404835  55.8944600  81.2382488  79.1070654  55.8800873  82.0705842
  79.3234268  56.7625510  81.7694670  78.6264721  55.4887086  81.3411484
  73.8469875  58.8386586  88.6476587  73.7014456  59.1526889  89.5400868
  73.3695079  59.4571486  88.0947485  75.7066258  55.8289134  88.6957476
  75.6927827  54.9330227  88.3589774  76.4238686  55.8359797  89.3295762
  77.5592389  56.2626474  90.7410604  77.3010167  57.1843545  90.7394934
  77.0277429  55.8656908  91.4311068  82.5038578  69.3677261  83.5200689
  82.6775455  68.8023684  82.7674541  82.9967469  70.1678156  83.3380179
  75.1103154  54.7103514  83.9645046  75.2319065  53.7820160  84.1635934
  74.8205196  54.7242200  83.0523362  77.9794344  52.3958424  87.1011766
  78.0016041  52.4597758  86.1463746  78.3962403  51.5562933  87.2952272
  88.3577969  62.1313684  85.1390989  88.8009115  61.3821009  84.7410112
  87.4804479  62.1223820  84.7564721  83.4913750  68.6844025  80.6197587
  84.1864655  69.3050718  80.8384902  83.8336900  67.8339377  80.8949965
  69.1081559  60.5061826  94.4794405  68.3663295  60.6544462  95.0659035
  68.7874304  60.7670092  93.6161154  85.3905173  66.1343731  82.1484918
  85.9156497  66.4731004  81.4234238  85.3027526  65.1990746  81.9648053
  77.0525222  70.0477805  94.2774795  77.3612348  69.8026951  95.1497494
  77.8500704  70.2524443  93.7893665  74.5944234  56.2235511  98.1734979
  74.6432389  57.0997634  97.7912749  75.1366748  55.6812904  97.6006622
  85.0799079  66.7676635  97.4536116  84.2894623  66.7500773  96.9140615
  84.8432434  67.3064928  98.2085153  85.1996954  63.6169101  94.7668845
  85.2494959  63.4519108  95.7084367  85.0910878  62.7496360  94.3766725
  82.4900717  59.6000029  96.0828151  83.3910579  59.4606494  95.7912149
  82.5648691  59.7654484  97.0226329  76.8243522  56.9766884  94.9281338
  75.9546831  57.2700450  94.6563926  77.0603002  57.5607329  95.6488601
  86.7015151  66.0366043  95.0110866  86.4099959  66.3996023  95.8474327
  86.0887282  65.3233051  94.8324198  87.9010833  63.6018922  87.5313436
  88.7357725  64.0408726  87.6950997  88.0369962  63.1257576  86.7121682
  84.9502339  61.1598657  93.4790924  85.4256461  61.3526303  92.6709775
  84.0267905  61.2157843  93.2334308  71.8385846  62.3222824  83.0622002
  71.5931888  61.4185154  83.2602213  72.0081761  62.3239975  82.1201480
  79.5282556  53.1946501  92.4446758  80.0464500  53.9307528  92.1193247
  79.1737689  53.5010494  93.2793517  71.1081494  58.0551182  80.5608164
  70.4150738  58.1295537  79.9048200  70.8633245  57.2911526  81.0829681
  79.7795150  49.6146783  87.9647655  80.0596904  48.9469972  88.5908081
  80.5645757  49.8075879  87.4522318  77.5828619  68.7905777  79.5272681
  77.0102586  69.4095964  79.0743153  78.1561412  69.3405139  80.0612603
  83.6504008  58.0364417  91.7119230  84.6021431  58.1362515  91.7331454
  83.4807459  57.2442686  92.2217314  81.6718388  55.1220000  91.8978631
  81.0768320  55.4025013  91.2025119  81.3868085  55.6113901  92.6695372
  80.8025878  69.0742927  80.6581263  81.7356551  69.0088489  80.8614139
  80.7149091  69.9099194  80.1995796  83.4313895  68.3908798  77.6185211
  83.3527527  68.0568661  78.5120969  84.2523562  68.8830566  77.6176683
  86.1292086  61.2570537  90.8261529  86.0968406  60.3186538  91.0121213
  86.7392710  61.3354574  90.0927354  77.9675417  60.1266590  76.8688733
  78.9134522  59.9972798  76.9377151  77.5889662  59.3881252  77.3458162
  86.2786575  58.0481580  90.8719813  85.7625623  57.2640037  90.6849741
  87.1626523  57.7200297  91.0366332  83.9397302  51.7922596  86.8315625
  83.7422123  51.4837684  87.7158957  84.5497007  52.5184235  86.9613555
  91.9468636  62.3186544  89.9667566  92.6772025  62.0571832  90.5275269
  91.3375582  61.5815266  90.0069634  90.0283933  60.4594406  90.5642017
  89.3017097  60.3250371  89.9558509  89.6131220  60.7671235  91.3698735
  77.8514110  64.1784336  98.3289390  78.7717119  64.3562935  98.5229437
  77.8163693  63.2340381  98.1769090  76.1518334  58.0516566  76.8043619
  75.2449790  57.7549679  76.8806332  76.4294315  57.7546384  75.9377905
  67.0696275  59.3722930  87.2542665  66.7499059  58.5188238  86.9617039
  66.5229703  59.5871508  88.0100632  77.7680400  52.5953456  82.9587860
  76.9581128  52.2500541  83.3343106  78.4564817  52.2861000  83.5475471
  79.6970948  51.6731503  84.5812157  80.2501987  52.0926956  85.2402180
  79.9341035  50.7467251  84.6235113  75.7204047  57.6618576 100.3614920
  75.6200774  58.6112933 100.2927012  75.5025589  57.3336815  99.4890991
  74.9217119  54.9103501  76.9455598  75.7836283  55.2358400  77.2051415
  75.1067463  54.1234997  76.4328664  83.0749755  53.7832028  84.0890821
  82.4948424  54.4416832  83.7068873  82.8085688  52.9609373  83.6778238
  81.5253322  53.1837086  86.2912141  82.0253100  53.2953620  85.4826460
  82.1688930  52.8798139  86.9312950  75.5835317  61.0915715  99.1779982
  75.1002399  61.8916075  99.3843871  75.6696257  61.1023660  98.2247426
  72.1008037  63.5521366  93.7819214  72.9200926  64.0465445  93.8054051
  72.3744845  62.6353334  93.7536781  81.8574633  55.9432118  83.1447169
  80.9700488  56.2281769  82.9267364  82.2728622  55.7825882  82.2974446
  85.2089169  55.9678639  86.8601508  85.9849560  56.4575092  87.1326125
  84.4837304  56.3936694  87.3173378  87.6461728  56.6806259  87.9175449
  88.2406219  56.4401994  87.2068757  87.7188312  55.9613389  88.5448985
  81.0017847  65.7076793  77.2395189  81.7053697  65.9126796  77.8552845
  80.2780496  66.2753555  77.5044273  81.8315657  61.4586654  83.3597459
  81.7750858  61.9155206  82.5205092  82.3844000  60.6977339  83.1820302
  85.6420463  57.2476386  84.1847579  85.3857397  56.8473022  85.0155786
  85.0173331  57.9620180  84.0597718  89.9532801  59.9872459  86.6918870
  89.3932359  60.0565649  87.4650432  89.3476304  59.8113444  85.9718366
  82.9104544  66.1459322  79.2893649  83.7450148  65.7140521  79.1071124
  82.7488887  65.9741336  80.2170544  82.5650436  62.6491436  80.6549988
  82.5099240  62.4835707  79.7138433  81.9396492  63.3567468  80.8112178
  67.3542951  57.8859500  94.4811411  68.0001815  57.3758454  94.9698636
  67.1460102  58.6228182  95.0554836  79.8796344  64.9540347  99.9803551
  80.7487503  65.1281000  99.6190186  79.4003095  65.7734764  99.8579281
  75.8746562  52.1499545  80.2335307  75.8625232  53.0941384  80.3903578
  76.7669984  51.9669690  79.9394768  79.6898681  48.7442321  84.4881244
  78.9231077  48.1900808  84.6337926  80.1009386  48.8164190  85.3495395
  71.6940442  55.0327117  98.5786425  72.5571904  54.6763922  98.7889749
  71.1205853  54.6941012  99.2661829  91.5388819  76.6628973  89.3848826
  92.1767229  76.5435721  88.6812166  91.4209662  77.6109817  89.4436778
  88.3478526  76.6156401  89.3210351  88.0097037  76.4997466  88.4330885
  89.2168294  76.2147567  89.3011357  84.2065341  78.4691878  85.3107242
  83.6430206  78.3781815  84.5423529  84.0917736  77.6491782  85.7909734
  88.8298309  77.7691253  95.2796556  88.8186949  77.3744051  94.4077060
  88.9918948  77.0357326  95.8730328  81.7529773  79.9643069  88.1491462
  82.5451065  79.6233894  87.7337761  81.9926423  80.0738044  89.0693615
  89.7864900  82.1362846  80.6221706  89.1352880  82.7216926  80.2355720
  90.5809263  82.6669040  80.6816744  83.7120527  79.2251983  81.0208841
  84.4851403  78.6780970  80.8821717  84.0645926  80.0896232  81.2323302
  85.5505570  80.5528365  94.2275740  85.2595436  81.4573996  94.1122406
  86.1862554  80.5944893  94.9419810  86.4761777  77.9305213  90.8177100
  87.0725349  77.7061236  90.1034063  86.5336748  77.1889959  91.4202548
  86.0486805  75.3844649  78.6527291  86.3012326  74.8626170  77.8910754
  85.1111364  75.2210794  78.7553974  91.0930088  74.3880427  86.4602034
  91.8793177  73.9699850  86.1092451  91.3568792  75.2926519  86.6283682
  91.2640165  79.8253277  81.1590691  90.6285998  79.8987904  81.8711595
  90.9337572  80.4146876  80.4809770  96.4938515  74.3255660  87.3635012
  97.2263687  73.7554877  87.5972842  95.7377871  73.9377261  87.8041518
  85.7683094  77.2872755  80.8551666  85.6519352  76.6117658  81.5232750
  85.8785354  76.8005129  80.0383819  88.1114635  76.7482902  84.5598355
  87.7472842  76.2213523  85.2711276  88.9681751  76.3581371  84.3864840
  94.0163935  68.0377234  91.8229621  93.6847260  68.9072645  91.5990836
  93.4209549  67.7213518  92.5023651  87.7520122  71.7772802  79.5559703
  87.9194524  72.6453038  79.9230174  87.5617291  71.9400083  78.6320993
  90.5095455  80.2389780  91.2225534  90.2096178  81.1414819  91.1141341
  90.1646514  79.9721964  92.0746687  83.9607936  76.6903577  87.2562238
  83.0358433  76.5579791  87.4639930  84.2092349  77.4697797  87.7532181
  93.9092599  72.7572321  88.9022971  93.0009476  72.6887729  88.6081732
  93.8580194  73.2344266  89.7304797  87.7309342  74.2330459  80.5406370
  87.6108968  74.6787510  81.3791850  87.0361931  74.5815777  79.9819908
  81.3216747  76.3336851  88.0906027  81.4509128  76.5871330  89.0045439
  80.6414199  76.9264559  87.7710682  85.4916235  87.0034101  84.1896501
  85.4140264  87.9541926  84.2684982  84.8877878  86.6579973  84.8471428
  87.9833464  74.1761966  96.8457868  87.2066798  74.7355886  96.8360733
  88.6224027  74.6618749  97.3672738  95.7754245  70.9588759  90.6800845
  95.1328625  71.2521292  90.0340640  95.2709173  70.8441679  91.4854042
  93.4294409  74.7051932  81.3686704  94.3412265  74.9379319  81.1934402
  92.9204056  75.2888976  80.8061783  86.2379837  76.9847420  96.4075835
  86.9794521  77.5232464  96.1310659  85.5316822  77.6113708  96.5647387
  91.7135176  79.1276560  95.0047997  92.1218532  78.6858971  94.2602629
  90.9912438  78.5529188  95.2582190  88.0666246  74.0649167  92.3781554
  88.9127442  74.4888580  92.5216203  88.0064884  73.4082791  93.0720117
  92.0363991  79.6877751  88.7600286  91.4072853  79.8523465  88.0576354
  91.6489653  80.1019360  89.5311250  95.9153223  80.6232189  86.1144649
  95.2304261  81.0031090  85.5641683  95.9997072  81.2327515  86.8476597
  91.2165692  71.7253535  94.0362727  90.9726624  72.4795596  93.4997003
  91.4925622  72.1038883  94.8709974  93.1704154  78.2692148  92.7139993
  93.3821050  78.9123907  92.0374374  93.1233903  77.4354464  92.2461923
  90.7730383  70.8809968  89.6176565  89.9114862  71.1791222  89.9093303
  90.7992818  71.0980367  88.6857598  87.5891953  79.4252159  86.0250371
  88.0530298  79.7039862  85.2354993  87.3248751  78.5235603  85.8423461
  84.4816034  78.9723640  88.9630134  85.0517391  79.4010909  88.3247619
  85.0724146  78.6906225  89.6614320  86.5260839  75.5475311  82.8339936
  87.2284882  75.9996355  83.3013862  86.1941467  74.9059130  83.4619829
  84.9741200  74.1387068  97.2091145  84.3439861  74.8203349  97.4426542
  84.8677288  74.0270149  96.2644284  80.2686173  73.8058864  88.1357070
  79.4785227  74.0616392  87.6597180  80.7597420  74.6207202  88.2409110
  94.2849982  81.1464103  90.8862350  95.1067426  80.7444290  90.6045032
  94.2812385  81.0432337  91.8378466  82.2200918  74.1703443  85.0940546
  81.4232081  74.2822137  85.6124042  81.9926510  74.5090095  84.2281437
  88.0506586  80.6948146  93.0423061  88.1151018  81.1568554  93.8781233
  87.3417510  80.0645511  93.1705371  78.5523876  74.0589354  90.5672060
  78.8031914  74.9436364  90.8329636  79.0883424  73.8793956  89.7947152
 102.3755975  77.4902851  87.2347322 101.6219684  76.9210250  87.0791326
 102.5103517  77.4565516  88.1817957  87.7654603  82.3616254  82.9102041
  87.6300278  83.2067790  83.3386889  88.3064416  82.5635531  82.1467975
  84.2521943  68.4407834  99.5716396  83.8588889  67.8874032 100.2464041
  85.0688083  68.7518412  99.9622914  81.2184001  79.8791692  83.4829966
  81.7308521  80.6734942  83.6335531  81.8706714  79.1817982  83.4163568
  83.0278886  82.9957448  85.5652719  83.2045514  83.9175413  85.3773703
  83.8235719  82.6815867  85.9947099  87.1689904  69.8565713  97.1636653
  87.9099617  70.4572866  97.0841115  87.4007827  69.1143351  96.6054696
  82.3131242  75.0422080  95.4414883  82.1984757  74.1407337  95.7421982
  81.4575760  75.2885777  95.0899699  89.3923080  82.9839820  97.0402383
  88.9486934  82.1976199  96.7223288  90.0540293  83.1718971  96.3746274
  84.1510201  84.5135622  91.5663062  84.7017626  84.3852685  90.7940056
  83.3121677  84.8130511  91.2157955  91.4904318  83.2642620  95.0683785
  91.4722793  84.0851501  94.5764054  92.4124238  83.1396695  95.2933926
  87.9477372  80.7786750  95.9107293  88.4805709  80.0175038  95.6806601
  87.4191453  80.4860402  96.6531447  91.1147067  65.8846816  91.4400935
  90.7711336  66.7748457  91.3640045  91.4826030  65.6948473  90.5770520
  79.1832918  78.2080346  84.2589537  80.0208140  78.6177354  84.0423245
  79.3611185  77.2679788  84.2289731  91.0797350  75.8755427  79.9473370
  90.5643973  76.6460031  80.1861757  90.8074658  75.2020563  80.5706431
  88.6644461  70.7205128  85.0058608  87.8086057  70.3311978  84.8264247
  89.0771413  70.7997088  84.1458394  90.1943607  68.2551471  89.4050168
  89.6908403  68.2181606  88.5917973  90.4874214  69.1644214  89.4646825
  86.4386493  68.3390201  88.4116350  87.3039490  68.1433009  88.0522239
  86.5064002  68.1100552  89.3385706  96.0531624  78.6287781  81.8826543
  95.2761067  78.2898941  81.4381705  96.7323105  78.6340405  81.2081508
  90.8683653  73.7482519  81.7733151  90.5633789  74.0628668  82.6243294
  91.8214095  73.8263939  81.8160484  89.3130085  79.9072742  83.4226105
  88.7851446  79.1725502  83.1099342  88.8117588  80.6847419  83.1766073
  94.2922931  78.1021763  88.5393151  93.6346605  78.7921024  88.6273280
  95.0963330  78.4918195  88.8827138  84.0448812  70.5692408  85.7832716
  84.6192564  70.3467590  85.0505909  84.6319795  70.6381103  86.5361318
  93.1028390  76.4566135  86.5897093  93.6160271  77.0896127  87.0918803
  93.7529613  75.8567331  86.2240453  84.3718400  72.5996869  79.8028602
  83.5355712  72.9371556  80.1237876  84.2323169  72.4645849  78.8655739
  86.3471480  67.4433657  84.5107786  85.6935892  67.1282675  83.8864401
  86.3051954  66.8209398  85.2367609  87.4582685  77.7252952  76.4261078
  86.5509747  77.4942206  76.6252227  87.9553717  76.9290572  76.6135059
  90.3650764  86.4350460  79.3457764  89.6912463  86.7382156  79.9542722
  90.7516586  87.2379540  78.9963221  89.5809220  73.9315591  88.8355433
  88.6631782  74.1530538  88.6777122  89.9969364  74.0061901  87.9767141
  90.3644268  75.3307007  83.9658114  91.1116087  75.8428404  83.6565236
  90.6335858  75.0091059  84.8262507  88.6370918  77.8265547  80.9485068
  87.7282138  77.5424580  81.0457538  88.6666002  78.2464626  80.0888375
  93.8690186  81.4372137  84.7176236  93.4152513  80.5963047  84.7741426
  93.2384153  82.0733535  85.0551016  92.8123105  72.3664123  85.9476903
  92.0745862  71.8541509  86.2787146  93.0649879  71.9264504  85.1360180
  92.3123125  83.2748633  85.6526054  92.6046099  83.8353691  84.9338419
  92.8221746  83.5677194  86.4079213  92.9134733  65.1440375  86.5418672
  93.2193610  64.2837738  86.2544587  93.6387338  65.7357995  86.3417666
  79.2059089  75.5471061  84.9300270  79.0083489  74.9540422  84.2051337
  78.6505753  75.2423272  85.6476209  87.1855812  75.4394168  87.0494863
  87.2404422  74.4868004  86.9737340  86.3747014  75.5953607  87.5336162
  88.3347006  79.3674291  78.2873147  87.8966436  78.6510150  77.8278784
  89.0757447  79.5950406  77.7258238  85.1248172  74.0571228  84.8085242
  84.3116038  74.3565398  85.2150434  85.6207167  73.6626916  85.5259725
  87.2756750  84.0528985  86.7419507  87.2332929  84.2789831  85.8128039
  88.1919449  83.8192359  86.8905308  90.7222384  74.5213052  93.6400136
  91.0771772  74.7484525  94.4994602  91.3694515  74.8531429  93.0177391
  96.4520121  77.6431488  84.3449465  96.3138020  77.8333084  83.4170654
  96.0956340  78.4050871  84.8017516  84.6162247  71.6289583  90.4246477
  85.2561626  71.4878342  89.7269441  83.7839778  71.3424097  90.0485079
  96.4789501  79.7108015  89.3560737  96.9126007  79.6183304  90.2043791
  97.1921081  79.6865515  88.7180753  85.3922551  80.9292014  86.5381470
  86.1863150  80.4342334  86.3364045  84.6814243  80.4009877  86.1749175
  90.2117396  83.3110109  90.8893837  90.2654418  83.8801045  91.6571553
  89.3432177  83.4811994  90.5247874  81.7005314  75.0735095  82.6141222
  80.7702903  75.0119551  82.8311184  81.7962786  74.5511048  81.8177864
  81.6190864  71.5989908  85.2019464  81.8797681  72.5135241  85.0928624
  82.4408036  71.1314351  85.3516077  83.0915789  73.0127665  92.3718289
  83.7638842  72.8045027  91.7230937  82.2645575  72.8149751  91.9323521
  97.3405050  79.7531716  91.8893622  97.5340940  80.6577526  92.1352897
  97.2405668  79.2939135  92.7232207  88.9941361  69.6389606  94.3883949
  88.3469276  70.3379556  94.2948426  89.7642376  70.0725750  94.7560198
  92.4020159  79.9038458  97.4634503  92.2505665  79.6749010  96.5464586
  92.3924838  80.8609060  97.4765848  89.1705495  77.4770371  92.4480769
  90.0997555  77.6281531  92.2749736  88.7496525  77.5654392  91.5929416
  87.9693827  81.5021036  90.2179307  87.8304913  81.1339820  91.0905245
  87.1808423  82.0168675  90.0463265  88.5641979  86.6030132  81.5604843
  88.7393735  86.1318175  82.3750466  87.8774767  87.2295898  81.7886104
  89.5199042  80.8802638  87.6068145  89.1848875  80.8403408  88.5025794
  89.0202988  80.2147354  87.1338555  83.4943286  76.2870268  93.1320726
  83.3563084  75.5550507  93.7332265  84.4048210  76.1979168  92.8504913
  92.4558234  78.2258673  77.8805204  91.8387404  77.5005501  77.7838257
  91.9874722  78.9868033  77.5372278  86.1225587  75.9990228  92.6204405
  86.8325205  75.3583420  92.5791024  86.0794895  76.2503122  93.5430586
  94.1112365  82.9357581  95.5410985  94.0524912  82.2516801  94.8741568
  94.5131884  83.6776571  95.0891611  84.8354521  72.9855446  94.4400045
  84.2991878  72.5346184  95.0921641  84.2471229  73.1201354  93.6970509
  83.1303064  89.7519495  88.3344703  83.3699663  90.3838019  89.0123722
  82.2872261  89.4007535  88.6210063  84.2456780  72.4444097  77.0026508
  83.3686246  72.3232898  76.6388755  84.7214533  71.6530175  76.7505397
  94.1129773  80.8997165  93.7724964  93.2256552  80.5623087  93.8951363
  94.6828324  80.1680196  94.0093730  80.5693642  72.1211453  91.5253039
  80.4851831  71.5137123  90.7903449  79.7476348  72.6120472  91.5262536
  87.6430926  85.5598617  90.7386207  87.5701098  86.3653589  91.2505512
  87.2008319  85.7590583  89.9134229  87.4320706  84.7970387  84.2489029
  86.6488228  85.3392067  84.3427253  88.1313451  85.3144367  84.6483270
  90.7417356  70.6065017  86.8923234  91.2386055  69.8534979  86.5724305
  89.9704337  70.6429333  86.3266444  98.5947113  76.3105382  88.5341526
  98.5836990  77.1930098  88.1635459  97.7264493  75.9576933  88.3396063
  90.1029610  85.4585451  92.8944366  90.8157582  86.0932916  92.8220268
  89.6119638  85.5549317  92.0784368  91.8247137  79.3636704  84.4661658
  90.8903415  79.4838166  84.2966362  92.0023805  78.4609171  84.2021668
  87.3252325  72.7482400  86.6194919  86.9550112  72.1953440  87.3075825
  87.8211417  72.1440533  86.0669919  95.2119688  75.2054023  85.0011692
  95.6780140  76.0382015  84.9271995  95.6627188  74.7399005  85.7056950
  85.1541523  83.2079895  93.7149937  85.8550983  83.8416378  93.8679331
  84.6836638  83.5494626  92.9545576  93.2795919  81.5497845  81.9997844
  93.5555763  81.4354439  82.9091718  92.4100418  81.1515329  81.9610017
  93.1836351  67.5734610  89.0402593  92.2699430  67.8038837  89.2084800
  93.6129452  67.6573054  89.8916626  92.9542809  75.7624502  91.5402487
  92.3014259  76.0100410  90.8854940  93.3323189  74.9488640  91.2064965
  89.9149983  85.7984195  85.6430658  90.0972378  84.9805851  86.1058410
  90.7382969  86.0151888  85.2055548  90.2492149  84.7252381  82.9045706
  90.7779915  84.2144835  82.2915868  90.5120368  84.4094911  83.7691239
  89.0030382  76.5044313  98.0268524  88.3271019  76.4038443  98.6970900
  89.8258016  76.3483527  98.4904522  80.7509241  82.7416250  90.6481040
  81.3362678  81.9959938  90.7808944  80.5534080  83.0520207  91.5317704
  83.6047896  85.7767497  85.6643482  82.9358272  86.2613625  85.1807522
  83.4660766  86.0236718  86.5786861  87.7453165  87.8111241  92.2626140
  88.2971473  87.9742862  93.0275226  88.0859359  88.4015679  91.5906165
  82.7217658  70.1586391  92.8648025  82.7858985  71.0201221  92.4525423
  82.6584779  69.5460392  92.1320384  82.1969931  72.2309523  96.5121059
  82.8241970  71.8486600  97.1258584  81.3397850  72.0123725  96.8776752
  92.5964039  82.6372498  98.1174795  93.1403943  83.2502456  97.6229750
  92.0150884  83.1952077  98.6341808  78.9735474  74.0385952  82.4439414
  79.2688915  73.1296631  82.3906468  78.0723509  74.0173692  82.1220416
  90.8821552  85.7593216  89.2489823  90.7572692  84.9582956  88.7400768
  91.5400643  86.2539410  88.7603792  82.5029721  72.1141949  88.4266963
  81.7816306  72.7277916  88.2874436  83.2922976  72.6499714  88.3483609
  92.9456461  83.5602236  90.8769373  91.9986796  83.4407588  90.8047699
  93.2939234  82.6724734  90.9595634  85.3056034  69.4496375  94.7007615
  85.8290436  69.6958672  95.4633924  85.0868367  70.2816410  94.2810752
  80.7023315  71.7200050  82.5678739  80.3736021  70.8397429  82.3853845
  81.0562686  71.6647719  83.4555129  89.9502894  83.3554953  87.0773725
  89.8027856  82.4271660  87.2581295  90.7756388  83.3775043  86.5930800
  83.8165138  72.0073020  82.9354217  84.1561211  72.5358941  82.2132825
  84.2637259  72.3453426  83.7112784  93.5537016  84.1783511  88.1638598
  94.4783563  83.9726373  88.0263049  93.3852319  83.9299912  89.0727939
  86.5108579  70.3910070  92.3857285  86.1705400  69.5917883  92.7877965
  85.8047585  70.6911781  91.8134118  87.1625051  67.4759383  90.8384608
  87.9851120  67.0019861  90.7163498  87.4063114  68.2549867  91.3383294
  85.8033285  70.5047641  81.1347510  86.5241648  70.8828894  80.6311227
  85.1798590  71.2236518  81.2382488  89.9464408  71.2092790  82.0705842
  90.1628023  72.0917428  81.7694670  89.4658475  70.8179004  81.3411484
  84.6863630  74.1678503  88.6476587  84.5408210  74.4818806  89.5400868
  84.2088833  74.7863404  88.0947485  86.5460013  71.1581051  88.6957476
  86.5321581  70.2622145  88.3589774  87.2632441  71.1651715  89.3295762
  88.3986143  71.5918392  90.7410604  88.1403921  72.5135462  90.7394934
  87.8671184  71.1948826  91.4311068  93.3432332  84.6969179  83.5200689
  93.5169210  84.1315601  82.7674541  93.8361223  85.4970074  83.3380179
  79.1609292  76.7083848  91.5864248  78.6162760  77.4843656  91.7184522
  80.0388642  77.0554652  91.4283369  85.9496909  70.0395432  83.9645046
  86.0712820  69.1112078  84.1635934  85.6598951  70.0534118  83.0523362
  88.8188099  67.7250342  87.1011766  88.8409796  67.7889675  86.1463746
  89.2356158  66.8854851  87.2952272  99.1971723  77.4605602  85.1390989
  99.6402869  76.7112927  84.7410112  98.3198234  77.4515738  84.7564721
  94.3307505  84.0135943  80.6197587  95.0258409  84.6342636  80.8384902
  94.6730655  83.1631294  80.8949965  79.9475314  75.8353744  94.4794405
  79.2057050  75.9836379  95.0659035  79.6268058  76.0962010  93.6161154
  96.2298928  81.4635649  82.1484918  96.7550252  81.8022921  81.4234238
  96.1421280  80.5282664  81.9648053  87.8918976  85.3769722  94.2774795
  88.2006103  85.1318869  95.1497494  88.6894458  85.5816361  93.7893665
  87.9139588  87.5307632  86.5080171  87.4744579  87.0384011  87.2013028
  88.6647705  86.9880600  86.2672247  80.3931927  83.7219173  86.5104799
  81.2189947  83.4222945  86.1303443  80.0425979  82.9526795  86.9594588
  85.3613461  83.0745641  88.5802473  84.7393470  82.4116346  88.2804701
  86.0318327  83.1006773  87.8976121  78.5940532  81.6405499  87.4693733
  77.7572441  81.2127674  87.2877734  78.5664178  81.8337943  88.4064524
  85.4337988  71.5527429  98.1734979  85.4826144  72.4289552  97.7912749
  85.9760502  71.0104822  97.6006622  95.9192834  82.0968552  97.4536116
  95.1288377  82.0792691  96.9140615  95.6826188  82.6356846  98.2085153
  96.0390709  78.9461019  94.7668845  96.0888714  78.7811026  95.7084367
  95.9304632  78.0788278  94.3766725  84.9226967  81.6249564  82.0560933
  85.0715088  82.3085029  81.4027606  85.7293411  81.6054654  82.5710389
  93.3294471  74.9291947  96.0828151  94.2304334  74.7898412  95.7912149
  93.4042446  75.0946402  97.0226329  87.6637277  72.3058801  94.9281338
  86.7940586  72.5992368  94.6563926  87.8996757  72.8899246  95.6488601
  97.5408906  81.3657960  95.0110866  97.2493714  81.7287941  95.8474327
  96.9281037  80.6524968  94.8324198  98.7404588  78.9310840  87.5313436
  99.5751479  79.3700644  87.6950997  98.8763717  78.4549493  86.7121682
  95.7896094  76.4890575  93.4790924  96.2650215  76.6818221  92.6709775
  94.8661659  76.5449761  93.2334308  82.6779600  77.6514742  83.0622002
  82.4325642  76.7477072  83.2602213  82.8475515  77.6531892  82.1201480
  90.3676310  68.5238418  92.4446758  90.8858254  69.2599445  92.1193247
  90.0131443  68.8302412  93.2793517  81.9475248  73.3843100  80.5608164
  81.2544493  73.4587455  79.9048200  81.7027000  72.6203443  81.0829681
  90.6188905  64.9438701  87.9647655  90.8990658  64.2761890  88.5908081
  91.4039511  65.1367797  87.4522318  88.4222373  84.1197695  79.5272681
  87.8496340  84.7387882  79.0743153  88.9955167  84.6697057  80.0612603
  94.4897763  73.3656335  91.7119230  95.4415186  73.4654433  91.7331454
  94.3201213  72.5734603  92.2217314  92.5112142  70.4511918  91.8978631
  91.9162074  70.7316931  91.2025119  92.2261839  70.9405819  92.6695372
  91.6419633  84.4034845  80.6581263  92.5750306  84.3380407  80.8614139
  91.5542846  85.2391112  80.1995796  94.2707649  83.7200715  77.6185211
  94.1921281  83.3860579  78.5120969  95.0917316  84.2122483  77.6176683
  96.9685841  76.5862455  90.8261529  96.9362161  75.6478455  91.0121213
  97.5786464  76.6646491  90.0927354  88.8069172  75.4558508  76.8688733
  89.7528276  75.3264716  76.9377151  88.4283416  74.7173169  77.3458162
  97.1180329  73.3773498  90.8719813  96.6019378  72.5931955  90.6849741
  98.0020278  73.0492215  91.0366332  94.7791056  67.1214514  86.8315625
  94.5815877  66.8129602  87.7158957  95.3890762  67.8476153  86.9613555
 102.7862391  77.6478461  89.9667566 103.5165779  77.3863750  90.5275269
 102.1769336  76.9107183  90.0069634 100.8677688  75.7886324  90.5642017
 100.1410851  75.6542289  89.9558509 100.4524975  76.0963153  91.3698735
  88.6907864  79.5076254  98.3289390  89.6110874  79.6854853  98.5229437
  88.6557447  78.5632299  98.1769090  86.9912089  73.3808484  76.8043619
  86.0843544  73.0841597  76.8806332  87.2688070  73.0838302  75.9377905
  81.6869937  77.4177288  90.9712172  81.9055946  78.3494396  90.9900205
  82.0995710  77.0585263  91.7566975  88.6074154  67.9245374  82.9587860
  87.7974883  67.5792459  83.3343106  89.2958571  67.6152917  83.5475471
  90.5364703  67.0023420  84.5812157  91.0895741  67.4218874  85.2402180
  90.7734789  66.0759169  84.6235113  86.5597802  72.9910494 100.3614920
  86.4594529  73.9404851 100.2927012  86.3419344  72.6628733  99.4890991
  85.7610873  70.2395419  76.9455598  86.6230037  70.5650317  77.2051415
  85.9461217  69.4526915  76.4328664  77.7778289  78.3217759  89.2235787
  77.0841760  77.9071712  88.7105741  78.5251280  78.3638295  88.6269206
  93.9143510  69.1123946  84.0890821  93.3342179  69.7708750  83.7068873
  93.6479442  68.2901290  83.6778238  92.3647076  68.5129003  86.2912141
  92.8646855  68.6245538  85.4826460  93.0082684  68.2090056  86.9312950
  86.4229072  76.4207633  99.1779982  85.9396154  77.2207993  99.3843871
  86.5090011  76.4315578  98.2247426  79.6915032  78.2536013  87.1001801
  79.6685720  78.3523700  86.1483685  80.0015668  79.1001163  87.4218968
  82.3502409  80.3112168  91.2148416  83.3045663  80.2796110  91.1478347
  82.1514933  79.8502791  92.0298642  82.9401792  78.8813284  93.7819214
  83.7594681  79.3757362  93.8054051  83.2138599  77.9645252  93.7536781
  92.6968388  71.2724036  83.1447169  91.8094243  71.5573687  82.9267364
  93.1122377  71.1117799  82.2974446  96.0482924  71.2970557  86.8601508
  96.8243314  71.7867009  87.1326125  95.3231058  71.7228611  87.3173378
  98.4855483  72.0098176  87.9175449  99.0799973  71.7693912  87.2068757
  98.5582066  71.2905307  88.5448985  80.7052638  85.8531787  88.2318614
  80.5707106  85.0932188  87.6656612  80.2884701  86.5772687  87.7647403
  91.8411601  81.0368711  77.2395189  92.5447451  81.2418713  77.8552845
  91.1174250  81.6045473  77.5044273  92.6709412  76.7878572  83.3597459
  92.6144613  77.2447123  82.5205092  93.2237754  76.0269257  83.1820302
  96.4814217  72.5768304  84.1847579  96.2251152  72.1764939  85.0155786
  95.8567085  73.2912098  84.0597718 100.7926555  75.3164377  86.6918870
 100.2326113  75.3857566  87.4650432 100.1870059  75.1405362  85.9718366
  83.8621764  86.7501104  88.4437056  83.7454148  87.6946537  88.3415747
  83.0414210  86.4474666  88.8322856  93.7498299  81.4751240  79.2893649
  94.5843903  81.0432438  79.1071124  93.5882642  81.3033254  80.2170544
  93.4044191  77.9783353  80.6549988  93.3492995  77.8127625  79.7138433
  92.7790246  78.6859386  80.8112178  78.1936706  73.2151418  94.4811411
  78.8395569  72.7050372  94.9698636  77.9853857  73.9520099  95.0554836
  90.7190098  80.2832265  99.9803551  91.5881258  80.4572917  99.6190186
  90.2396850  81.1026682  99.8579281  86.7140316  67.4791462  80.2335307
  86.7018986  68.4233302  80.3903578  87.6063738  67.2961608  79.9394768
  84.8876278  87.4029366  91.6592985  85.7903525  87.4352976  91.9759480
  84.6613648  86.4729817  91.6739321  86.6429880  86.1560353  88.3203063
  85.6925511  86.1562214  88.2067436  86.9462366  85.4093087  87.8039098
  90.5292436  64.0734239  84.4881244  89.7624832  63.5192726  84.6337926
  90.9403141  64.1456108  85.3495395  82.5334197  70.3619035  98.5786425
  83.3965658  70.0055839  98.7889749  81.9599607  70.0232929  99.2661829
 102.3782574  91.9920891  89.3848826 103.0160984  91.8727638  88.6812166
 102.2603417  92.9401735  89.4436778  99.1872280  91.9448319  89.3210351
  98.8490792  91.8289384  88.4330885 100.0562048  91.5439484  89.3011357
  95.0459096  93.7983796  85.3107242  94.4823961  93.7073732  84.5423529
  94.9311491  92.9783700  85.7909734  99.6692063  93.0983171  95.2796556
  99.6580704  92.7035969  94.4077060  99.8312703  92.3649243  95.8730328
  92.5923528  95.2934987  88.1491462  93.3844820  94.9525812  87.7337761
  92.8320178  95.4029962  89.0693615 100.6258654  97.4654763  80.6221706
  99.9746634  98.0508844  80.2355720 101.4203017  97.9960958  80.6816744
  94.5514282  94.5543900  81.0208841  95.3245158  94.0072887  80.8821717
  94.9039680  95.4188150  81.2323302  96.3899324  95.8820283  94.2275740
  96.0989190  96.7865913  94.1122406  97.0256309  95.9236810  94.9419810
  97.3155531  93.2597131  90.8177100  97.9119103  93.0353154  90.1034063
  97.3730503  92.5181877  91.4202548  96.8880559  90.7136566  78.6527291
  97.1406080  90.1918088  77.8910754  95.9505119  90.5502712  78.7553974
 101.9323842  89.7172345  86.4602034 102.7186931  89.2991768  86.1092451
 102.1962547  90.6218437  86.6283682 102.1033920  95.1545195  81.1590691
 101.4679753  95.2279822  81.8711595 101.7731326  95.7438794  80.4809770
 107.3332269  89.6547578  87.3635012 108.0657441  89.0846795  87.5972842
 106.5771625  89.2669178  87.8041518  96.6076848  92.6164672  80.8551666
  96.4913106  91.9409576  81.5232750  96.7179108  92.1297046  80.0383819
  98.9508389  92.0774820  84.5598355  98.5866596  91.5505441  85.2711276
  99.8075505  91.6873289  84.3864840 104.8557690  83.3669152  91.8229621
 104.5241015  84.2364563  91.5990836 104.2603303  83.0505436  92.5023651
  98.5913876  87.1064719  79.5559703  98.7588278  87.9744956  79.9230174
  98.4011045  87.2692001  78.6320993 101.3489209  95.5681698  91.2225534
 101.0489932  96.4706737  91.1141341 101.0040269  95.3013881  92.0746687
  94.8001691  92.0195495  87.2562238  93.8752187  91.8871709  87.4639930
  95.0486104  92.7989714  87.7532181 104.7486353  88.0864238  88.9022971
 103.8403230  88.0179647  88.6081732 104.6973949  88.5636183  89.7304797
  98.5703097  89.5622377  80.5406370  98.4502722  90.0079428  81.3791850
  97.8755685  89.9107694  79.9819908  92.1610502  91.6628769  88.0906027
  92.2902883  91.9163247  89.0045439  91.4807953  92.2556477  87.7710682
  96.3309989 102.3326018  84.1896501  96.2534019 103.2833844  84.2684982
  95.7271633 101.9871891  84.8471428  98.8227219  89.5053884  96.8457868
  98.0460553  90.0647804  96.8360733  99.4617782  89.9910667  97.3672738
 106.6147999  86.2880677  90.6800845 105.9722380  86.5813210  90.0340640
 106.1102928  86.1733597  91.4854042 104.2688163  90.0343850  81.3686704
 105.1806019  90.2671237  81.1934402 103.7597810  90.6180894  80.8061783
  97.0773591  92.3139337  96.4075835  97.8188276  92.8524381  96.1310659
  96.3710577  92.9405626  96.5647387 102.5528931  94.4568478  95.0047997
 102.9612287  94.0150888  94.2602629 101.8306192  93.8821105  95.2582190
  98.9060001  89.3941085  92.3781554  99.7521196  89.8180498  92.5216203
  98.8458638  88.7374709  93.0720117 102.8757745  95.0169668  88.7600286
 102.2466608  95.1815383  88.0576354 102.4883408  95.4311278  89.5311250
 106.7546977  95.9524106  86.1144649 106.0698015  96.3323008  85.5641683
 106.8390827  96.5619433  86.8476597 102.0559446  87.0545453  94.0362727
 101.8120378  87.8087513  93.4997003 102.3319377  87.4330800  94.8709974
 104.0097909  93.5984065  92.7139993 104.2214804  94.2415825  92.0374374
 103.9627657  92.7646382  92.2461923 101.6124138  86.2101886  89.6176565
 100.7508617  86.5083139  89.9093303 101.6386573  86.4272285  88.6857598
  98.4285707  94.7544076  86.0250371  98.8924053  95.0331779  85.2354993
  98.1642505  93.8527521  85.8423461  95.3209788  94.3015558  88.9630134
  95.8911145  94.7302826  88.3247619  95.9117900  94.0198143  89.6614320
  97.3654593  90.8767229  82.8339936  98.0678637  91.3288272  83.3013862
  97.0335222  90.2351048  83.4619829  95.8134955  89.4678985  97.2091145
  95.1833615  90.1495266  97.4426542  95.7071043  89.3562067  96.2644284
  91.1079927  89.1350781  88.1357070  90.3178981  89.3908310  87.6597180
  91.5991175  89.9499119  88.2409110 105.1243737  96.4756021  90.8862350
 105.9461181  96.0736208  90.6045032 105.1206140  96.3724255  91.8378466
  93.0594673  89.4995361  85.0940546  92.2625836  89.6114055  85.6124042
  92.8320265  89.8382013  84.2281437  98.8900340  96.0240064  93.0423061
  98.9544773  96.4860471  93.8781233  98.1811264  95.3937429  93.1705371
  89.3917630  89.3881272  90.5672060  89.6425669  90.2728282  90.8329636
  89.9277179  89.2085873  89.7947152 113.2149730  92.8194769  87.2347322
 112.4613438  92.2502167  87.0791326 113.3497271  92.7857434  88.1817957
  98.6048358  97.6908171  82.9102041  98.4694033  98.5359707  83.3386889
  99.1458170  97.8927449  82.1467975  95.0915698  83.7699751  99.5716396
  94.6982643  83.2165950 100.2464041  95.9081838  84.0810330  99.9622914
  92.0577755  95.2083609  83.4829966  92.5702276  96.0026860  83.6335531
  92.7100468  94.5109900  83.4163568  93.8672640  98.3249366  85.5652719
  94.0439268  99.2467330  85.3773703  94.6629474  98.0107785  85.9947099
  98.0083659  85.1857630  97.1636653  98.7493372  85.7864784  97.0841115
  98.2401581  84.4435268  96.6054696  93.1524997  90.3713998  95.4414883
  93.0378512  89.4699255  95.7421982  92.2969514  90.6177694  95.0899699
 100.2316834  98.3131738  97.0402383  99.7880689  97.5268117  96.7223288
 100.8934048  98.5010888  96.3746274  94.9903956  99.8427540  91.5663062
  95.5411381  99.7144603  90.7940056  94.1515431 100.1422429  91.2157955
 102.3298072  98.5934538  95.0683785 102.3116548  99.4143419  94.5764054
 103.2517992  98.4688613  95.2933926  98.7871127  96.1078667  95.9107293
  99.3199463  95.3466956  95.6806601  98.2585208  95.8152319  96.6531447
 101.9540822  81.2138733  91.4400935 101.6105091  82.1040375  91.3640045
 102.3219784  81.0240391  90.5770520  90.0226672  93.5372264  84.2589537
  90.8601894  93.9469272  84.0423245  90.2004940  92.5971706  84.2289731
 101.9191104  91.2047344  79.9473370 101.4037728  91.9751949  80.1861757
 101.6468413  90.5312481  80.5706431  99.5038215  86.0497045  85.0058608
  98.6479812  85.6603896  84.8264247  99.9165167  86.1289006  84.1458394
 101.0337362  83.5843388  89.4050168 100.5302158  83.5473524  88.5917973
 101.3267969  84.4936131  89.4646825  97.2780248  83.6682118  88.4116350
  98.1433245  83.4724927  88.0522239  97.3457757  83.4392470  89.3385706
 106.8925378  93.9579699  81.8826543 106.1154821  93.6190859  81.4381705
 107.5716859  93.9632322  81.2081508 101.7077407  89.0774437  81.7733151
 101.4027543  89.3920586  82.6243294 102.6607850  89.1555856  81.8160484
 100.1523839  95.2364660  83.4226105  99.6245201  94.5017419  83.1099342
  99.6511342  96.0139336  83.1766073 105.1316685  93.4313680  88.5393151
 104.4740360  94.1212942  88.6273280 105.9357085  93.8210112  88.8827138
  94.8842567  85.8984326  85.7832716  95.4586319  85.6759508  85.0505909
  95.4713549  85.9673021  86.5361318 103.9422144  91.7858053  86.5897093
 104.4554026  92.4188045  87.0918803 104.5923368  91.1859249  86.2240453
  95.2112154  87.9288787  79.8028602  94.3749466  88.2663474  80.1237876
  95.0716924  87.7937767  78.8655739  97.1865235  82.7725575  84.5107786
  96.5329647  82.4574592  83.8864401  97.1445709  82.1501316  85.2367609
  98.2976439  93.0544870  76.4261078  97.3903501  92.8234124  76.6252227
  98.7947471  92.2582489  76.6135059 101.2044518 101.7642377  79.3457764
 100.5306217 102.0674074  79.9542722 101.5910340 102.5671458  78.9963221
 100.4202975  89.2607509  88.8355433  99.5025536  89.4822456  88.6777122
 100.8363119  89.3353819  87.9767141 101.2038023  90.6598924  83.9658114
 101.9509842  91.1720321  83.6565236 101.4729612  90.3382977  84.8262507
  99.4764673  93.1557465  80.9485068  98.5675892  92.8716498  81.0457538
  99.5059757  93.5756544  80.0888375 104.7083940  96.7664054  84.7176236
 104.2546267  95.9254964  84.7741426 104.0777907  97.4025453  85.0551016
 103.6516860  87.6956041  85.9476903 102.9139617  87.1833427  86.2787146
 103.9043633  87.2556422  85.1360180 103.1516880  98.6040551  85.6526054
 103.4439854  99.1645608  84.9338419 103.6615500  98.8969112  86.4079213
 103.7528487  80.4732293  86.5418672 104.0587364  79.6129656  86.2544587
 104.4781092  81.0649913  86.3417666  90.0452843  90.8762979  84.9300270
  89.8477243  90.2832340  84.2051337  89.4899507  90.5715189  85.6476209
  98.0249567  90.7686086  87.0494863  98.0798177  89.8159922  86.9737340
  97.2140769  90.9245525  87.5336162  99.1740761  94.6966209  78.2873147
  98.7360191  93.9802068  77.8278784  99.9151202  94.9242323  77.7258238
  95.9641927  89.3863145  84.8085242  95.1509792  89.6857316  85.2150434
  96.4600921  88.9918834  85.5259725  98.1150505  99.3820902  86.7419507
  98.0726684  99.6081749  85.8128039  99.0313204  99.1484277  86.8905308
 101.5616139  89.8504970  93.6400136 101.9165526  90.0776443  94.4994602
 102.2088270  90.1823347  93.0177391 107.2913875  92.9723406  84.3449465
 107.1531774  93.1625002  83.4170654 106.9350094  93.7342789  84.8017516
  95.4556002  86.9581501  90.4246477  96.0955381  86.8170260  89.7269441
  94.6233532  86.6716014  90.0485079 107.3183255  95.0399933  89.3560737
 107.7519762  94.9475222  90.2043791 108.0314836  95.0157433  88.7180753
  96.2316306  96.2583931  86.5381470  97.0256904  95.7634251  86.3364045
  95.5207998  95.7301794  86.1749175 101.0511150  98.6402027  90.8893837
 101.1048172  99.2092963  91.6571553 100.1825931  98.8103912  90.5247874
  92.5399069  90.4027013  82.6141222  91.6096657  90.3411469  82.8311184
  92.6356541  89.8802966  81.8177864  92.4584618  86.9281826  85.2019464
  92.7191435  87.8427159  85.0928624  93.2801790  86.4606268  85.3516077
  93.9309543  88.3419583  92.3718289  94.6032597  88.1336945  91.7230937
  93.1039330  88.1441669  91.9323521 108.1798805  95.0823633  91.8893622
 108.3734695  95.9869444  92.1352897 108.0799423  94.6231052  92.7232207
  99.8335115  84.9681524  94.3883949  99.1863030  85.6671474  94.2948426
 100.6036131  85.4017668  94.7560198 103.2413913  95.2330376  97.4634503
 103.0899420  95.0040928  96.5464586 103.2318593  96.1900978  97.4765848
 100.0099250  92.8062289  92.4480769 100.9391310  92.9573448  92.2749736
  99.5890280  92.8946310  91.5929416  98.8087582  96.8312953  90.2179307
  98.6698667  96.4631738  91.0905245  98.0202178  97.3460593  90.0463265
  99.4035733 101.9322050  81.5604843  99.5787489 101.4610093  82.3750466
  98.7168522 102.5587816  81.7886104 100.3592797  96.2094556  87.6068145
 100.0242629  96.1695326  88.5025794  99.8596742  95.5439272  87.1338555
  94.3337041  91.6162186  93.1320726  94.1956839  90.8842425  93.7332265
  95.2441964  91.5271086  92.8504913 103.2951988  93.5550590  77.8805204
 102.6781159  92.8297418  77.7838257 102.8268477  94.3159951  77.5372278
  96.9619341  91.3282145  92.6204405  97.6718960  90.6875338  92.5791024
  96.9188649  91.5795040  93.5430586 104.9506120  98.2649499  95.5410985
 104.8918666  97.5808719  94.8741568 105.3525638  99.0068489  95.0891611
  95.6748275  88.3147363  94.4400045  95.1385632  87.8638102  95.0921641
  95.0864984  88.4493272  93.6970509  93.9696819 105.0811412  88.3344703
  94.2093417 105.7129937  89.0123722  93.1266015 104.7299453  88.6210063
  95.0850534  87.7736015  77.0026508  94.2080001  87.6524815  76.6388755
  95.5608287  86.9822093  76.7505397 104.9523527  96.2289083  93.7724964
 104.0650306  95.8915004  93.8951363 105.5222078  95.4972114  94.0093730
  86.6052674  92.5613174  87.0968016  87.2923714  92.2474904  86.5089031
  86.4500803  93.4654539  86.8235267  91.4087397  87.4503371  91.5253039
  91.3245585  86.8429040  90.7903449  90.5870103  87.9412389  91.5262536
  98.4824681 100.8890535  90.7386207  98.4094852 101.6945506  91.2505512
  98.0402074 101.0882501  89.9134229  98.2714460 100.1262305  84.2489029
  97.4881982 100.6683985  84.3427253  98.9707205 100.6436285  84.6483270
 101.5811110  85.9356934  86.8923234 102.0779810  85.1826897  86.5724305
 100.8098092  85.9721251  86.3266444 109.4340868  91.6397300  88.5341526
 109.4230744  92.5222015  88.1635459 108.5658247  91.2868851  88.3396063
 100.9423364 100.7877369  92.8944366 101.6551336 101.4224834  92.8220268
 100.4513393 100.8841235  92.0784368 102.6640891  94.6928622  84.4661658
 101.7297170  94.8130084  84.2966362 102.8417560  93.7901088  84.2021668
  98.1646079  88.0774317  86.6194919  97.7943867  87.5245358  87.3075825
  98.6605172  87.4732451  86.0669919 106.0513442  90.5345941  85.0011692
 106.5173895  91.3673933  84.9271995 106.5020943  90.0690922  85.7056950
  95.9935278  98.5371812  93.7149937  96.6944737  99.1708295  93.8679331
  95.5230393  98.8786544  92.9545576 104.1189674  96.8789762  81.9997844
 104.3949517  96.7646357  82.9091718 103.2494172  96.4807247  81.9610017
 104.0230105  82.9026528  89.0402593 103.1093185  83.1330755  89.2084800
 104.4523207  82.9864972  89.8916626 103.7936564  91.0916420  91.5402487
 103.1408014  91.3392327  90.8854940 104.1716944  90.2780558  91.2064965
 100.7543738 101.1276113  85.6430658 100.9366132 100.3097769  86.1058410
 101.5776724 101.3443805  85.2055548 101.0885903 100.0544298  82.9045706
 101.6173669  99.5436753  82.2915868 101.3514123  99.7386828  83.7691239
  99.8424137  91.8336231  98.0268524  99.1664774  91.7330360  98.6970900
 100.6651771  91.6775445  98.4904522  91.5902996  98.0708167  90.6481040
  92.1756433  97.3251855  90.7808944  91.3927834  98.3812124  91.5317704
  94.4441651 101.1059415  85.6643482  93.7752026 101.5905543  85.1807522
  94.3054521 101.3528635  86.5786861  86.1820650  90.6413768  89.3685483
  86.2204750  90.1077358  90.1622601  85.6760943  90.1148973  88.7496460
  98.5846920 103.1403158  92.2626140  99.1365228 103.3034780  93.0275226
  98.9253113 103.7307596  91.5906165  93.5611413  85.4878308  92.8648025
  93.6252739  86.3493139  92.4525423  93.4978533  84.8752310  92.1320384
  93.0363685  87.5601441  96.5121059  93.6635724  87.1778518  97.1258584
  92.1791604  87.3415643  96.8776752  89.8129228  89.3677870  82.4439414
  90.1082669  88.4588548  82.3906468  88.9117264  89.3465609  82.1220416
 101.7215307 101.0885134  89.2489823 101.5966446 100.2874874  88.7400768
 102.3794398 101.5831327  88.7603792  93.3423475  87.4433866  88.4266963
  92.6210061  88.0569834  88.2874436  94.1316731  87.9791631  88.3483609
 103.7850215  98.8894154  90.8769373 102.8380551  98.7699505  90.8047699
 104.1332988  98.0016652  90.9595634  96.1449789  84.7788293  94.7007615
  96.6684190  85.0250589  95.4633924  95.9262122  85.6108328  94.2810752
  91.5417070  87.0491967  82.5678739  91.2129776  86.1689346  82.3853845
  91.8956440  86.9939636  83.4555129 100.7896649  98.6846870  87.0773725
 100.6421611  97.7563578  87.2581295 101.6150142  98.7066961  86.5930800
  94.6558893  87.3364937  82.9354217  94.9954965  87.8650859  82.2132825
  95.1031013  87.6745343  83.7112784 104.3930770  99.5075429  88.1638598
 105.3177318  99.3018290  88.0263049 104.2246074  99.2591830  89.0727939
  97.3502334  85.7201988  92.3857285  97.0099154  84.9209801  92.7877965
  96.6441340  86.0203699  91.8134118  98.0018805  82.8051300  90.8384608
  98.8244875  82.3311779  90.7163498  98.2456869  83.5841784  91.3383294
  96.6427040  85.8339559  81.1347510  97.3635402  86.2120812  80.6311227
  96.0192344  86.5528436  81.2382488 100.7858163  86.5384708  82.0705842
 101.0021777  87.4209346  81.7694670 100.3052230  86.1470921  81.3411484
  95.5257384  89.4970421  88.6476587  95.3801965  89.8110724  89.5400868
  95.0482588  90.1155321  88.0947485  97.3853767  86.4872969  88.6957476
  97.3715336  85.5914062  88.3589774  98.1026195  86.4943633  89.3295762
  99.2379898  86.9210309  90.7410604  98.9797676  87.8427380  90.7394934
  98.7064938  86.5240744  91.4311068 104.1826087 100.0261096  83.5200689
 104.3562964  99.4607519  82.7674541 104.6754978 100.8261991  83.3380179
  90.0003046  92.0375765  91.5864248  89.4556514  92.8135573  91.7184522
  90.8782396  92.3846570  91.4283369  96.7890663  85.3687349  83.9645046
  96.9106574  84.4403996  84.1635934  96.4992705  85.3826035  83.0523362
  99.6581853  83.0542260  87.1011766  99.6803550  83.1181593  86.1463746
 100.0749912  82.2146768  87.2952272 110.0365478  92.7897519  85.1390989
 110.4796624  92.0404845  84.7410112 109.1591988  92.7807656  84.7564721
 105.1701259  99.3427861  80.6197587 105.8652164  99.9634553  80.8384902
 105.5124409  98.4923212  80.8949965  90.7869068  91.1645662  94.4794405
  90.0450804  91.3128297  95.0659035  90.4661813  91.4253927  93.6161154
 107.0692682  96.7927566  82.1484918 107.5944006  97.1314839  81.4234238
 106.9815035  95.8574582  81.9648053  98.7312731 100.7061640  94.2774795
  99.0399857 100.4610787  95.1497494  99.5288213 100.9108278  93.7893665
  98.7533343 102.8599550  86.5080171  98.3138333 102.3675928  87.2013028
  99.5041460 102.3172517  86.2672247  91.2325682  99.0511090  86.5104799
  92.0583702  98.7514862  86.1303443  90.8819734  98.2818713  86.9594588
  96.2007215  98.4037559  88.5802473  95.5787224  97.7408264  88.2804701
  96.8712082  98.4298691  87.8976121  89.4334287  96.9697417  87.4693733
  88.5966195  96.5419591  87.2877734  89.4057932  97.1629860  88.4064524
  96.2731743  86.8819347  98.1734979  96.3219898  87.7581470  97.7912749
  96.8154257  86.3396740  97.6006622 106.8784463  94.2752936  94.7668845
 106.9282468  94.1102944  95.7084367 106.7698387  93.4080195  94.3766725
  95.7620722  96.9541482  82.0560933  95.9108842  97.6376946  81.4027606
  96.5687165  96.9346572  82.5710389 104.1688226  90.2583864  96.0828151
 105.0698088  90.1190329  95.7912149 104.2436200  90.4238319  97.0226329
  98.5031031  87.6350719  94.9281338  97.6334340  87.9284285  94.6563926
  98.7390511  88.2191164  95.6488601 108.3802660  96.6949878  95.0110866
 108.0887468  97.0579858  95.8474327 107.7674791  95.9816886  94.8324198
 109.5798342  94.2602758  87.5313436 110.4145234  94.6992562  87.6950997
 109.7157471  93.7841411  86.7121682 106.6289848  91.8182492  93.4790924
 107.1043970  92.0110139  92.6709775 105.7055414  91.8741678  93.2334308
  93.5173355  92.9806660  83.0622002  93.2719397  92.0768990  83.2602213
  93.6869270  92.9823810  82.1201480 101.2070065  83.8530336  92.4446758
 101.7252009  84.5891363  92.1193247 100.8525198  84.1594329  93.2793517
  92.7869003  88.7135017  80.5608164  92.0938247  88.7879372  79.9048200
  92.5420754  87.9495361  81.0829681 101.4582659  80.2730619  87.9647655
 101.7384413  79.6053808  88.5908081 102.2433266  80.4659714  87.4522318
  99.2616128  99.4489612  79.5272681  98.6890095 100.0679800  79.0743153
  99.8348921  99.9988974  80.0612603 105.3291517  88.6948253  91.7119230
 106.2808940  88.7946350  91.7331454 105.1594968  87.9026521  92.2217314
 103.3505897  85.7803836  91.8978631 102.7555829  86.0608849  91.2025119
 103.0655594  86.2697737  92.6695372 102.4813387  99.7326763  80.6581263
 103.4144060  99.6672324  80.8614139 102.3936600 100.5683029  80.1995796
 105.1101404  99.0492633  77.6185211 105.0315036  98.7152497  78.5120969
 105.9311071  99.5414401  77.6176683 107.8079595  91.9154372  90.8261529
 107.7755915  90.9770373  91.0121213 108.4180219  91.9938409  90.0927354
  99.6462926  90.7850425  76.8688733 100.5922031  90.6556633  76.9377151
  99.2677171  90.0465087  77.3458162 107.9574084  88.7065416  90.8719813
 107.4413132  87.9223872  90.6849741 108.8414032  88.3784132  91.0366332
 105.6184811  82.4506431  86.8315625 105.4209632  82.1421519  87.7158957
 106.2284516  83.1768070  86.9613555 113.6256145  92.9770379  89.9667566
 114.3559533  92.7155667  90.5275269 113.0163090  92.2399101  90.0069634
 111.7071442  91.1178242  90.5642017 110.9804606  90.9834207  89.9558509
 111.2918729  91.4255070  91.3698735  99.5301619  94.8368171  98.3289390
 100.4504628  95.0146770  98.5229437  99.4951202  93.8924217  98.1769090
  97.8305843  88.7100402  76.8043619  96.9237299  88.4133514  76.8806332
  98.1081824  88.4130220  75.9377905  88.7483784  90.0306765  87.2542665
  88.4286568  89.1772073  86.9617039  88.2017212  90.2455343  88.0100632
  92.5263691  92.7469206  90.9712172  92.7449701  93.6786314  90.9900205
  92.9389465  92.3877180  91.7566975  99.4467909  83.2537291  82.9587860
  98.6368637  82.9084376  83.3343106 100.1352326  82.9444835  83.5475471
 101.3758457  82.3315338  84.5812157 101.9289496  82.7510792  85.2402180
 101.6128544  81.4051086  84.6235113  97.3991556  88.3202412 100.3614920
  97.2988283  89.2696769 100.2927012  97.1813098  87.9920651  99.4890991
  96.6004628  85.5687337  76.9455598  97.4623792  85.8942235  77.2051415
  96.7854972  84.7818833  76.4328664  88.6172044  93.6509677  89.2235787
  87.9235515  93.2363629  88.7105741  89.3645035  93.6930213  88.6269206
 104.7537264  84.4415863  84.0890821 104.1735933  85.1000667  83.7068873
 104.4873197  83.6193208  83.6778238 103.2040831  83.8420921  86.2912141
 103.7040609  83.9537456  85.4826460 103.8476439  83.5381974  86.9312950
  97.2622826  91.7499551  99.1779982  96.7789908  92.5499911  99.3843871
  97.3483766  91.7607496  98.2247426  90.5308786  93.5827930  87.1001801
  90.5079474  93.6815618  86.1483685  90.8409423  94.4293081  87.4218968
  93.1896164  95.6404085  91.2148416  94.1439418  95.6088028  91.1478347
  92.9908688  95.1794709  92.0298642  93.7795546  94.2105201  93.7819214
  94.5988435  94.7049280  93.8054051  94.0532354  93.2937170  93.7536781
 103.5362142  86.6015954  83.1447169 102.6487997  86.8865604  82.9267364
 103.9516131  86.4409717  82.2974446 106.8876678  86.6262475  86.8601508
 107.6637069  87.1158927  87.1326125 106.1624813  87.0520529  87.3173378
 109.3249237  87.3390094  87.9175449 109.9193728  87.0985830  87.2068757
 109.3975821  86.6197224  88.5448985  91.5446393 101.1823705  88.2318614
  91.4100861 100.4224106  87.6656612  91.1278455 101.9064605  87.7647403
 102.6805356  96.3660628  77.2395189 103.3841206  96.5710631  77.8552845
 101.9568005  96.9337390  77.5044273 103.5103166  92.1170490  83.3597459
 103.4538367  92.5739041  82.5205092 104.0631508  91.3561174  83.1820302
 107.3207972  87.9060221  84.1847579 107.0644906  87.5056857  85.0155786
 106.6960840  88.6204015  84.0597718 111.6320310  90.6456295  86.6918870
 111.0719868  90.7149484  87.4650432 111.0263813  90.4697279  85.9718366
  94.7015519 102.0793022  88.4437056  94.5847903 103.0238454  88.3415747
  93.8807965 101.7766583  88.8322856 104.5892053  96.8043158  79.2893649
 105.4237657  96.3724356  79.1071124 104.4276396  96.6325171  80.2170544
 104.2437945  93.3075271  80.6549988 104.1886749  93.1419542  79.7138433
 103.6184001  94.0151304  80.8112178  89.0330460  88.5443335  94.4811411
  89.6789324  88.0342289  94.9698636  88.8247611  89.2812017  95.0554836
  97.5534071  82.8083380  80.2335307  97.5412741  83.7525220  80.3903578
  98.4457493  82.6253525  79.9394768  95.7270033 102.7321284  91.6592985
  96.6297279 102.7644894  91.9759480  95.5007403 101.8021735  91.6739321
  97.4823635 101.4852270  88.3203063  96.5319266 101.4854132  88.2067436
  97.7856121 100.7385005  87.8039098 101.3686190  79.4026157  84.4881244
 100.6018586  78.8484643  84.6337926 101.7796895  79.4748025  85.3495395
  93.3727951  85.6910952  98.5786425  94.2359413  85.3347757  98.7889749
  92.7993362  85.3524847  99.2661829 110.0266035 107.2740237  89.3210351
 109.6884546 107.1581301  88.4330885 110.8955803 106.8731402  89.3011357
 105.8852850 109.1275713  85.3107242 105.3217715 109.0365650  84.5423529
 105.7705245 108.3075618  85.7909734 103.4317282 110.6226905  88.1491462
 104.2238574 110.2817729  87.7337761 103.6713932 110.7321880  89.0693615
 105.3908036 109.8835818  81.0208841 106.1638912 109.3364805  80.8821717
 105.7433435 110.7480067  81.2323302 107.7274314 106.0428484  78.6527291
 107.9799835 105.5210005  77.8910754 106.7898873 105.8794630  78.7553974
 112.7717597 105.0464263  86.4602034 113.5580686 104.6283686  86.1092451
 113.0356301 105.9510355  86.6283682 112.9427674 110.4837113  81.1590691
 112.3073507 110.5571739  81.8711595 112.6125081 111.0730712  80.4809770
 118.1726024 104.9839496  87.3635012 118.9051196 104.4138713  87.5972842
 117.4165380 104.5961096  87.8041518 107.4470603 107.9456590  80.8551666
 107.3306861 107.2701493  81.5232750 107.5572863 107.4588964  80.0383819
 109.7902144 107.4066737  84.5598355 109.4260351 106.8797358  85.2711276
 110.6469260 107.0165206  84.3864840 115.6951444  98.6961070  91.8229621
 115.3634769  99.5656481  91.5990836 115.0997058  98.3797354  92.5023651
 109.4307631 102.4356637  79.5559703 109.5982033 103.3036873  79.9230174
 109.2404800 102.5983919  78.6320993 105.6395445 107.3487413  87.2562238
 104.7145942 107.2163627  87.4639930 105.8879858 108.1281632  87.7532181
 109.4096851 104.8914294  80.5406370 109.2896477 105.3371345  81.3791850
 108.7149440 105.2399612  79.9819908 103.0004256 106.9920686  88.0906027
 103.1296637 107.2455165  89.0045439 102.3201708 107.5848394  87.7710682
 115.1081918 105.3635768  81.3686704 116.0199774 105.5963154  81.1934402
 114.5991565 105.9472812  80.8061783 112.4517892 101.5393804  89.6176565
 111.5902371 101.8375057  89.9093303 112.4780327 101.7564202  88.6857598
 109.2679462 110.0835994  86.0250371 109.7317807 110.3623697  85.2354993
 109.0036260 109.1819439  85.8423461 106.1603543 109.6307476  88.9630134
 106.7304900 110.0594744  88.3247619 106.7511655 109.3490060  89.6614320
 108.2048348 106.2059147  82.8339936 108.9072391 106.6580190  83.3013862
 107.8728976 105.5642965  83.4619829 101.9473682 104.4642699  88.1357070
 101.1572736 104.7200228  87.6597180 102.4384929 105.2791037  88.2409110
 103.8988427 104.8287278  85.0940546 103.1019590 104.9405973  85.6124042
 103.6714019 105.1673931  84.2281437 100.2311385 104.7173190  90.5672060
 100.4819423 105.6020200  90.8329636 100.7670933 104.5377791  89.7947152
 109.4442112 113.0200089  82.9102041 109.3087787 113.8651625  83.3386889
 109.9851925 113.2219367  82.1467975 102.8971510 110.5375527  83.4829966
 103.4096030 111.3318777  83.6335531 103.5494223 109.8401818  83.4163568
 104.7066395 113.6541283  85.5652719 104.8833023 114.5759248  85.3773703
 105.5023228 113.3399703  85.9947099 112.7934576  96.5430651  91.4400935
 112.4498845  97.4332293  91.3640045 113.1613539  96.3532309  90.5770520
 100.8620427 108.8664181  84.2589537 101.6995649 109.2761190  84.0423245
 101.0398694 107.9263624  84.2289731 112.7584859 106.5339262  79.9473370
 112.2431482 107.3043867  80.1861757 112.4862167 105.8604398  80.5706431
 110.3431970 101.3788963  85.0058608 109.4873566 100.9895813  84.8264247
 110.7558922 101.4580924  84.1458394 111.8731116  98.9135306  89.4050168
 111.3695912  98.8765441  88.5917973 112.1661723  99.8228049  89.4646825
 108.1174002  98.9974036  88.4116350 108.9826999  98.8016845  88.0522239
 108.1851511  98.7684388  89.3385706 112.5471162 104.4066354  81.7733151
 112.2421297 104.7212503  82.6243294 113.5001604 104.4847774  81.8160484
 110.9917594 110.5656578  83.4226105 110.4638955 109.8309337  83.1099342
 110.4905096 111.3431254  83.1766073 105.7236321 101.2276244  85.7832716
 106.2980073 101.0051425  85.0505909 106.3107304 101.2964938  86.5361318
 114.7815899 107.1149971  86.5897093 115.2947780 107.7479963  87.0918803
 115.4317122 106.5151166  86.2240453 106.0505908 103.2580705  79.8028602
 105.2143221 103.5955391  80.1237876 105.9110678 103.1229685  78.8655739
 108.0258989  98.1017493  84.5107786 107.3723401  97.7866510  83.8864401
 107.9839463  97.4793233  85.2367609 109.1370194 108.3836788  76.4261078
 108.2297256 108.1526041  76.6252227 109.6341226 107.5874407  76.6135059
 111.2596729 104.5899426  88.8355433 110.3419291 104.8114373  88.6777122
 111.6756873 104.6645737  87.9767141 112.0431777 105.9890842  83.9658114
 112.7903596 106.5012239  83.6565236 112.3123367 105.6674895  84.8262507
 110.3158427 108.4849383  80.9485068 109.4069647 108.2008415  81.0457538
 110.3453511 108.9048461  80.0888375 114.4910614 103.0247958  85.9476903
 113.7533371 102.5125344  86.2787146 114.7437388 102.5848340  85.1360180
 114.5922242  95.8024210  86.5418672 114.8981118  94.9421574  86.2544587
 115.3174847  96.3941830  86.3417666 100.8846598 106.2054897  84.9300270
 100.6870998 105.6124257  84.2051337 100.3293262 105.9007107  85.6476209
 108.8643321 106.0978003  87.0494863 108.9191931 105.1451840  86.9737340
 108.0534523 106.2537442  87.5336162 110.0134515 110.0258126  78.2873147
 109.5753945 109.3093985  77.8278784 110.7544956 110.2534241  77.7258238
 106.8035681 104.7155063  84.8085242 105.9903547 105.0149234  85.2150434
 107.2994676 104.3210752  85.5259725 106.2949756 102.2873419  90.4246477
 106.9349135 102.1462178  89.7269441 105.4627287 102.0007932  90.0485079
 107.0710060 111.5875849  86.5381470 107.8650659 111.0926169  86.3364045
 106.3601752 111.0593712  86.1749175 103.3792823 105.7318931  82.6141222
 102.4490412 105.6703386  82.8311184 103.4750295 105.2094883  81.8177864
 103.2978373 102.2573744  85.2019464 103.5585190 103.1719077  85.0928624
 104.1195545 101.7898186  85.3516077 104.7703298 103.6711501  92.3718289
 105.4426351 103.4628863  91.7230937 103.9433084 103.4733587  91.9323521
 114.1345743 108.8842508  77.8805204 113.5174913 108.1589336  77.7838257
 113.6662231 109.6451868  77.5372278 105.9244289 103.1027932  77.0026508
 105.0473755 102.9816733  76.6388755 106.4002042 102.3114011  76.7505397
  97.4446429 107.8905092  87.0968016  98.1317469 107.5766822  86.5089031
  97.2894558 108.7946457  86.8235267 102.2481151 102.7795289  91.5253039
 102.1639340 102.1720958  90.7903449 101.4263857 103.2704307  91.5262536
 112.4204865 101.2648852  86.8923234 112.9173564 100.5118814  86.5724305
 111.6491846 101.3013169  86.3266444 113.5034646 110.0220539  84.4661658
 112.5690924 110.1422002  84.2966362 113.6811314 109.1193006  84.2021668
 109.0039834 103.4066235  86.6194919 108.6337621 102.8537275  87.3075825
 109.4998926 102.8024369  86.0669919 116.8907197 105.8637859  85.0011692
 117.3567649 106.6965850  84.9271995 117.3414697 105.3982840  85.7056950
 114.8623860  98.2318446  89.0402593 113.9486939  98.4622672  89.2084800
 115.2916961  98.3156890  89.8916626  97.0214405 105.9705685  89.3685483
  97.0598504 105.4369276  90.1622601  96.5154698 105.4440891  88.7496460
 104.4005167 100.8170226  92.8648025 104.4646494 101.6785057  92.4525423
 104.3372288 100.2044228  92.1320384 100.6522983 104.6969788  82.4439414
 100.9476424 103.7880466  82.3906468  99.7511018 104.6757527  82.1220416
 104.1817230 102.7725784  88.4266963 103.4603815 103.3861752  88.2874436
 104.9710485 103.3083549  88.3483609 102.3810824 102.3783885  82.5678739
 102.0523530 101.4981264  82.3853845 102.7350195 102.3231554  83.4555129
 105.4952647 102.6656855  82.9354217 105.8348720 103.1942776  82.2132825
 105.9424768 103.0037261  83.7112784 108.1896088 101.0493906  92.3857285
 107.8492908 100.2501719  92.7877965 107.4835094 101.3495617  91.8134118
 108.8412560  98.1343218  90.8384608 109.6638629  97.6603696  90.7163498
 109.0850623  98.9133702  91.3383294 107.4820794 101.1631477  81.1347510
 108.2029157 101.5412729  80.6311227 106.8586099 101.8820353  81.2382488
 111.6251917 101.8676626  82.0705842 111.8415532 102.7501263  81.7694670
 111.1445984 101.4762839  81.3411484 106.3651139 104.8262339  88.6476587
 106.2195719 105.1402642  89.5400868 105.8876342 105.4447239  88.0947485
 108.2247522 101.8164887  88.6957476 108.2109090 100.9205980  88.3589774
 108.9419950 101.8235550  89.3295762 110.0773652 102.2502227  90.7410604
 109.8191430 103.1719298  90.7394934 109.5458693 101.8532661  91.4311068
 100.8396801 107.3667683  91.5864248 100.2950269 108.1427491  91.7184522
 101.7176151 107.7138488  91.4283369 107.6284418 100.6979267  83.9645046
 107.7500329  99.7695913  84.1635934 107.3386460 100.7117953  83.0523362
 110.4975608  98.3834177  87.1011766 110.5197305  98.4473511  86.1463746
 110.9143667  97.5438686  87.2952272 102.0719436 114.3803008  86.5104799
 102.8977456 114.0806780  86.1303443 101.7213488 113.6110631  86.9594588
 100.2728041 112.2989335  87.4693733  99.4359950 111.8711509  87.2877734
 100.2451687 112.4921778  88.4064524 106.6014476 112.2833400  82.0560933
 106.7502597 112.9668864  81.4027606 107.4080920 112.2638490  82.5710389
 104.3567109 108.3098577  83.0622002 104.1113151 107.4060907  83.2602213
 104.5263024 108.3115728  82.1201480 112.0463819  99.1822254  92.4446758
 112.5645763  99.9183281  92.1193247 111.6918952  99.4886247  93.2793517
 103.6262757 104.0426935  80.5608164 102.9332002 104.1171290  79.9048200
 103.3814509 103.2787279  81.0829681 112.2976414  95.6022536  87.9647655
 112.5778167  94.9345725  88.5908081 113.0827020  95.7951632  87.4522318
 110.4856681 106.1142343  76.8688733 111.4315785 105.9848551  76.9377151
 110.1070925 105.3757005  77.3458162 116.4578565  97.7798349  86.8315625
 116.2603386  97.4713437  87.7158957 117.0678271  98.5059988  86.9613555
 108.6699598 104.0392319  76.8043619 107.7631053 103.7425432  76.8806332
 108.9475579 103.7422137  75.9377905  99.5877538 105.3598683  87.2542665
  99.2680322 104.5063991  86.9617039  99.0410966 105.5747261  88.0100632
 103.3657446 108.0761124  90.9712172 103.5843455 109.0078232  90.9900205
 103.7783219 107.7169098  91.7566975 110.2861663  98.5829209  82.9587860
 109.4762392  98.2376294  83.3343106 110.9746080  98.2736753  83.5475471
 112.2152212  97.6607256  84.5812157 112.7683250  98.0802709  85.2402180
 112.4522298  96.7343004  84.6235113 107.4398382 100.8979255  76.9455598
 108.3017546 101.2234153  77.2051415 107.6248726 100.1110750  76.4328664
  99.4565798 108.9801594  89.2235787  98.7629269 108.5655547  88.7105741
 100.2038789 109.0222131  88.6269206 115.5931019  99.7707781  84.0890821
 115.0129688 100.4292585  83.7068873 115.3266951  98.9485126  83.6778238
 114.0434585  99.1712839  86.2912141 114.5434363  99.2829373  85.4826460
 114.6870193  98.8673892  86.9312950 101.3702541 108.9119848  87.1001801
 101.3473229 109.0107535  86.1483685 101.6803177 109.7584999  87.4218968
 114.3755897 101.9307871  83.1447169 113.4881752 102.2157522  82.9267364
 114.7909886 101.7701635  82.2974446 117.7270433 101.9554392  86.8601508
 118.5030823 102.4450845  87.1326125 117.0018567 102.3812447  87.3173378
 120.1642992 102.6682012  87.9175449 120.7587482 102.4277748  87.2068757
 120.2369575 101.9489142  88.5448985 114.3496921 107.4462407  83.3597459
 114.2932122 107.9030959  82.5205092 114.9025263 106.6853092  83.1820302
 118.1601726 103.2352139  84.1847579 117.9038661 102.8348775  85.0155786
 117.5354594 103.9495933  84.0597718 115.0831700 108.6367189  80.6549988
 115.0280504 108.4711460  79.7138433 114.4577755 109.3443221  80.8112178
  99.8724215 103.8735253  94.4811411 100.5183078 103.3634207  94.9698636
  99.6641366 104.6103935  95.0554836 108.3927825  98.1375298  80.2335307
 108.3806495  99.0817137  80.3903578 109.2851247  97.9545443  79.9394768
 112.2079945  94.7318074  84.4881244 111.4412341  94.1776561  84.6337926
 112.6190650  94.8039943  85.3495395  44.9903509  -7.6949147  76.0455657
  44.6522020  -7.8108082  75.1576192  45.8593277  -8.0957982  76.0256663
  40.8490325  -5.8413670  72.0352548  40.2855190  -5.9323733  71.2668836
  40.7342720  -6.6613766  72.5155041  45.4723292  -6.5414295  82.0041863
  45.4611933  -6.9361497  81.1322366  45.6343931  -7.2748222  82.5975634
  38.3954756  -4.3462479  74.8736769  39.1876048  -4.6871654  74.4583068
  38.6351407  -4.2367504  75.7938922  46.4289883  -2.1742703  67.3467013
  45.7777863  -1.5888622  66.9601027  47.2234246  -1.6436508  67.4062051
  40.3545510  -5.0853565  67.7454147  41.1276386  -5.6324578  67.6067023
  40.7070909  -4.2209316  67.9568609  42.1930553  -3.7577183  80.9521047
  41.9020419  -2.8531552  80.8367713  42.8287537  -3.7160656  81.6665116
  43.1186760  -6.3800335  77.5422406  43.7150332  -6.6044312  76.8279369
  43.1761731  -7.1215589  78.1447854  42.6911788  -8.9260899  65.3772597
  42.9437309  -9.4479378  64.6156060  41.7536347  -9.0894754  65.4799281
  47.9065148  -4.4852271  67.8835997  47.2710981  -4.4117644  68.5956902
  47.5762555  -3.8958672  67.2055077  42.4108077  -7.0232793  67.5796972
  42.2944335  -7.6987890  68.2478057  42.5210337  -7.5100419  66.7629125
  44.7539618  -7.5622646  71.2843662  44.3897825  -8.0892025  71.9956583
  45.6106734  -7.9524177  71.1110147  47.1520438  -4.0715768  77.9470840
  46.8521161  -3.1690729  77.8386648  46.8071498  -4.3383584  78.7991993
  40.6032920  -7.6201971  73.9807545  39.6783416  -7.7525757  74.1885237
  40.8517333  -6.8407752  74.4777487  37.9641731  -7.9768697  74.8151334
  38.0934112  -7.7234218  75.7290746  37.2839182  -7.3840989  74.4955989
  42.1341218   2.6928553  70.9141808  42.0565248   3.6436378  70.9930289
  41.5302861   2.3474425  71.5716734  42.8804820  -7.3258129  83.1321142
  43.6219504  -6.7873085  82.8555966  42.1741805  -6.6991840  83.2892694
  48.3560160  -5.1828988  81.7293303  48.7643516  -5.6246578  80.9847936
  47.6337421  -5.7576361  81.9827496  48.6788974  -4.6227797  75.4845592
  48.0497837  -4.4582083  74.7821660  48.2914636  -4.2086188  76.2556556
  52.5578206  -3.6873360  72.8389956  51.8729244  -3.3074458  72.2886989
  52.6422055  -3.0778033  73.5721904  49.8129138  -6.0413401  79.4385300
  50.0246033  -5.3981641  78.7619681  49.7658886  -6.8751084  78.9707230
  44.2316936  -4.8853389  72.7495677  44.6955282  -4.6065686  71.9600300
  43.9673734  -5.7869945  72.5668768  41.1241017  -5.3381908  75.6875441
  41.6942374  -4.9094639  75.0492925  41.7149129  -5.6199323  76.3859626
  43.1685822  -8.7630237  69.5585243  43.8709866  -8.3109193  70.0259169
  42.8366451  -9.4046418  70.1865136  41.6166184 -10.1718480  83.9336452
  40.9864844  -9.4902199  84.1671849  41.5102272 -10.2835399  82.9889590
  50.9274966  -3.1641445  77.6107657  51.7492409  -3.5661258  77.3290339
  50.9237369  -3.2673211  78.5623773  44.6931569  -3.6157402  79.7668367
  44.7576002  -3.1536995  80.6026539  43.9842493  -4.2460037  79.8950677
  44.4079587  -1.9489294  69.6347348  44.2725262  -1.1037759  70.0632196
  44.9489399  -1.7470017  68.8713282  37.8608984  -4.4313856  70.2075273
  38.3733505  -3.6370606  70.3580838  38.5131697  -5.1287566  70.1408874
  39.6703869  -1.3148100  72.2898026  39.8470497  -0.3930135  72.1019010
  40.4660702  -1.6289681  72.7192406  46.0348063  -1.3265728  83.7647690
  45.5911917  -2.1129349  83.4468594  46.6965277  -1.1386577  83.0991581
  40.7935184   0.2030074  78.2908368  41.3442609   0.0747137  77.5185362
  39.9546660   0.5024963  77.9403261  48.1329301  -1.0462928  81.7929091
  48.1147777  -0.2254047  81.3009360  49.0549221  -1.1708853  82.0179232
  44.5902355  -3.5318798  82.6352600  45.1230692  -4.2930510  82.4051908
  44.0616436  -3.8245147  83.3776754  52.6956607  -5.6817767  68.6071850
  51.9186050  -6.0206607  68.1627012  53.3748088  -5.6765144  67.9326815
  45.9555068  -4.4032806  70.1471412  45.4276430  -5.1380046  69.8344649
  45.4542571  -3.6258130  69.9011380  50.9347914  -6.2083785  75.2638458
  50.2771589  -5.5184524  75.3518586  51.7388313  -5.8187354  75.6072444
  44.1007668  -6.5852596  63.1506385  43.1934730  -6.8163342  63.3497534
  44.5978700  -7.3814976  63.3380366  47.0075747   2.1244912  66.0703071
  46.3337446   2.4276608  66.6788029  47.3941569   2.9273992  65.7208528
  45.2795902  -6.4840001  67.6730375  44.3707121  -6.7680968  67.7702844
  45.3090986  -6.0640922  66.8133682  50.5115169  -2.8733411  71.4421542
  50.0577496  -3.7142501  71.4986733  49.8809136  -2.2372013  71.7796322
  48.9548108  -1.0356915  72.3771360  49.2471083  -0.4751858  71.6583726
  49.4646729  -0.7428354  73.1324519  44.9771990  -4.9431257  65.0118453
  44.5391419  -5.6595398  64.5524091  45.7182430  -4.7155142  64.4503545
  43.9181734  -0.2576564  73.4664814  43.8757912  -0.0315717  72.5373346
  44.8344432  -0.4913189  73.6150615  53.1214484  -4.5997533  76.0806043
  53.5550991  -4.6922244  76.9289097  53.8346065  -4.6240033  75.4426059
  42.0347534  -3.3813535  73.2626776  42.8288133  -3.8763214  73.0609351
  41.3239227  -3.9095671  72.8994482  46.8542379  -0.9995439  77.6139144
  46.9079401  -0.4304503  78.3816860  45.9857160  -0.8293554  77.2493181
  53.9830033  -4.5573832  78.6138929  54.1765924  -3.6528022  78.8598204
  53.8830652  -5.0166413  79.4477514  49.0445142  -4.4067090  84.1879809
  48.8930649  -4.6356538  83.2709893  49.0349822  -3.4496488  84.2011154
  45.8130479  -6.8335177  79.1726076  46.7422539  -6.6824017  78.9995043
  45.3921509  -6.7451156  78.3174722  44.6118810  -2.8084513  76.9424613
  44.4729896  -3.1765728  77.8150552  43.8233407  -2.2936873  76.7708571
  45.2066962   2.2924584  68.2850150  45.3818718   1.8212627  69.0995773
  44.5199750   2.9190350  68.5131411  46.1624025  -3.4302910  74.3313451
  45.8273858  -3.4702140  75.2271101  45.6627971  -4.0958194  73.8583861
  40.1368269  -8.0235280  79.8566032  39.9988067  -8.7555041  80.4577571
  41.0473193  -8.1126380  79.5750220  49.0983217  -6.0846875  64.6050511
  48.4812388  -6.8100047  64.5083564  48.6299706  -5.3237515  64.2617585
  42.7650570  -8.3115320  79.3449712  43.4750189  -8.9522128  79.3036330
  42.7219878  -8.0602426  80.2675893  50.7537349  -1.3747967  82.2656291
  50.6949895  -2.0588747  81.5986874  51.1556867  -0.6328977  81.8136917
  39.7728048   5.4413947  75.0590010  40.0124646   6.0732471  75.7369029
  38.9297244   5.0901987  75.3455369  50.7554756  -3.4108383  80.4970271
  49.8681535  -3.7482461  80.6196670  51.3253307  -4.1425352  80.7339036
  44.2855909   1.2493069  77.4631514  44.2126081   2.0548041  77.9750819
  43.8433303   1.4485035  76.6379535  44.0745689   0.4864839  70.9734336
  43.2913211   1.0286519  71.0672560  44.7738434   1.0038819  71.3728577
  46.7454593   1.1479903  79.6189673  47.4582565   1.7827368  79.5465574
  46.2544622   1.2443769  78.8029675  48.4672120  -4.9468844  71.1906964
  47.5328399  -4.8267382  71.0211669  48.6448788  -5.8496377  70.9266974
  41.7966507  -1.1025653  80.4395244  42.4975966  -0.4689170  80.5924638
  41.3261621  -0.7610922  79.6790883  49.9220902  -2.7607704  68.7243151
  50.1980746  -2.8751109  69.6337025  49.0525401  -3.1590219  68.6855324
  46.5574966   1.4878647  72.3675964  46.7397361   0.6700303  72.8303717
  47.3807952   1.7046340  71.9300854  46.8917132   0.4146832  69.6291013
  47.4204898  -0.0960713  69.0161175  47.1545351   0.0989363  70.4936546
  45.6455365  -7.8061235  84.7513831  44.9696003  -7.9067106  85.4216206
  46.4682999  -7.9622021  85.2149828  37.3934225  -1.5689298  77.3726346
  37.9787661  -2.3145610  77.5054250  37.1959063  -1.2585342  78.2563010
  40.2472880   1.4661949  72.3888789  39.5783255   1.9508077  71.9052829
  40.1085749   1.7131170  73.3032167  44.3878148   3.5005693  78.9871447
  44.9396456   3.6637314  79.7520532  44.7284342   4.0910130  78.3151472
  49.2389023  -1.6733050  84.8420101  49.7828927  -1.0603092  84.3475056
  48.6575868  -1.1153471  85.3587114  47.5246536   1.4487668  75.9735129
  47.3997675   0.6477408  75.4646075  48.1825627   1.9433861  75.4849099
  49.5881444  -0.7503312  77.6014679  48.6411780  -0.8697961  77.5293006
  49.9364217  -1.6380814  77.6840941  46.5927877  -0.9550596  73.8019031
  46.4452840  -1.8833888  73.9826602  47.4181371  -0.9330505  73.3176107
  50.1961999  -0.1322037  74.8883904  51.1208547  -0.3379175  74.7508355
  50.0277303  -0.3805636  75.7973246  41.3288613 -10.1427045  75.3721893
  41.1833194  -9.8286742  76.2646175  40.8513817  -9.5242144  74.8192792
  49.9857315   0.3863631  70.2445996  50.1594193  -0.1789947  69.4919848
  50.4786207   1.1864525  70.0625486  50.9732488  -0.2969605  67.3442894
  51.6683392   0.3237088  67.5630209  51.3155638  -1.1474254  67.6195272
  52.8723911  -2.8469899  68.8730225  53.3975235  -2.5082627  68.1479545
  52.7846264  -3.7822884  68.6893359  44.5343960   1.0664174  81.0020101
  44.8431086   0.8213321  81.8742801  45.3319442   1.2710813  80.5138972
  44.5564572   3.2202084  73.2325478  44.1169562   2.7278463  73.9258335
  45.3072689   2.6775051  72.9917553  37.0356911  -0.5886375  73.2350106
  37.8614931  -0.8882603  72.8548750  36.6850963  -1.3578753  73.6839895
  42.0038444  -1.2359907  75.3047780  41.3818453  -1.8989202  75.0050007
  42.6743311  -1.2098775  74.6221427  35.2365516  -2.6700049  74.1939040
  34.3997424  -3.0977874  74.0123041  35.2089161  -2.4767606  75.1309831
  52.5617817  -2.2136996  84.1781423  51.7713361  -2.2312857  83.6385922
  52.3251172  -1.6748702  84.9330459  52.6815692  -5.3644529  81.4914151
  52.7313697  -5.5294522  82.4329674  52.5729615  -6.2317270  81.1012032
  41.5651951  -2.6855984  68.7806240  41.7140071  -2.0020519  68.1272913
  42.3718394  -2.7050894  69.2955696  54.1833889  -2.9447588  81.7356173
  53.8918697  -2.5817607  82.5719634  53.5706020  -3.6580580  81.5569505
  39.3204584  -6.6590806  69.7867309  39.0750626  -7.5628476  69.9847519
  39.4900498  -6.6573656  68.8446787  45.0647356  -0.1907853  66.2517988
  44.4921323   0.4282334  65.7988459  45.6380150   0.3591508  66.7857909
  48.2844616   0.0929297  67.3826570  49.2175289   0.0274859  67.5859445
  48.1967829   0.9285564  66.9241102  50.9132633  -0.5904833  64.3430517
  50.8346264  -0.9244969  65.2366275  51.7342300  -0.0983065  64.3421990
  45.3332847  -4.8029294  85.0534697  46.2535857  -4.6250695  85.2474744
  45.2982430  -5.7473249  84.9014396  38.3294920  -6.8928260  77.6957478
  38.5480930  -5.9611152  77.7145512  38.7420694  -7.2520285  78.4812282
  43.0654055  -7.8897915  85.9025289  42.5821137  -7.0897555  86.1089178
  43.1514994  -7.8789970  84.9492733  36.3340015  -6.0569535  73.8247108
  36.3110703  -5.9581848  72.8728991  36.6440651  -5.2104385  74.1464274
  38.9927393  -3.9993380  77.9393723  39.9470646  -4.0309438  77.8723654
  38.7939916  -4.4602757  78.7543948  39.5826775  -5.4292264  80.5064520
  40.4019664  -4.9348186  80.5299357  39.8563583  -6.3460296  80.4782088
  37.3477622   1.5426239  74.9563920  37.2132089   0.7826640  74.3901918
  36.9309684   2.2667139  74.4892709  48.4836585  -3.2736837  63.9640496
  49.1872435  -3.0686835  64.5798151  47.7599233  -2.7060076  64.2289579
  40.5046747   2.4395556  75.1682363  40.3879132   3.3840989  75.0661053
  39.6839194   2.1369118  75.5568162  50.3923282  -2.8354308  66.0138956
  51.2268886  -3.2673110  65.8316431  50.2307625  -3.0072295  66.9415850
  50.0469174  -6.3322195  67.3795295  49.9917978  -6.4977923  66.4383739
  49.4215229  -5.6246162  67.5357485  47.3615081  -4.0273283  86.7048858
  48.2306241  -3.8532631  86.3435493  46.8821833  -3.2078866  86.5824587
  41.5301262   3.0923818  78.3838291  42.4328508   3.1247428  78.7004786
  41.3038632   2.1624269  78.3984627  43.2854864   1.8454805  75.0448370
  42.3350495   1.8456666  74.9312742  43.5887350   1.0987539  74.5284405
  59.0207557   7.6815343  76.1094133  59.6585967   7.5622090  75.4057473
  58.9028400   8.6296187  76.1682085  55.8297263   7.6342771  76.0455657
  55.4915775   7.5183836  75.1576192  56.6987032   7.2333936  76.0256663
  51.6884079   9.4878247  72.0352548  51.1248944   9.3968184  71.2668836
  51.5736474   8.6678152  72.5155041  56.3117046   8.7877623  82.0041863
  56.3005687   8.3930421  81.1322366  56.4737686   8.0543695  82.5975634
  49.2348511  10.9829439  74.8736769  50.0269803  10.6420264  74.4583068
  49.4745161  11.0924414  75.7938922  57.2683638  13.1549215  67.3467013
  56.6171618  13.7403296  66.9601027  58.0628001  13.6855410  67.4062051
  51.1939265  10.2438352  67.7454147  51.9670141   9.6967339  67.6067023
  51.5464664  11.1082602  67.9568609  53.0324307  11.5714735  80.9521047
  52.7414173  12.4760365  80.8367713  53.6681292  11.6131262  81.6665116
  53.9580514   8.9491583  77.5422406  54.5544087   8.7247605  76.8279369
  54.0155486   8.2076329  78.1447854  53.5305543   6.4031018  65.3772597
  53.7831063   5.8812540  64.6156060  52.5930102   6.2397164  65.4799281
  58.5748826   5.4066797  73.1847341  59.3611915   4.9886220  72.8337758
  58.8387530   6.3112889  73.3528989  58.7458903  10.8439647  67.8835997
  58.1104736  10.9174274  68.5956902  58.4156309  11.4333246  67.2055077
  63.9757253   5.3442030  74.0880319  64.7082425   4.7741247  74.3218149
  63.2196608   4.9563630  74.5286825  53.2501831   8.3059124  67.5796972
  53.1338090   7.6304028  68.2478057  53.3604091   7.8191498  66.7629125
  55.5933372   7.7669271  71.2843662  55.2291580   7.2399892  71.9956583
  56.4500488   7.3767740  71.1110147  61.4982673  -0.9436396  78.5474928
  61.1665998  -0.0740985  78.3236143  60.9028286  -1.2600112  79.2268958
  55.2338859   2.7959171  66.2805010  55.4013262   3.6639408  66.6475481
  55.0436028   2.9586453  65.3566299  57.9914193  11.2576150  77.9470840
  57.6914916  12.1601189  77.8386648  57.6465252  10.9908333  78.7991993
  51.4426674   7.7089947  73.9807545  50.5177171   7.5766161  74.1885237
  51.6911087   8.4884166  74.4777487  61.3911336   3.7758690  75.6268278
  60.4828214   3.7074099  75.3327039  61.3398932   4.2530635  76.4550103
  55.2128080   5.2516829  67.2651677  55.0927705   5.6973879  68.1037157
  54.5180669   5.6002146  66.7065215  48.8035485   7.3523220  74.8151334
  48.9327866   7.6057699  75.7290746  48.1232936   7.9450928  74.4955989
  52.9734972  18.0220470  70.9141808  52.8959002  18.9728295  70.9930289
  52.3696616  17.6766343  71.5716734  55.4652202   5.1948336  83.5703175
  54.6885536   5.7542256  83.5606040  56.1042765   5.6805119  84.0918045
  63.2572983   1.9775129  77.4046152  62.6147363   2.2707662  76.7585946
  62.7527911   1.8628049  78.2099348  60.9113146   5.7238302  68.0932011
  61.8231003   5.9565689  67.9179708  60.4022793   6.3075346  67.5307090
  53.7198574   8.0033789  83.1321142  54.4613259   8.5418833  82.8555966
  53.0135560   8.6300078  83.2892694  59.1953914  10.1462930  81.7293303
  59.6037270   9.7045340  80.9847936  58.4731176   9.5715557  81.9827496
  55.5484984   5.0835536  79.1026860  56.3946179   5.5074950  79.2461509
  55.4883622   4.4269161  79.7965424  59.5182729  10.7064120  75.4845592
  58.8891591  10.8709834  74.7821660  59.1308391  11.1205730  76.2556556
  63.3971961  11.6418558  72.8389956  62.7122999  12.0217459  72.2886989
  63.4815810  12.2513885  73.5721904  58.6984429   2.7439905  80.7608034
  58.4545361   3.4981965  80.2242310  58.9744360   3.1225252  81.5955281
  60.6522892   9.2878517  79.4385300  60.8639787   9.9310277  78.7619681
  60.6052640   8.4540834  78.9707230  58.2549121   1.8996338  76.3421872
  57.3933600   2.1977591  76.6338609  58.2811556   2.1166737  75.4102904
  55.0710691  10.4438528  72.7495677  55.5349036  10.7226231  71.9600300
  54.8067489   9.5421973  72.5668768  51.9634772   9.9910010  75.6875441
  52.5336129  10.4197278  75.0492925  52.5542884   9.7092595  76.3859626
  54.0079577   6.5661681  69.5585243  54.7103620   7.0182724  70.0259169
  53.6760205   5.9245500  70.1865136  52.4559938   5.1573437  83.9336452
  51.8258599   5.8389718  84.1671849  52.3496026   5.0456519  82.9889590
  47.7504911   4.8245233  74.8602376  46.9603965   5.0802762  74.3842487
  48.2416158   5.6393571  74.9654417  61.7668720  12.1650473  77.6107657
  62.5886164  11.7630660  77.3290339  61.7631123  12.0618707  78.5623773
  49.7019656   5.1889813  71.8185853  48.9050819   5.3008507  72.3369349
  49.4745248   5.5276465  70.9526743  55.5325324  11.7134516  79.7668367
  55.5969756  12.1754923  80.6026539  54.8236247  11.0831881  79.8950677
  46.0342614   5.0775724  77.2917367  46.2850652   5.9622734  77.5574943
  46.5702162   4.8980325  76.5192459  69.8574713   8.5089221  73.9592628
  69.1038422   7.9396619  73.8036633  69.9922254   8.4751886  74.9063263
  55.2473341  13.3802623  69.6347348  55.1119016  14.2254159  70.0632196
  55.7883154  13.5821901  68.8713282  51.7340681  -0.5405797  86.2961703
  51.3407626  -1.0939598  86.9709347  52.5506821  -0.2295218  86.6868221
  48.7002739  10.8978061  70.2075273  49.2127259  11.6921312  70.3580838
  49.3525451  10.2004352  70.1408874  50.5097623  14.0143818  72.2898026
  50.6864252  14.9361782  72.1019010  51.3054457  13.7002237  72.7192406
  54.6508642   0.8752082  83.8881960  55.3918355   1.4759235  83.8086422
  54.8826565   0.1329720  83.3300002  49.7949980   6.0608450  82.1660189
  49.6803495   5.1593707  82.4667288  48.9394498   6.3072146  81.8145006
  56.8741818  14.0026190  83.7647690  56.4305672  13.2162568  83.4468594
  57.5359031  14.1905340  83.0991581  51.6328939  15.5321991  78.2908368
  52.1836364  15.4039055  77.5185362  50.7940415  15.8316880  77.9403261
  58.9723056  14.2828990  81.7929091  58.9541531  15.1037871  81.3009360
  59.8942976  14.1583065  82.0179232  55.4296110  11.7973119  82.6352600
  55.9624447  11.0361407  82.4051908  54.9010191  11.5046771  83.3776754
  58.5965805  -3.0966815  78.1646241  58.2530074  -2.2065173  78.0885352
  58.9644767  -3.2865157  77.3015826  46.6651655   9.2266716  70.9834843
  47.5026877   9.6363724  70.7668551  46.8429923   8.2866158  70.9535037
  58.5616088   6.8941796  66.6718676  58.0462711   7.6646401  66.9107064
  58.2893396   6.2206932  67.2951738  56.1463199   1.7391497  71.7303915
  55.2904795   1.3498348  71.5509553  56.5590150   1.8183458  70.8703700
  57.6762345  -0.7262160  76.1295475  57.1727141  -0.7632024  75.3163280
  57.9692952   0.1830583  76.1892131  53.9205231  -0.6423430  75.1361656
  54.7858228  -0.8380621  74.7767546  53.9882740  -0.8713078  76.0631013
  63.5350362   9.6474151  68.6071850  62.7579804   9.3085310  68.1627012
  64.2141843   9.6526774  67.9326815  58.3502391   4.7668888  68.4978458
  58.0452526   5.0815038  69.3488601  59.3032833   4.8450308  68.5405791
  56.7948823  10.9259112  70.1471412  56.2670184  10.1911871  69.8344649
  56.2936325  11.7033788  69.9011380  61.7741669   9.1208132  75.2638458
  61.1165343   9.8107394  75.3518586  62.5782068   9.5104564  75.6072444
  51.5267550   1.5878778  72.5078023  52.1011302   1.3653960  71.7751216
  52.1138533   1.6567473  73.2606624  60.5847127   7.4752505  73.3142400
  61.0979009   8.1082497  73.8164109  61.2348351   6.8753700  72.9485760
  51.8537137   3.6183239  66.5273908  51.0174450   3.9557926  66.8483183
  51.7141907   3.4832219  65.5901045  53.8290218  -1.5379973  71.2353092
  53.1754630  -1.8530956  70.6109707  53.7870692  -2.1604233  71.9612915
  54.9401423   8.7439322  63.1506385  54.0328484   8.5128575  63.3497534
  55.4372455   7.9476941  63.3380366  57.8469502  17.4536829  66.0703071
  57.1731200  17.7568526  66.6788029  58.2335324  18.2565910  65.7208528
  57.0627958   4.9501960  75.5600740  56.1450520   5.1716907  75.4022428
  57.4788102   5.0248271  74.7012447  57.8463006   6.3493376  70.6903420
  58.5934825   6.8614773  70.3810542  58.1154596   6.0277429  71.5507814
  56.1189656   8.8451917  67.6730375  55.2100875   8.5610950  67.7702844
  56.1484740   9.2650995  66.8133682  61.3508924  12.4558506  71.4421542
  60.8971251  11.6149416  71.4986733  60.7202890  13.0919905  71.7796322
  60.2941843   3.3850492  72.6722210  59.5564600   2.8727879  73.0032452
  60.5468617   2.9450874  71.8605487  59.7941863  14.2935003  72.3771360
  60.0864837  14.8540060  71.6583726  60.3040483  14.5863564  73.1324519
  46.6877827   6.5657431  71.6545577  46.4902226   5.9726792  70.9296643
  46.1324491   6.2609641  72.3721516  54.6674550   6.4580537  73.7740170
  54.7223160   5.5054374  73.6982647  53.8565752   6.6139977  74.2581468
  55.8165744  10.3860661  65.0118453  55.3785174   9.6696519  64.5524091
  56.5576185  10.6136775  64.4503545  52.6066910   5.0757597  71.5330549
  51.7934776   5.3751768  71.9395741  53.1025904   4.6813286  72.2505031
  54.7575488  15.0715354  73.4664814  54.7151667  15.2976200  72.5373346
  55.6738187  14.8378729  73.6150615  58.2041122   5.5399422  80.3645443
  58.5590510   5.7670895  81.2239909  58.8513253   5.8717798  79.7422698
  63.9338859   8.6617858  71.0694772  63.7956757   8.8519454  70.1415961
  63.5775078   9.4237240  71.5262823  52.0980985   2.6475953  77.1491784
  52.7380364   2.5064712  76.4514747  51.2658515   2.3610466  76.7730386
  63.9608238  10.7294385  76.0806043  64.3944745  10.6369674  76.9289097
  64.6739819  10.7051885  75.4426059  52.8741289  11.9478383  73.2626776
  53.6681887  11.4528703  73.0609351  52.1632981  11.4196246  72.8994482
  57.6936133  14.3296479  77.6139144  57.7473156  14.8987415  78.3816860
  56.8250915  14.4998364  77.2493181  49.1824052   6.0921465  69.3386529
  48.2521640   6.0305920  69.5556491  49.2781524   5.5697418  68.5423170
  49.1009601   2.6176278  71.9264771  49.3616419   3.5321611  71.8173931
  49.9226774   2.1500720  72.0761383  50.5734527   4.0314035  79.0963595
  51.2457580   3.8231397  78.4476244  49.7464313   3.8336121  78.6568827
  64.8223788  10.7718085  78.6138929  65.0159678  11.6763896  78.8598204
  64.7224406  10.3125504  79.4477514  56.4760099   0.6575976  81.1129256
  55.8288014   1.3565925  81.0193732  57.2461114   1.0912120  81.4805504
  59.8838897  10.9224828  84.1879809  59.7324403  10.6935380  83.2709893
  59.8743576  11.8795429  84.2011154  56.6524233   8.4956741  79.1726076
  57.5816293   8.6467900  78.9995043  56.2315263   8.5840762  78.3174722
  55.4512565  12.5207405  76.9424613  55.3123651  12.1526190  77.8150552
  54.6627161  13.0355045  76.7708571  56.0460717  17.6216502  68.2850150
  56.2212472  17.1504545  69.0995773  55.3593505  18.2482268  68.5131411
  57.0017780  11.8989008  74.3313451  56.6667613  11.8589778  75.2271101
  56.5021726  11.2333724  73.8583861  50.9762024   7.3056638  79.8566032
  50.8381822   6.5736877  80.4577571  51.8866947   7.2165538  79.5750220
  59.9376972   9.2445042  64.6050511  59.3206142   8.5191870  64.5083564
  59.4693460  10.0054402  64.2617585  53.6044325   7.0176597  79.3449712
  54.3143943   6.3769789  79.3036330  53.5613633   7.2689492  80.2675893
  61.5931103  13.9543951  82.2656291  61.5343649  13.2703171  81.5986874
  61.9950622  14.6962941  81.8136917  52.3173259   4.0041815  81.1645351
  51.7810616   3.5532554  81.8166948  51.7289967   4.1387724  80.4215816
  50.6121802  20.7705864  75.0590010  50.8518400  21.4024389  75.7369029
  49.7690999  20.4193904  75.3455369  51.7275518   3.4630466  63.7271815
  50.8504984   3.3419267  63.3634062  52.2033271   2.6716545  63.4750704
  61.5948511  11.9183534  80.4970271  60.7075289  11.5809456  80.6196670
  62.1647062  11.1866566  80.7339036  43.2477658   8.2507626  73.8213322
  43.9348697   7.9369356  73.2334338  43.0925786   9.1548991  73.5480574
  48.0512380   3.1397823  78.2498346  47.9670569   2.5323492  77.5148756
  47.2295086   3.6306841  78.2507842  55.1249664  16.5784987  77.4631514
  55.0519835  17.3839958  77.9750819  54.6827057  16.7776953  76.6379535
  54.9139444  15.8156757  70.9734336  54.1306965  16.3578437  71.0672560
  55.6132189  16.3330736  71.3728577  58.2236094   1.6251386  73.6168541
  58.7204793   0.8721349  73.2969611  57.4523075   1.6615703  73.0511750
  66.0765851   7.3291752  75.2586833  66.0655727   8.2116467  74.8880766
  65.2083231   6.9763303  75.0641370  57.5848347  16.4771821  79.6189673
  58.2976320  17.1119286  79.5465574  57.0938376  16.5735687  78.8029675
  59.3065874  10.3823074  71.1906964  58.3722153  10.5024536  71.0211669
  59.4842543   9.4795540  70.9266974  54.8071062   3.7668769  73.3440226
  54.4368850   3.2139810  74.0321131  55.3030155   3.1626903  72.7915226
  62.6938426   6.2240393  71.7256999  63.1598878   7.0568384  71.6517301
  63.1445926   5.7585374  72.4302257  52.6360261  14.2266264  80.4395244
  53.3369720  14.8602747  80.5924638  52.1655376  14.5680996  79.6790883
  60.7614657  12.5684214  68.7243151  61.0374501  12.4540809  69.6337025
  59.8919156  12.1701699  68.6855324  60.6655088  -1.4079020  75.7647900
  59.7518168  -1.1774793  75.9330107  61.0948190  -1.3240576  76.6161932
  60.4361547   6.7810872  78.2647794  59.7832997   7.0286779  77.6100247
  60.8141927   5.9675010  77.9310271  57.3968721  16.8170565  72.3675964
  57.5791115  15.9992221  72.8303717  58.2201707  17.0338257  71.9300854
  57.7310886  15.7438750  69.6291013  58.2598653  15.2331205  69.0161175
  57.9939106  15.4281280  70.4936546  56.4849120   7.5230683  84.7513831
  55.8089757   7.4224812  85.4216206  57.3076754   7.3669897  85.2149828
  48.2327979  13.7602619  77.3726346  48.8181416  13.0146307  77.5054250
  48.0352818  14.0706576  78.2563010  51.0866634  16.7953867  72.3888789
  50.4177010  17.2799994  71.9052829  50.9479504  17.0423087  73.3032167
  42.8245634   6.3308220  76.0930789  42.8629733   5.7971810  76.8867907
  42.3185927   5.8043425  75.4741767  55.2271903  18.8297610  78.9871447
  55.7790211  18.9929232  79.7520532  55.5678096  19.4202048  78.3151472
  50.2036396   1.1772760  79.5893332  50.2677723   2.0387591  79.1770729
  50.1403516   0.5646762  78.8565690  49.6788669   3.2495893  83.2366366
  50.3060707   2.8672970  83.8503890  48.8216587   3.0310095  83.6022058
  60.0782777  13.6558868  84.8420101  60.6222681  14.2688826  84.3475056
  59.4969622  14.2138446  85.3587114  46.4554211   5.0572322  69.1684721
  46.7507652   4.1483000  69.1151774  45.5542247   5.0360061  68.8465723
  58.3640290  16.7779586  75.9735129  58.2391430  15.9769326  75.4646075
  59.0219381  17.2725779  75.4849099  49.9848458   3.1328318  75.1512269
  49.2635044   3.7464286  75.0119743  50.7741714   3.6686083  75.0728915
  60.4275199  14.5788606  77.6014679  59.4805534  14.4593957  77.5293006
  60.7757972  13.6911104  77.6840941  52.7874772   0.4682745  81.4252921
  53.3109174   0.7145041  82.1879230  52.5687105   1.3002780  81.0056058
  48.1842053   2.7386419  69.2924046  47.8554759   1.8583798  69.1099152
  48.5381424   2.6834088  70.1800435  57.4321632  14.3741322  73.8019031
  57.2846594  13.4458030  73.9826602  58.2575125  14.3961413  73.3176107
  51.2983876   3.0259389  69.6599524  51.6379949   3.5545310  68.9378132
  51.7455997   3.3639795  70.4358090  61.0355754  15.1969881  74.8883904
  61.9602301  14.9912742  74.7508355  60.8671057  14.9486282  75.7973246
  53.9927317   1.4096440  79.1102592  53.6524137   0.6104253  79.5123272
  53.2866323   1.7098151  78.5379425  54.6443789  -1.5054248  77.5629915
  55.4669858  -1.9793769  77.4408805  54.8881852  -0.7263764  78.0628601
  53.2852023   1.5234011  67.8592816  54.0060386   1.9015264  67.3556533
  52.6617327   2.2422888  67.9627794  57.4283146   2.2279160  68.7951149
  57.6446761   3.1103798  68.4939977  56.9477213   1.8365373  68.0656791
  52.1682368   5.1864873  75.3721893  52.0226948   5.5005176  76.2646175
  51.6907571   5.8049773  74.8192792  54.0278750   2.1767421  75.4202783
  54.0140319   1.2808514  75.0835081  54.7451179   2.1838085  76.0541069
  55.8804881   2.6104761  77.4655910  55.6222659   3.5321832  77.4640241
  55.3489921   2.2135196  78.1556374  60.8251070  15.7155548  70.2445996
  60.9987947  15.1501971  69.4919848  61.3179961  16.5156443  70.0625486
  46.6428030   7.7270217  78.3109554  46.0981498   8.5030025  78.4429829
  47.5207380   8.0741022  78.1528676  53.4315646   1.0581801  70.6890353
  53.5531558   0.1298447  70.8881240  53.1417689   1.0720487  69.7768668
  56.3006837  -1.2563288  73.8257073  56.3228534  -1.1923955  72.8709052
  56.7174896  -2.0958780  74.0197579  66.6790461   8.4791971  71.8636295
  67.1221607   7.7299296  71.4655419  65.8016971   8.4702108  71.4810027
  61.8126242  15.0322313  67.3442894  62.5077147  15.6529005  67.5630209
  62.1549393  14.1817664  67.6195272  47.4294052   6.8540114  81.2039711
  46.6875788   7.0022749  81.7904342  47.1086796   7.1148379  80.3406461
  63.7117665  12.4822018  68.8730225  64.2368990  12.8209291  68.1479545
  63.6240018  11.5469034  68.6893359  55.3737714  16.3956092  81.0020101
  55.6824841  16.1505239  81.8742801  56.1713196  16.6002730  80.5138972
  55.3958326  18.5494002  73.2325478  54.9563317  18.0570380  73.9258335
  56.1466443  18.0066969  72.9917553  47.8750665  14.7405542  73.2350106
  48.7008685  14.4409314  72.8548750  47.5244717  13.9713165  73.6839895
  52.8432198  14.0932011  75.3047780  52.2212208  13.4302716  75.0050007
  53.5137065  14.1193142  74.6221427  46.0759270  12.6591869  74.1939040
  45.2391179  12.2314043  74.0123041  46.0482916  12.8524312  75.1309831
  52.9156726   2.5713799  84.8980286  52.9644881   3.4475921  84.5158055
  53.4579240   2.0291192  84.3251929  63.4011572  13.1154922  84.1781423
  62.6107115  13.0979061  83.6385922  63.1644926  13.6543216  84.9330459
  63.5209447   9.9647388  81.4914151  63.5707452   9.7997396  82.4329674
  63.4123370   9.0974647  81.1012032  52.4045705  12.6435934  68.7806240
  52.5533826  13.3271398  68.1272913  53.2112149  12.6241024  69.2955696
  60.8113209   5.9478316  82.8073458  61.7123072   5.8084781  82.5157456
  60.8861184   6.1132771  83.7471635  55.1456014   3.3245171  81.6526644
  54.2759324   3.6178737  81.3809233  55.3815495   3.9085616  82.3733908
  65.0227643  12.3844330  81.7356173  64.7312452  12.7474310  82.5719634
  64.4099775  11.6711338  81.5569505  66.2223326   9.9497210  74.2558743
  67.0570217  10.3887014  74.4196303  66.3582455   9.4735863  73.4366989
  63.2714832   7.5076944  80.2036231  63.7468953   7.7004591  79.3955082
  62.3480397   7.5636130  79.9579614  50.1598338   8.6701112  69.7867309
  49.9144380   7.7663442  69.9847519  50.3294253   8.6718262  68.8446787
  57.8495048  -0.4575212  79.1692065  58.3676992   0.2785815  78.8438553
  57.4950181  -0.1511219  80.0038824  49.4293986   4.4029469  67.2853470
  48.7363231   4.4773824  66.6293506  49.1845738   3.6389813  67.8074987
  55.9041111  15.1384064  66.2517988  55.3315078  15.7574252  65.7988459
  56.4773904  15.6883426  66.7857909  61.9716501   4.3842704  78.4364536
  62.9233924   4.4840802  78.4576760  61.8019951   3.5920973  78.9462621
  59.9930880   1.4698288  78.6223937  59.3980812   1.7503300  77.9270426
  59.7080577   1.9592189  79.3940678  59.1238371  15.4221215  67.3826570
  60.0569044  15.3566776  67.5859445  59.0361583  16.2577481  66.9241102
  61.7526387  14.7387085  64.3430517  61.6740019  14.4046948  65.2366275
  62.5736054  15.2308853  64.3421990  64.4504578   7.6048824  77.5506836
  64.4180899   6.6664825  77.7366520  65.0605202   7.6832861  76.8172661
  56.2887909   6.4744877  63.5934040  57.2347014   6.3451085  63.6622458
  55.9102154   5.7359539  64.0703468  64.5999067   4.3959868  77.5965119
  64.0838116   3.6118324  77.4095048  65.4839015   4.0678584  77.7611639
  62.2609794  -1.8599117  73.5560932  62.0634615  -2.1684029  74.4404264
  62.8709499  -1.1337478  73.6858862  70.2681128   8.6664831  76.6912873
  70.9984517   8.4050119  77.2520576  69.6588074   7.9293553  76.7314941
  68.3496425   6.8072694  77.2887324  67.6229589   6.6728659  76.6803816
  67.9343712   7.1149522  78.0944042  56.1726602  10.5262623  85.0534697
  57.0929611  10.7041222  85.2474744  56.1376185   9.5818669  84.9014396
  54.4730826   4.3994854  63.5288925  53.5662282   4.1027966  63.6051639
  54.7506807   4.1024672  62.6623211  45.3908767   5.7201217  73.9787972
  45.0711551   4.8666525  73.6862346  44.8442195   5.9349795  74.7345939
  49.1688674   8.4363658  77.6957478  49.3874684   9.3680766  77.7145512
  49.5814448   8.0771632  78.4812282  56.0892892  -1.0568257  69.6833167
  55.2793621  -1.4021172  70.0588413  56.7777309  -1.3660713  70.2720778
  58.0183440  -1.9790210  71.3057463  58.5714479  -1.5594757  71.9647486
  58.2553527  -2.9054462  71.3480419  54.0416540   4.0096864  87.0860227
  53.9413267   4.9591221  87.0172318  53.8238082   3.6815103  86.2136297
  53.2429611   1.2581789  63.6700904  54.1048775   1.5836687  63.9296722
  53.4279955   0.4713285  63.1573970  45.2597027   9.3404128  75.9481093
  44.5660498   8.9258081  75.4351048  46.0070018   9.3824665  75.3514512
  61.3962248   0.1310315  70.8136127  60.8160917   0.7895119  70.4314180
  61.1298180  -0.6912340  70.4023545  59.8465814  -0.4684627  73.0157448
  60.3465592  -0.3568093  72.2071767  60.4901422  -0.7723574  73.6558256
  53.9047810   7.4394003  85.9025289  53.4214891   8.2394363  86.1089178
  53.9908749   7.4501947  84.9492733  47.1733769   9.2722382  73.8247108
  47.1504457   9.3710069  72.8728991  47.4834406  10.1187533  74.1464274
  49.8321147  11.3298537  77.9393723  50.7864401  11.2982480  77.8723654
  49.6333671  10.8689161  78.7543948  50.4220529   9.8999653  80.5064520
  51.2413418  10.3943732  80.5299357  50.6957337   8.9831621  80.4782088
  60.1787126   2.2910406  69.8692476  59.2912981   2.5760056  69.6512670
  60.5941115   2.1304169  69.0219753  63.5301662   2.3156927  73.5846815
  64.3062052   2.8053379  73.8571432  62.8049796   2.7414981  74.0418684
  65.9674220   3.0284546  74.6420756  66.5618711   2.7880282  73.9314064
  66.0400804   2.3091676  75.2694292  48.1871376  16.8718157  74.9563920
  48.0525844  16.1118558  74.3901918  47.7703438  17.5959057  74.4892709
  59.3230339  12.0555080  63.9640496  60.0266189  12.2605083  64.5798151
  58.5992988  12.6231842  64.2289579  60.1528149   7.8064942  70.0842766
  60.0963351   8.2633493  69.2450398  60.7056492   7.0455626  69.9065609
  63.9632955   3.5954673  70.9092885  63.7069889   3.1951309  71.7401093
  63.3385823   4.3098467  70.7843025  68.2745293   6.3350747  73.4164177
  67.7144851   6.4043936  74.1895739  67.6688796   6.1591731  72.6963673
  51.3440502  17.7687474  75.1682363  51.2272886  18.7132906  75.0661053
  50.5232948  17.4661035  75.5568162  61.2317036  12.4937609  66.0138956
  62.0662640  12.0618808  65.8316431  61.0701379  12.3219623  66.9415850
  60.8862929   8.9969723  67.3795295  60.8311732   8.8313994  66.4383739
  60.2608984   9.7045756  67.5357485  45.6755444   4.2337787  81.2056717
  46.3214307   3.7236741  81.6943942  45.4672595   4.9706469  81.7800143
  58.2008836  11.3018635  86.7048858  59.0699995  11.4759287  86.3435493
  57.7215587  12.1213051  86.5824587  54.1959054  -1.5022168  66.9580613
  54.1837724  -0.5580328  67.1148884  55.0882476  -1.6852023  66.6640075
  52.3695016  18.4215736  78.3838291  53.2722263  18.4539346  78.7004786
  52.1432386  17.4916187  78.3984627  54.1248618  17.1746722  75.0448370
  53.1744249  17.1748584  74.9312742  54.4281104  16.4279457  74.5284405
  50.0152935   1.3805404  85.3031731  50.8784396   1.0242209  85.5135056
  49.4418345   1.0419299  85.9907136  69.8601312  23.0107261  76.1094133
  70.4979722  22.8914008  75.4057473  69.7422154  23.9588105  76.1682085
  66.6691018  22.9634689  76.0455657  66.3309529  22.8475753  75.1576192
  67.5380786  22.5625854  76.0256663  62.5277834  24.8170165  72.0352548
  61.9642699  24.7260102  71.2668836  62.4130229  23.9970070  72.5155041
  67.1510801  24.1169540  82.0041863  67.1399442  23.7222339  81.1322366
  67.3131440  23.3835613  82.5975634  60.0742265  26.3121357  74.8736769
  60.8663557  25.9712181  74.4583068  60.3138916  26.4216332  75.7938922
  62.0333019  25.5730270  67.7454147  62.8063895  25.0259257  67.6067023
  62.3858418  26.4374519  67.9568609  63.8718062  26.9006652  80.9521047
  63.5807928  27.8052283  80.8367713  64.5075046  26.9423180  81.6665116
  64.7974269  24.2783501  77.5422406  65.3937841  24.0539523  76.8279369
  64.8549240  23.5368246  78.1447854  64.3699297  21.7322936  65.3772597
  64.6224818  21.2104457  64.6156060  63.4323856  21.5689081  65.4799281
  69.4142580  20.7358714  73.1847341  70.2005669  20.3178138  72.8337758
  69.6781284  21.6404807  73.3528989  69.5852657  26.1731565  67.8835997
  68.9498490  26.2466191  68.5956902  69.2550064  26.7625164  67.2055077
  74.8151007  20.6733948  74.0880319  75.5476179  20.1033164  74.3218149
  74.0590363  20.2855548  74.5286825  64.0895586  23.6351042  67.5796972
  63.9731844  22.9595945  68.2478057  64.1997846  23.1483416  66.7629125
  66.4327127  23.0961189  71.2843662  66.0685334  22.5691810  71.9956583
  67.2894243  22.7059658  71.1110147  72.3376428  14.3855522  78.5474928
  72.0059752  15.2550933  78.3236143  71.7422041  14.0691806  79.2268958
  66.0732614  18.1251089  66.2805010  66.2407016  18.9931325  66.6475481
  65.8829783  18.2878371  65.3566299  68.8307947  26.5868068  77.9470840
  68.5308670  27.4893107  77.8386648  68.4859007  26.3200251  78.7991993
  62.2820429  23.0381865  73.9807545  61.3570925  22.9058079  74.1885237
  62.5304842  23.8176084  74.4777487  72.2305091  19.1050608  75.6268278
  71.3221968  19.0366016  75.3327039  72.1792687  19.5822553  76.4550103
  66.0521835  20.5808746  67.2651677  65.9321460  21.0265797  68.1037157
  65.3574423  20.9294064  66.7065215  59.6429240  22.6815138  74.8151334
  59.7721621  22.9349617  75.7290746  58.9626691  23.2742846  74.4955989
  66.3045957  20.5240253  83.5703175  65.5279291  21.0834174  83.5606040
  66.9436520  21.0097036  84.0918045  74.0966737  17.3067046  77.4046152
  73.4541117  17.5999579  76.7585946  73.5921666  17.1919967  78.2099348
  71.7506901  21.0530219  68.0932011  72.6624757  21.2857606  67.9179708
  71.2416548  21.6367264  67.5307090  64.5592329  23.3325707  83.1321142
  65.3007013  23.8710751  82.8555966  63.8529314  23.9591996  83.2892694
  70.0347669  25.4754847  81.7293303  70.4431025  25.0337258  80.9847936
  69.3124930  24.9007475  81.9827496  66.3878739  20.4127454  79.1026860
  67.2339934  20.8366868  79.2461509  66.3277376  19.7561078  79.7965424
  70.3576483  26.0356038  75.4845592  69.7285346  26.2001752  74.7821660
  69.9702145  26.4497647  76.2556556  74.2365715  26.9710476  72.8389956
  73.5516753  27.3509377  72.2886989  74.3209564  27.5805802  73.5721904
  69.5378184  18.0731822  80.7608034  69.2939116  18.8273883  80.2242310
  69.8138114  18.4517170  81.5955281  71.4916647  24.6170435  79.4385300
  71.7033542  25.2602195  78.7619681  71.4446395  23.7832751  78.9707230
  69.0942876  17.2288255  76.3421872  68.2327355  17.5269509  76.6338609
  69.1205310  17.4458654  75.4102904  65.9104445  25.7730446  72.7495677
  66.3742791  26.0518149  71.9600300  65.6461243  24.8713891  72.5668768
  62.8028526  25.3201928  75.6875441  63.3729883  25.7489196  75.0492925
  63.3936638  25.0384512  76.3859626  64.8473331  21.8953598  69.5585243
  65.5497374  22.3474642  70.0259169  64.5153960  21.2537417  70.1865136
  63.2953693  20.4865355  83.9336452  62.6652353  21.1681636  84.1671849
  63.1889781  20.3748437  82.9889590  58.5898665  20.1537151  74.8602376
  57.7997719  20.4094680  74.3842487  59.0809912  20.9685489  74.9654417
  72.6062475  27.4942390  77.6107657  73.4279918  27.0922578  77.3290339
  72.6024878  27.3910624  78.5623773  60.5413410  20.5181730  71.8185853
  59.7444574  20.6300425  72.3369349  60.3139003  20.8568383  70.9526743
  66.3719078  27.0426434  79.7668367  66.4363511  27.5046841  80.6026539
  65.6630002  26.4123798  79.8950677  56.8736368  20.4067642  77.2917367
  57.1244406  21.2914651  77.5574943  57.4095916  20.2272243  76.5192459
  80.6968468  23.8381139  73.9592628  79.9432176  23.2688537  73.8036633
  80.8316009  23.8043803  74.9063263  62.5734435  14.7886121  86.2961703
  62.1801381  14.2352319  86.9709347  63.3900576  15.0996699  86.6868221
  59.5396493  26.2269979  70.2075273  60.0521014  27.0213229  70.3580838
  60.1919206  25.5296270  70.1408874  61.3491378  29.3435735  72.2898026
  61.5258006  30.2653700  72.1019010  62.1448211  29.0294155  72.7192406
  65.4902396  16.2044000  83.8881960  66.2312110  16.8051153  83.8086422
  65.7220319  15.4621638  83.3300002  60.6343734  21.3900367  82.1660189
  60.5197250  20.4885624  82.4667288  59.7788252  21.6364064  81.8145006
  67.7135572  29.3318108  83.7647690  67.2699426  28.5454486  83.4468594
  68.3752786  29.5197258  83.0991581  62.4722693  30.8613909  78.2908368
  63.0230118  30.7330972  77.5185362  61.6334169  31.1608798  77.9403261
  69.8116810  29.6120907  81.7929091  69.7935286  30.4329789  81.3009360
  70.7336730  29.4874983  82.0179232  66.2689864  27.1265037  82.6352600
  66.8018201  26.3653325  82.4051908  65.7403945  26.8338689  83.3776754
  69.4359559  12.2325103  78.1646241  69.0923829  13.1226745  78.0885352
  69.8038522  12.0426761  77.3015826  57.5045410  24.5558633  70.9834843
  58.3420632  24.9655642  70.7668551  57.6823678  23.6158076  70.9535037
  69.4009842  22.2233714  66.6718676  68.8856465  22.9938319  66.9107064
  69.1287150  21.5498850  67.2951738  66.9856953  17.0683415  71.7303915
  66.1298549  16.6790265  71.5509553  67.3983905  17.1475376  70.8703700
  68.5156100  14.6029758  76.1295475  68.0120895  14.5659893  75.3163280
  68.8086707  15.5122501  76.1892131  64.7598986  14.6868488  75.1361656
  65.6251982  14.4911296  74.7767546  64.8276495  14.4578840  76.0631013
  74.3744116  24.9766069  68.6071850  73.5973559  24.6377228  68.1627012
  75.0535597  24.9818692  67.9326815  69.1896145  20.0960806  68.4978458
  68.8846281  20.4106955  69.3488601  70.1426587  20.1742226  68.5405791
  67.6342577  26.2551029  70.1471412  67.1063939  25.5203789  69.8344649
  67.1330080  27.0325706  69.9011380  72.6135423  24.4500050  75.2638458
  71.9559098  25.1399311  75.3518586  73.4175822  24.8396482  75.6072444
  62.3661305  16.9170696  72.5078023  62.9405057  16.6945877  71.7751216
  62.9532287  16.9859390  73.2606624  71.4240882  22.8044423  73.3142400
  71.9372764  23.4374414  73.8164109  72.0742106  22.2045618  72.9485760
  62.6930892  18.9475157  66.5273908  61.8568204  19.2849843  66.8483183
  62.5535661  18.8124137  65.5901045  64.6683972  13.7911945  71.2353092
  64.0148385  13.4760962  70.6109707  64.6264447  13.1687685  71.9612915
  65.7795177  24.0731240  63.1506385  64.8722239  23.8420493  63.3497534
  66.2766209  23.2768859  63.3380366  67.9021713  20.2793878  75.5600740
  66.9844274  20.5008825  75.4022428  68.3181856  20.3540189  74.7012447
  68.6856761  21.6785294  70.6903420  69.4328579  22.1906691  70.3810542
  68.9548350  21.3569347  71.5507814  66.9583411  24.1743835  67.6730375
  66.0494630  23.8902867  67.7702844  66.9878494  24.5942913  66.8133682
  72.1902678  27.7850424  71.4421542  71.7365005  26.9441334  71.4986733
  71.5596645  28.4211822  71.7796322  71.1335598  18.7142410  72.6722210
  70.3958354  18.2019796  73.0032452  71.3862371  18.2742792  71.8605487
  70.6335617  29.6226921  72.3771360  70.9258592  30.1831978  71.6583726
  71.1434238  29.9155482  73.1324519  71.2347225  11.4918662  73.2663979
  71.5406102  10.6316026  72.9789894  71.9599830  12.0836282  73.0662973
  57.5271581  21.8949349  71.6545577  57.3295981  21.3018709  70.9296643
  56.9718245  21.5901559  72.3721516  65.5068305  21.7872455  73.7740170
  65.5616915  20.8346292  73.6982647  64.6959507  21.9431894  74.2581468
  66.6559498  25.7152578  65.0118453  66.2178928  24.9988437  64.5524091
  67.3969939  25.9428693  64.4503545  63.4460665  20.4049515  71.5330549
  62.6328530  20.7043685  71.9395741  63.9419659  20.0105204  72.2505031
  65.5969243  30.4007272  73.4664814  65.5545421  30.6268118  72.5373346
  66.5131941  30.1670646  73.6150615  69.0434876  20.8691339  80.3645443
  69.3984264  21.0962813  81.2239909  69.6907008  21.2009716  79.7422698
  74.7732613  23.9909775  71.0694772  74.6350512  24.1811371  70.1415961
  74.4168832  24.7529158  71.5262823  62.9374739  17.9767870  77.1491784
  63.5774119  17.8356630  76.4514747  62.1052270  17.6902384  76.7730386
  74.8001993  26.0586302  76.0806043  75.2338500  25.9661591  76.9289097
  75.5133574  26.0343803  75.4426059  63.7135043  27.2770301  73.2626776
  64.5075642  26.7820621  73.0609351  63.0026736  26.7488164  72.8994482
  68.5329888  29.6588396  77.6139144  68.5866910  30.2279333  78.3816860
  67.6644669  29.8290281  77.2493181  60.0217807  21.4213383  69.3386529
  59.0915395  21.3597838  69.5556491  60.1175279  20.8989335  68.5423170
  59.9403356  17.9468195  71.9264771  60.2010173  18.8613529  71.8173931
  60.7620528  17.4792638  72.0761383  61.4128281  19.3605953  79.0963595
  62.0851335  19.1523315  78.4476244  60.5858068  19.1628039  78.6568827
  75.6617542  26.1010003  78.6138929  75.8553433  27.0055813  78.8598204
  75.5618161  25.6417422  79.4477514  67.3153853  15.9867893  81.1129256
  66.6681768  16.6857843  81.0193732  68.0854869  16.4204037  81.4805504
  70.7232651  26.2516746  84.1879809  70.5718158  26.0227297  83.2709893
  70.7137331  27.2087347  84.2011154  67.4917988  23.8248658  79.1726076
  68.4210048  23.9759818  78.9995043  67.0709018  23.9132679  78.3174722
  66.2906319  27.8499323  76.9424613  66.1517405  27.4818107  77.8150552
  65.5020916  28.3646962  76.7708571  67.8411534  27.2280926  74.3313451
  67.5061367  27.1881695  75.2271101  67.3415480  26.5625641  73.8583861
  61.8155778  22.6348556  79.8566032  61.6775576  21.9028794  80.4577571
  62.7260702  22.5457456  79.5750220  70.7770726  24.5736960  64.6050511
  70.1599897  23.8483788  64.5083564  70.3087215  25.3346320  64.2617585
  64.4438079  22.3468515  79.3449712  65.1537698  21.7061707  79.3036330
  64.4007387  22.5981410  80.2675893  72.4324858  29.2835868  82.2656291
  72.3737404  28.5995088  81.5986874  72.8344376  30.0254858  81.8136917
  63.1567013  19.3333733  81.1645351  62.6204370  18.8824471  81.8166948
  62.5683722  19.4679642  80.4215816  61.4515557  36.0997782  75.0590010
  61.6912155  36.7316306  75.7369029  60.6084753  35.7485822  75.3455369
  62.5669272  18.7922384  63.7271815  61.6898738  18.6711185  63.3634062
  63.0427025  18.0008462  63.4750704  72.4342265  27.2475452  80.4970271
  71.5469044  26.9101374  80.6196670  73.0040816  26.5158483  80.7339036
  54.0871412  23.5799544  73.8213322  54.7742452  23.2661274  73.2334338
  53.9319541  24.4840909  73.5480574  58.8906134  18.4689740  78.2498346
  58.8064323  17.8615410  77.5148756  58.0688841  18.9598759  78.2507842
  65.9643418  31.9076904  77.4631514  65.8913590  32.7131876  77.9750819
  65.5220812  32.1068870  76.6379535  65.7533198  31.1448675  70.9734336
  64.9700720  31.6870355  71.0672560  66.4525943  31.6622654  71.3728577
  69.0629848  16.9543304  73.6168541  69.5598548  16.2013266  73.2969611
  68.2916830  16.9907621  73.0511750  76.9159606  22.6583670  75.2586833
  76.9049482  23.5408385  74.8880766  76.0476985  22.3055220  75.0641370
  68.4242102  31.8063739  79.6189673  69.1370074  32.4411203  79.5465574
  67.9332131  31.9027605  78.8029675  70.1459629  25.7114991  71.1906964
  69.2115908  25.8316454  71.0211669  70.3236297  24.8087458  70.9266974
  65.6464817  19.0960687  73.3440226  65.2762604  18.5431727  74.0321131
  66.1423909  18.4918820  72.7915226  73.5332180  21.5532310  71.7256999
  73.9992632  22.3860302  71.6517301  73.9839681  21.0877292  72.4302257
  63.4754015  29.5558182  80.4395244  64.1763475  30.1894665  80.5924638
  63.0049130  29.8972914  79.6790883  71.5048843  13.9212897  75.7647900
  70.5911923  14.1517124  75.9330107  71.9341944  14.0051342  76.6161932
  71.2755301  22.1102789  78.2647794  70.6226752  22.3578697  77.6100247
  71.6535681  21.2966928  77.9310271  67.3242874  22.8522601  84.7513831
  66.6483511  22.7516730  85.4216206  68.1470508  22.6961814  85.2149828
  59.0721734  29.0894537  77.3726346  59.6575170  28.3438225  77.5054250
  58.8746572  29.3998494  78.2563010  61.9260389  32.1245784  72.3888789
  61.2570764  32.6091912  71.9052829  61.7873258  32.3715005  73.3032167
  53.6639388  21.6600137  76.0930789  53.7023488  21.1263728  76.8867907
  53.1579681  21.1335343  75.4741767  66.0665657  34.1589528  78.9871447
  66.6183965  34.3221149  79.7520532  66.4071851  34.7493966  78.3151472
  61.0430151  16.5064678  79.5893332  61.1071477  17.3679509  79.1770729
  60.9797271  15.8938679  78.8565690  60.5182423  18.5787810  83.2366366
  61.1454462  18.1964888  83.8503890  59.6610342  18.3602012  83.6022058
  70.9176532  28.9850785  84.8420101  71.4616436  29.5980744  84.3475056
  70.3363377  29.5430364  85.3587114  57.2947966  20.3864239  69.1684721
  57.5901407  19.4774918  69.1151774  56.3936002  20.3651979  68.8465723
  69.2034045  32.1071503  75.9735129  69.0785184  31.3061243  75.4646075
  69.8613136  32.6017697  75.4849099  60.8242213  18.4620236  75.1512269
  60.1028799  19.0756204  75.0119743  61.6135469  18.9978001  75.0728915
  71.2668953  29.9080524  77.6014679  70.3199289  29.7885875  77.5293006
  71.6151726  29.0203022  77.6840941  63.6268526  15.7974662  81.4252921
  64.1502928  16.0436959  82.1879230  63.4080860  16.6294697  81.0056058
  59.0235807  18.0678337  69.2924046  58.6948514  17.1875716  69.1099152
  59.3775178  18.0126006  70.1800435  68.2715386  29.7033240  73.8019031
  68.1240349  28.7749947  73.9826602  69.0968880  29.7253330  73.3176107
  62.1377631  18.3551307  69.6599524  62.4773703  18.8837228  68.9378132
  62.5849751  18.6931713  70.4358090  71.8749508  30.5261799  74.8883904
  72.7996056  30.3204660  74.7508355  71.7064812  30.2778200  75.7973246
  64.8321071  16.7388358  79.1102592  64.4917892  15.9396171  79.5123272
  64.1260078  17.0390068  78.5379425  65.4837543  13.8237670  77.5629915
  66.3063613  13.3498148  77.4408805  65.7275607  14.6028154  78.0628601
  64.1245778  16.8525928  67.8592816  64.8454140  17.2307181  67.3556533
  63.5011082  17.5714805  67.9627794  68.2676901  17.5571077  68.7951149
  68.4840515  18.4395715  68.4939977  67.7870968  17.1657291  68.0656791
  63.0076122  20.5156791  75.3721893  62.8620703  20.8297094  76.2646175
  62.5301326  21.1341691  74.8192792  64.8672505  17.5059339  75.4202783
  64.8534074  16.6100432  75.0835081  65.5844933  17.5130002  76.0541069
  66.7198636  17.9396679  77.4655910  66.4616413  18.8613749  77.4640241
  66.1883676  17.5427113  78.1556374  57.4821784  23.0562135  78.3109554
  56.9375252  23.8321943  78.4429829  58.3601134  23.4032940  78.1528676
  64.2709401  16.3873719  70.6890353  64.3925312  15.4590365  70.8881240
  63.9811443  16.4012405  69.7768668  67.1400591  14.0728629  73.8257073
  67.1622288  14.1367962  72.8709052  67.5568650  13.2333138  74.0197579
  77.5184216  23.8083889  71.8636295  77.9615362  23.0591214  71.4655419
  76.6410726  23.7994025  71.4810027  58.2687806  22.1832031  81.2039711
  57.5269542  22.3314667  81.7904342  57.9480550  22.4440297  80.3406461
  74.5511420  27.8113936  68.8730225  75.0762744  28.1501209  68.1479545
  74.4633773  26.8760951  68.6893359  66.2131469  31.7248010  81.0020101
  66.5218595  31.4797156  81.8742801  67.0106951  31.9294648  80.5138972
  58.7144420  30.0697460  73.2350106  59.5402440  29.7701232  72.8548750
  58.3638472  29.3005082  73.6839895  63.6825953  29.4223928  75.3047780
  63.0605962  28.7594633  75.0050007  64.3530820  29.4485060  74.6221427
  56.9153025  27.9883786  74.1939040  56.0784933  27.5605961  74.0123041
  56.8876670  28.1816230  75.1309831  63.7550480  17.9005716  84.8980286
  63.8038636  18.7767839  84.5158055  64.2972995  17.3583109  84.3251929
  74.2405326  28.4446840  84.1781423  73.4500870  28.4270978  83.6385922
  74.0038681  28.9835133  84.9330459  74.3603201  25.2939306  81.4914151
  74.4101206  25.1289313  82.4329674  74.2517124  24.4266565  81.1012032
  63.2439460  27.9727852  68.7806240  63.3927580  28.6563316  68.1272913
  64.0505903  27.9532942  69.2955696  71.6506963  21.2770234  82.8073458
  72.5516826  21.1376699  82.5157456  71.7254938  21.4424689  83.7471635
  65.9849769  18.6537089  81.6526644  65.1153078  18.9470655  81.3809233
  66.2209249  19.2377534  82.3733908  75.8621398  27.7136247  81.7356173
  75.5706206  28.0766228  82.5719634  75.2493529  27.0003256  81.5569505
  77.0617080  25.2789127  74.2558743  77.8963972  25.7178931  74.4196303
  77.1976209  24.8027780  73.4366989  74.1108586  22.8368862  80.2036231
  74.5862708  23.0296508  79.3955082  73.1874152  22.8928048  79.9579614
  60.9992093  23.9993029  69.7867309  60.7538135  23.0955359  69.9847519
  61.1688007  24.0010180  68.8446787  68.6888803  14.8716706  79.1692065
  69.2070747  15.6077733  78.8438553  68.3343935  15.1780699  80.0038824
  60.2687740  19.7321387  67.2853470  59.5756985  19.8065742  66.6293506
  60.0239492  18.9681730  67.8074987  68.9401397  11.2916988  74.6892961
  69.2203151  10.6240177  75.3153388  69.7252004  11.4846084  74.1767625
  72.8110255  19.7134622  78.4364536  73.7627678  19.8132720  78.4576760
  72.6413706  18.9212891  78.9462621  70.8324635  16.7990205  78.6223937
  70.2374567  17.0795218  77.9270426  70.5474331  17.2884106  79.3940678
  75.2898333  22.9340742  77.5506836  75.2574653  21.9956743  77.7366520
  75.8998957  23.0124779  76.8172661  67.1281664  21.8036795  63.5934040
  68.0740769  21.6743003  63.6622458  66.7495909  21.0651457  64.0703468
  75.4392821  19.7251785  77.5965119  74.9231870  18.9410242  77.4095048
  76.3232770  19.3970502  77.7611639  73.1003548  13.4692801  73.5560932
  72.9028369  13.1607889  74.4404264  73.7103254  14.1954440  73.6858862
  81.1074883  23.9956749  76.6912873  81.8378271  23.7342037  77.2520576
  80.4981828  23.2585471  76.7314941  79.1890180  22.1364611  77.2887324
  78.4623343  22.0020576  76.6803816  78.7737467  22.4441440  78.0944042
  67.0120356  25.8554541  85.0534697  67.9323366  26.0333140  85.2474744
  66.9769939  24.9110586  84.9014396  65.3124581  19.7286771  63.5288925
  64.4056036  19.4319884  63.6051639  65.5900562  19.4316589  62.6623211
  56.2302521  21.0493135  73.9787972  55.9105306  20.1958443  73.6862346
  55.6835950  21.2641713  74.7345939  60.0082429  23.7655576  77.6957478
  60.2268439  24.6972683  77.7145512  60.4208203  23.4063550  78.4812282
  66.9286647  14.2723661  69.6833167  66.1187375  13.9270746  70.0588413
  67.6171064  13.9631205  70.2720778  68.8577195  13.3501708  71.3057463
  69.4108234  13.7697161  71.9647486  69.0947281  12.4237456  71.3480419
  64.8810294  19.3388781  87.0860227  64.7807021  20.2883138  87.0172318
  64.6631836  19.0107020  86.2136297  64.0823366  16.5873706  63.6700904
  64.9442530  16.9128605  63.9296722  64.2673710  15.8005202  63.1573970
  56.0990781  24.6696046  75.9481093  55.4054253  24.2549999  75.4351048
  56.8463772  24.7116583  75.3514512  72.2356002  15.4602233  70.8136127
  71.6554671  16.1187037  70.4314180  71.9691935  14.6379577  70.4023545
  70.6859568  14.8607291  73.0157448  71.1859347  14.9723825  72.2071767
  71.3295176  14.5568343  73.6558256  64.7441564  22.7685920  85.9025289
  64.2608646  23.5686280  86.1089178  64.8302503  22.7793865  84.9492733
  58.0127524  24.6014300  73.8247108  57.9898212  24.7001987  72.8728991
  58.3228160  25.4479451  74.1464274  60.6714902  26.6590455  77.9393723
  61.6258155  26.6274397  77.8723654  60.4727425  26.1981079  78.7543948
  61.2614284  25.2291571  80.5064520  62.0807173  25.7235650  80.5299357
  61.5351092  24.3123539  80.4782088  71.0180880  17.6202323  69.8692476
  70.1306735  17.9051974  69.6512670  71.4334869  17.4596087  69.0219753
  74.3695416  17.6448844  73.5846815  75.1455806  18.1345297  73.8571432
  73.6443550  18.0706898  74.0418684  76.8067975  18.3576463  74.6420756
  77.4012466  18.1172199  73.9314064  76.8794559  17.6383594  75.2694292
  59.0265131  32.2010074  74.9563920  58.8919598  31.4410475  74.3901918
  58.6097193  32.9250974  74.4892709  70.9921904  23.1356859  70.0842766
  70.9357105  23.5925411  69.2450398  71.5450246  22.3747544  69.9065609
  74.8026710  18.9246591  70.9092885  74.5463644  18.5243227  71.7401093
  74.1779578  19.6390385  70.7843025  79.1139048  21.6642664  73.4164177
  78.5538606  21.7335854  74.1895739  78.5082551  21.4883649  72.6963673
  62.1834256  33.0979391  75.1682363  62.0666641  34.0424824  75.0661053
  61.3626703  32.7952953  75.5568162  71.7256683  24.3261640  67.3795295
  71.6705487  24.1605912  66.4383739  71.1002738  25.0337673  67.5357485
  56.5149198  19.5629705  81.2056717  57.1608062  19.0528659  81.6943942
  56.3066349  20.2998386  81.7800143  69.0402590  26.6310552  86.7048858
  69.9093750  26.8051205  86.3435493  68.5609342  27.4504969  86.5824587
  65.0352809  13.8269749  66.9580613  65.0231478  14.7711589  67.1148884
  65.9276230  13.6439895  66.6640075  63.2088771  33.7507653  78.3838291
  64.1116017  33.7831264  78.7004786  62.9826141  32.8208104  78.3984627
  64.9642373  32.5038640  75.0448370  64.0138004  32.5040501  74.9312742
  65.2674859  31.7571374  74.5284405  68.8504928  10.4212526  71.2126550
  68.0837324   9.8671013  71.3583233  69.2615633  10.4934395  72.0740702
  60.8546689  16.7097322  85.3031731  61.7178151  16.3534127  85.5135056
  60.2812100  16.3711217  85.9907136  80.6995066  38.3399178  76.1094133
  81.3373476  38.2205926  75.4057473  80.5815909  39.2880022  76.1682085
  77.5084772  38.2926606  76.0455657  77.1703284  38.1767671  75.1576192
  78.3774541  37.8917771  76.0256663  73.3671588  40.1462083  72.0352548
  72.8036453  40.0552020  71.2668836  73.2523983  39.3261987  72.5155041
  77.9904555  39.4461458  82.0041863  77.9793196  39.0514256  81.1322366
  78.1525195  38.7127531  82.5975634  70.9136020  41.6413274  74.8736769
  71.7057312  41.3004099  74.4583068  71.1532670  41.7508249  75.7938922
  78.9471147  43.8133050  67.3467013  78.2959126  44.3987131  66.9601027
  79.7415510  44.3439245  67.4062051  74.7111816  42.2298570  80.9521047
  74.4201682  43.1344201  80.8367713  75.3468801  42.2715097  81.6665116
  75.6368023  39.6075418  77.5422406  76.2331596  39.3831441  76.8279369
  75.6942995  38.8660164  78.1447854  80.2536335  36.0650632  73.1847341
  81.0399424  35.6470055  72.8337758  80.5175039  36.9696724  73.3528989
  80.4246412  41.5023482  67.8835997  79.7892245  41.5758109  68.5956902
  80.0943818  42.0917081  67.2055077  85.6544762  36.0025865  74.0880319
  86.3869934  35.4325082  74.3218149  84.8984117  35.6147466  74.5286825
  77.2720881  38.4253107  71.2843662  76.9079089  37.8983728  71.9956583
  78.1287997  38.0351576  71.1110147  83.1770182  29.7147439  78.5474928
  82.8453507  30.5842850  78.3236143  82.5815795  29.3983723  79.2268958
  79.6701702  41.9159985  77.9470840  79.3702425  42.8185024  77.8386648
  79.3252761  41.6492169  78.7991993  73.1214183  38.3673782  73.9807545
  72.1964679  38.2349996  74.1885237  73.3698596  39.1468001  74.4777487
  83.0698845  34.4342526  75.6268278  82.1615723  34.3657934  75.3327039
  83.0186441  34.9114471  76.4550103  70.4822994  38.0107056  74.8151334
  70.6115375  38.2641535  75.7290746  69.8020445  38.6034764  74.4955989
  77.1439711  35.8532171  83.5703175  76.3673045  36.4126091  83.5606040
  77.7830274  36.3388954  84.0918045  84.9360492  32.6358964  77.4046152
  84.2934872  32.9291497  76.7585946  84.4315420  32.5211884  78.2099348
  75.3986083  38.6617625  83.1321142  76.1400768  39.2002668  82.8555966
  74.6923069  39.2883913  83.2892694  80.8741423  40.8046765  81.7293303
  81.2824779  40.3629176  80.9847936  80.1518685  40.2299393  81.9827496
  77.2272493  35.7419372  79.1026860  78.0733688  36.1658785  79.2461509
  77.1671131  35.0852996  79.7965424  81.1970238  41.3647956  75.4845592
  80.5679100  41.5293670  74.7821660  80.8095900  41.7789565  76.2556556
  85.0759470  42.3002393  72.8389956  84.3910508  42.6801295  72.2886989
  85.1603319  42.9097720  73.5721904  80.3771938  33.4023740  80.7608034
  80.1332870  34.1565801  80.2242310  80.6531869  33.7809088  81.5955281
  82.3310401  39.9462352  79.4385300  82.5427296  40.5894112  78.7619681
  82.2840149  39.1124669  78.9707230  79.9336630  32.5580173  76.3421872
  79.0721109  32.8561427  76.6338609  79.9599065  32.7750572  75.4102904
  76.7498200  41.1022364  72.7495677  77.2136545  41.3810067  71.9600300
  76.4854998  40.2005808  72.5668768  73.6422281  40.6493845  75.6875441
  74.2123638  41.0781114  75.0492925  74.2330392  40.3676430  76.3859626
  75.6867086  37.2245516  69.5585243  76.3891129  37.6766560  70.0259169
  75.3547714  36.5829335  70.1865136  74.1347447  35.8157273  83.9336452
  73.5046108  36.4973554  84.1671849  74.0283535  35.7040354  82.9889590
  69.4292420  35.4829069  74.8602376  68.6391474  35.7386597  74.3842487
  69.9203667  36.2977407  74.9654417  83.4456229  42.8234308  77.6107657
  84.2673673  42.4214495  77.3290339  83.4418632  42.7202542  78.5623773
  77.2112833  42.3718351  79.7668367  77.2757265  42.8338758  80.6026539
  76.5023756  41.7415716  79.8950677  67.7130123  35.7359559  77.2917367
  67.9638161  36.6206569  77.5574943  68.2489671  35.5564161  76.5192459
  91.5362222  39.1673056  73.9592628  90.7825931  38.5980454  73.8036633
  91.6709763  39.1335721  74.9063263  76.9260850  44.0386459  69.6347348
  76.7906525  44.8837994  70.0632196  77.4670663  44.2405736  68.8713282
  73.4128190  30.1178039  86.2961703  73.0195135  29.5644237  86.9709347
  74.2294330  30.4288617  86.6868221  72.1885132  44.6727653  72.2898026
  72.3651761  45.5945618  72.1019010  72.9841966  44.3586072  72.7192406
  76.3296151  31.5335918  83.8881960  77.0705864  32.1343071  83.8086422
  76.5614074  30.7913555  83.3300002  71.4737489  36.7192285  82.1660189
  71.3591004  35.8177542  82.4667288  70.6182007  36.9655982  81.8145006
  78.5529327  44.6610025  83.7647690  78.1093181  43.8746404  83.4468594
  79.2146540  44.8489176  83.0991581  73.3116448  46.1905827  78.2908368
  73.8623873  46.0622890  77.5185362  72.4727924  46.4900716  77.9403261
  80.6510565  44.9412825  81.7929091  80.6329040  45.7621706  81.3009360
  81.5730485  44.8166900  82.0179232  77.1083619  42.4556955  82.6352600
  77.6411956  41.6945243  82.4051908  76.5797700  42.1630606  83.3776754
  80.2753314  27.5617021  78.1646241  79.9317583  28.4518662  78.0885352
  80.6432276  27.3718678  77.3015826  77.8250708  32.3975332  71.7303915
  76.9692304  32.0082183  71.5509553  78.2377659  32.4767293  70.8703700
  79.3549854  29.9321676  76.1295475  78.8514650  29.8951811  75.3163280
  79.6480461  30.8414418  76.1892131  75.5992740  30.0160405  75.1361656
  76.4645737  29.8203214  74.7767546  75.6670249  29.7870757  76.0631013
  85.2137871  40.3057986  68.6071850  84.4367313  39.9669146  68.1627012
  85.8929352  40.3110609  67.9326815  78.4736332  41.5842947  70.1471412
  77.9457693  40.8495707  69.8344649  77.9723834  42.3617623  69.9011380
  83.4529178  39.7791968  75.2638458  82.7952852  40.4691229  75.3518586
  84.2569577  40.1688400  75.6072444  73.2055059  32.2462613  72.5078023
  73.7798811  32.0237795  71.7751216  73.7926042  32.3151308  73.2606624
  82.2634636  38.1336340  73.3142400  82.7766518  38.7666332  73.8164109
  82.9135860  37.5337536  72.9485760  75.5077727  29.1203862  71.2353092
  74.8542139  28.8052879  70.6109707  75.4658201  28.4979603  71.9612915
  78.7415467  35.6085796  75.5600740  77.8238029  35.8300743  75.4022428
  79.1575611  35.6832106  74.7012447  79.5250515  37.0077212  70.6903420
  80.2722334  37.5198609  70.3810542  79.7942105  36.6861264  71.5507814
  83.0296433  43.1142342  71.4421542  82.5758760  42.2733252  71.4986733
  82.3990399  43.7503740  71.7796322  81.9729352  34.0434328  72.6722210
  81.2352109  33.5311714  73.0032452  82.2256126  33.6034709  71.8605487
  81.4729372  44.9518838  72.3771360  81.7652346  45.5123896  71.6583726
  81.9827992  45.2447399  73.1324519  82.0740979  26.8210580  73.2663979
  82.3799856  25.9607943  72.9789894  82.7993584  27.4128200  73.0662973
  76.3462059  37.1164373  73.7740170  76.4010669  36.1638209  73.6982647
  75.5353261  37.2723812  74.2581468  74.2854419  35.7341433  71.5330549
  73.4722285  36.0335603  71.9395741  74.7813413  35.3397121  72.2505031
  76.4362997  45.7299190  73.4664814  76.3939176  45.9560036  72.5373346
  77.3525696  45.4962564  73.6150615  79.8828631  36.1983257  80.3645443
  80.2378019  36.4254730  81.2239909  80.5300762  36.5301634  79.7422698
  85.6126368  39.3201693  71.0694772  85.4744266  39.5103289  70.1415961
  85.2562587  40.0821076  71.5262823  73.7768494  33.3059788  77.1491784
  74.4167873  33.1648547  76.4514747  72.9446024  33.0194301  76.7730386
  85.6395747  41.3878220  76.0806043  86.0732254  41.2953509  76.9289097
  86.3527328  41.3635720  75.4426059  74.5528798  42.6062219  73.2626776
  75.3469396  42.1112539  73.0609351  73.8420490  42.0780082  72.8994482
  79.3723642  44.9880314  77.6139144  79.4260665  45.5571250  78.3816860
  78.5038424  45.1582199  77.2493181  72.2522036  34.6897870  79.0963595
  72.9245089  34.4815232  78.4476244  71.4251822  34.4919956  78.6568827
  86.5011297  41.4301921  78.6138929  86.6947187  42.3347731  78.8598204
  86.4011915  40.9709340  79.4477514  78.1547608  31.3159811  81.1129256
  77.5075523  32.0149761  81.0193732  78.9248623  31.7495955  81.4805504
  81.5626406  41.5808663  84.1879809  81.4111912  41.3519215  83.2709893
  81.5531085  42.5379265  84.2011154  78.3311742  39.1540576  79.1726076
  79.2603802  39.3051736  78.9995043  77.9102772  39.2424597  78.3174722
  77.1300074  43.1791241  76.9424613  76.9911159  42.8110025  77.8150552
  76.3414670  43.6938880  76.7708571  78.6805289  42.5572843  74.3313451
  78.3455122  42.5173613  75.2271101  78.1809235  41.8917559  73.8583861
  72.6549533  37.9640473  79.8566032  72.5169331  37.2320712  80.4577571
  73.5654456  37.8749373  79.5750220  75.2831834  37.6760433  79.3449712
  75.9931452  37.0353625  79.3036330  75.2401142  37.9273327  80.2675893
  83.2718612  44.6127786  82.2656291  83.2131158  43.9287006  81.5986874
  83.6738131  45.3546776  81.8136917  73.9960768  34.6625650  81.1645351
  73.4598125  34.2116389  81.8166948  73.4077476  34.7971559  80.4215816
  72.2909311  51.4289700  75.0590010  72.5305909  52.0608224  75.7369029
  71.4478508  51.0777740  75.3455369  83.2736020  42.5767370  80.4970271
  82.3862798  42.2393292  80.6196670  83.8434571  41.8450401  80.7339036
  69.7299889  33.7981658  78.2498346  69.6458078  33.1907328  77.5148756
  68.9082595  34.2890676  78.2507842  76.8037173  47.2368822  77.4631514
  76.7307344  48.0423794  77.9750819  76.3614566  47.4360788  76.6379535
  79.9023603  32.2835222  73.6168541  80.3992302  31.5305184  73.2969611
  79.1310584  32.3199538  73.0511750  87.7553360  37.9875587  75.2586833
  87.7443236  38.8700303  74.8880766  86.8870739  37.6347138  75.0641370
  79.2635856  47.1355656  79.6189673  79.9763829  47.7703121  79.5465574
  78.7725885  47.2319522  78.8029675  80.9853383  41.0406909  71.1906964
  80.0509662  41.1608371  71.0211669  81.1630052  40.1379376  70.9266974
  76.4858571  34.4252605  73.3440226  76.1156359  33.8723645  74.0321131
  76.9817664  33.8210738  72.7915226  84.3725935  36.8824228  71.7256999
  84.8386387  37.7152220  71.6517301  84.8233435  36.4169210  72.4302257
  74.3147770  44.8850100  80.4395244  75.0157229  45.5186583  80.5924638
  73.8442885  45.2264831  79.6790883  82.4402166  43.2268049  68.7243151
  82.7162010  43.1124644  69.6337025  81.5706665  42.8285534  68.6855324
  82.3442597  29.2504815  75.7647900  81.4305677  29.4809042  75.9330107
  82.7735699  29.3343259  76.6161932  82.1149056  37.4394707  78.2647794
  81.4620506  37.6870615  77.6100247  82.4929436  36.6258845  77.9310271
  79.0756230  47.4754400  72.3675964  79.2578624  46.6576056  72.8303717
  79.8989216  47.6922093  71.9300854  79.4098395  46.4022585  69.6291013
  79.9386162  45.8915040  69.0161175  79.6726615  46.0865116  70.4936546
  78.1636629  38.1814518  84.7513831  77.4877266  38.0808648  85.4216206
  78.9864263  38.0253732  85.2149828  69.9115488  44.4186455  77.3726346
  70.4968925  43.6730143  77.5054250  69.7140326  44.7290411  78.2563010
  64.5033143  36.9892055  76.0930789  64.5417242  36.4555646  76.8867907
  63.9973436  36.4627260  75.4741767  76.9059412  49.4881446  78.9871447
  77.4577720  49.6513067  79.7520532  77.2465605  50.0785883  78.3151472
  71.8823905  31.8356595  79.5893332  71.9465232  32.6971426  79.1770729
  71.8191025  31.2230597  78.8565690  71.3576178  33.9079728  83.2366366
  71.9848216  33.5256805  83.8503890  70.5004096  33.6893930  83.6022058
  81.7570286  44.3142703  84.8420101  82.3010190  44.9272661  84.3475056
  81.1757131  44.8722282  85.3587114  80.0427799  47.4363421  75.9735129
  79.9178939  46.6353161  75.4646075  80.7006890  47.9309615  75.4849099
  71.6635967  33.7912154  75.1512269  70.9422553  34.4048121  75.0119743
  72.4529223  34.3269918  75.0728915  82.1062707  45.2372441  77.6014679
  81.1593043  45.1177792  77.5293006  82.4545481  44.3494939  77.6840941
  74.4662281  31.1266580  81.4252921  74.9896683  31.3728877  82.1879230
  74.2474614  31.9586615  81.0056058  79.1109141  45.0325157  73.8019031
  78.9634103  44.1041865  73.9826602  79.9362634  45.0545248  73.3176107
  82.7143263  45.8553716  74.8883904  83.6389810  45.6496578  74.7508355
  82.5458566  45.6070117  75.7973246  75.6714826  32.0680275  79.1102592
  75.3311646  31.2688088  79.5123272  74.9653832  32.3681986  78.5379425
  76.3231298  29.1529588  77.5629915  77.1457367  28.6790066  77.4408805
  76.5669361  29.9320071  78.0628601  79.1070655  32.8862995  68.7951149
  79.3234270  33.7687633  68.4939977  78.6264722  32.4949209  68.0656791
  73.8469876  35.8448708  75.3721893  73.7014457  36.1589011  76.2646175
  73.3695080  36.4633609  74.8192792  75.7066259  32.8351256  75.4202783
  75.6927828  31.9392350  75.0835081  76.4238687  32.8421920  76.0541069
  77.5592390  33.2688597  77.4655910  77.3010168  34.1905667  77.4640241
  77.0277430  32.8719031  78.1556374  82.5038579  46.3739384  70.2445996
  82.6775456  45.8085806  69.4919848  82.9967470  47.1740279  70.0625486
  68.3215539  38.3854053  78.3109554  67.7769007  39.1613861  78.4429829
  69.1994889  38.7324857  78.1528676  75.1103155  31.7165637  70.6890353
  75.2319067  30.7882283  70.8881240  74.8205198  31.7304323  69.7768668
  77.9794346  29.4020547  73.8257073  78.0016043  29.4659880  72.8709052
  78.3962405  28.5625056  74.0197579  88.3577970  39.1375807  71.8636295
  88.8009116  38.3883132  71.4655419  87.4804480  39.1285943  71.4810027
  83.4913751  45.6906148  67.3442894  84.1864656  46.3112841  67.5630209
  83.8336901  44.8401499  67.6195272  69.1081561  37.5123949  81.2039711
  68.3663297  37.6606584  81.7904342  68.7874305  37.7732215  80.3406461
  85.3905174  43.1405854  68.8730225  85.9156499  43.4793126  68.1479545
  85.3027527  42.2052869  68.6893359  77.0525223  47.0539927  81.0020101
  77.3612350  46.8089074  81.8742801  77.8500705  47.2586566  80.5138972
  69.5538174  45.3989378  73.2350106  70.3796194  45.0993150  72.8548750
  69.2032226  44.6297000  73.6839895  74.5219707  44.7515846  75.3047780
  73.8999717  44.0886551  75.0050007  75.1924574  44.7776978  74.6221427
  67.7546779  43.3175704  74.1939040  66.9178688  42.8897879  74.0123041
  67.7270425  43.5108148  75.1309831  74.5944235  33.2297634  84.8980286
  74.6432390  34.1059757  84.5158055  75.1366749  32.6875027  84.3251929
  85.0799081  43.7738757  84.1781423  84.2894624  43.7562896  83.6385922
  84.8432435  44.3127051  84.9330459  85.1996956  40.6231224  81.4914151
  85.2494961  40.4581231  82.4329674  85.0910879  39.7558483  81.1012032
  74.0833214  43.3019769  68.7806240  74.2321335  43.9855234  68.1272913
  74.8899658  43.2824859  69.2955696  82.4900718  36.6062152  82.8073458
  83.3910581  36.4668616  82.5157456  82.5648692  36.7716606  83.7471635
  76.8243523  33.9829006  81.6526644  75.9546833  34.2762572  81.3809233
  77.0603004  34.5669451  82.3733908  86.7015152  43.0428165  81.7356173
  86.4099961  43.4058146  82.5719634  86.0887284  42.3295173  81.5569505
  87.9010835  40.6081045  74.2558743  88.7357726  41.0470849  74.4196303
  88.0369964  40.1319698  73.4366989  84.9502341  38.1660780  80.2036231
  85.4256462  38.3588426  79.3955082  84.0267906  38.2219966  79.9579614
  79.5282557  30.2008623  79.1692065  80.0464501  30.9369650  78.8438553
  79.1737690  30.5072617  80.0038824  79.7795151  26.6208906  74.6892961
  80.0596905  25.9532095  75.3153388  80.5645758  26.8138001  74.1767625
  83.6504010  35.0426540  78.4364536  84.6021433  35.1424637  78.4576760
  83.4807460  34.2504808  78.9462621  81.6718389  32.1282123  78.6223937
  81.0768321  32.4087136  77.9270426  81.3868086  32.6176024  79.3940678
  86.1292087  38.2632660  77.5506836  86.0968408  37.3248660  77.7366520
  86.7392711  38.3416696  76.8172661  86.2786576  35.0543703  77.5965119
  85.7625625  34.2702160  77.4095048  87.1626524  34.7262420  77.7611639
  83.9397303  28.7984719  73.5560932  83.7422124  28.4899807  74.4404264
  84.5497008  29.5246357  73.6858862  91.9468637  39.3248666  76.6912873
  92.6772026  39.0633954  77.2520576  91.3375583  38.5877388  76.7314941
  90.0283934  37.4656529  77.2887324  89.3017098  37.3312494  76.6803816
  89.6131221  37.7733358  78.0944042  77.8514111  41.1846459  85.0534697
  78.7717120  41.3625058  85.2474744  77.8163694  40.2402504  84.9014396
  70.8476183  39.0947493  77.6957478  71.0662193  40.0264601  77.7145512
  71.2601957  38.7355468  78.4812282  77.7680401  29.6015579  69.6833167
  76.9581129  29.2562664  70.0588413  78.4564818  29.2923122  70.2720778
  79.6970949  28.6793625  71.3057463  80.2501988  29.0989079  71.9647486
  79.9341036  27.7529374  71.3480419  75.7204049  34.6680699  87.0860227
  75.6200776  35.6175056  87.0172318  75.5025591  34.3398938  86.2136297
  66.9384536  39.9987964  75.9481093  66.2448007  39.5841917  75.4351048
  67.6857527  40.0408500  75.3514512  83.0749757  30.7894151  70.8136127
  82.4948426  31.4478955  70.4314180  82.8085689  29.9671495  70.4023545
  81.5253323  30.1899208  73.0157448  82.0253101  30.3015743  72.2071767
  82.1688931  29.8860261  73.6558256  75.5835319  38.0977838  85.9025289
  75.1002400  38.8978198  86.1089178  75.6696258  38.1085783  84.9492733
  71.5108656  41.9882373  77.9393723  72.4651910  41.9566315  77.8723654
  71.3121180  41.5272996  78.7543948  72.1008038  40.5583489  80.5064520
  72.9200927  41.0527567  80.5299357  72.3744846  39.6415457  80.4782088
  81.8574635  32.9494241  69.8692476  80.9700490  33.2343892  69.6512670
  82.2728624  32.7888004  69.0219753  85.2089171  32.9740762  73.5846815
  85.9849561  33.4637214  73.8571432  84.4837305  33.3998816  74.0418684
  87.6461729  33.6868381  74.6420756  88.2406220  33.4464117  73.9314064
  87.7188313  32.9675512  75.2694292  69.8658885  47.5301992  74.9563920
  69.7313353  46.7702393  74.3901918  69.4490947  48.2542892  74.4892709
  81.8315658  38.4648777  70.0842766  81.7750860  38.9217328  69.2450398
  82.3844001  37.7039461  69.9065609  85.6420464  34.2538509  70.9092885
  85.3857398  33.8535144  71.7401093  85.0173332  34.9682303  70.7843025
  89.9532802  36.9934582  73.4164177  89.3932360  37.0627771  74.1895739
  89.3476305  36.8175567  72.6963673  73.0228011  48.4271309  75.1682363
  72.9060395  49.3716742  75.0661053  72.2020457  48.1244871  75.5568162
  82.5650438  39.6553558  67.3795295  82.5099241  39.4897830  66.4383739
  81.9396493  40.3629591  67.5357485  67.3542953  34.8921622  81.2056717
  68.0001816  34.3820576  81.6943942  67.1460104  35.6290304  81.7800143
  79.8796345  41.9602470  86.7048858  80.7487504  42.1343122  86.3435493
  79.4003096  42.7796887  86.5824587  74.0482525  49.0799571  78.3838291
  74.9509772  49.1123181  78.7004786  73.8219895  48.1500022  78.3984627
  75.8036127  47.8330558  75.0448370  74.8531758  47.8332419  74.9312742
  76.1068613  47.0863292  74.5284405  79.6898683  25.7504444  71.2126550
  78.9231078  25.1962930  71.3583233  80.1009388  25.8226313  72.0740702
  71.6940444  32.0389240  85.3031731  72.5571905  31.6826044  85.5135056
  71.1205854  31.7003134  85.9907136  91.5388821  53.6691096  76.1094133
  92.1767230  53.5497843  75.4057473  91.4209663  54.6171940  76.1682085
  88.3478527  53.6218524  76.0455657  88.0097038  53.5059589  75.1576192
  89.2168295  53.2209689  76.0256663  88.8298310  54.7753376  82.0041863
  88.8186951  54.3806174  81.1322366  88.9918949  54.0419448  82.5975634
  81.7529774  56.9705192  74.8736769  82.5451066  56.6296017  74.4583068
  81.9926425  57.0800167  75.7938922  85.5505571  57.5590488  80.9521047
  85.2595437  58.4636118  80.8367713  86.1862555  57.6007015  81.6665116
  86.4761778  54.9367336  77.5422406  87.0725350  54.7123358  76.8279369
  86.5336749  54.1952082  78.1447854  91.0930089  51.3942550  73.1847341
  91.8793178  50.9761973  72.8337758  91.3568793  52.2988642  73.3528989
  96.4938516  51.3317783  74.0880319  97.2263688  50.7617000  74.3218149
  95.7377872  50.9439383  74.5286825  88.1114636  53.7545024  71.2843662
  87.7472843  53.2275645  71.9956583  88.9681752  53.3643494  71.1110147
  94.0163936  45.0439357  78.5474928  93.6847261  45.9134768  78.3236143
  93.4209550  44.7275641  79.2268958  83.9607937  53.6965700  73.9807545
  83.0358434  53.5641914  74.1885237  84.2092351  54.4759919  74.4777487
  93.9092600  49.7634443  75.6268278  93.0009477  49.6949852  75.3327039
  93.8580196  50.2406388  76.4550103  81.3216749  53.3398973  74.8151334
  81.4509130  53.5933452  75.7290746  80.6414200  53.9326681  74.4955989
  87.9833466  51.1824089  83.5703175  87.2066800  51.7418009  83.5606040
  88.6224029  51.6680872  84.0918045  95.7754246  47.9650882  77.4046152
  95.1328626  48.2583415  76.7585946  95.2709175  47.8503802  78.2099348
  93.4294410  51.7114055  68.0932011  94.3412266  51.9441442  67.9179708
  92.9204057  52.2951099  67.5307090  86.2379838  53.9909542  83.1321142
  86.9794522  54.5294586  82.8555966  85.5316823  54.6175831  83.2892694
  91.7135178  56.1338683  81.7293303  92.1218534  55.6921093  80.9847936
  90.9912439  55.5591310  81.9827496  88.0666248  51.0711289  79.1026860
  88.9127443  51.4950703  79.2461509  88.0064885  50.4144914  79.7965424
  95.9153224  57.6294311  72.8389956  95.2304262  58.0093213  72.2886989
  95.9997073  58.2389638  73.5721904  91.2165693  48.7315658  80.7608034
  90.9726625  49.4857718  80.2242310  91.4925623  49.1101005  81.5955281
  93.1704156  55.2754270  79.4385300  93.3821051  55.9186030  78.7619681
  93.1233904  54.4416587  78.9707230  90.7730385  47.8872091  76.3421872
  89.9114864  48.1853344  76.6338609  90.7992819  48.1042490  75.4102904
  84.4816035  55.9785763  75.6875441  85.0517392  56.4073031  75.0492925
  85.0724147  55.6968348  76.3859626  86.5260840  52.5537434  69.5585243
  87.2284883  53.0058477  70.0259169  86.1941469  51.9121253  70.1865136
  84.9741202  51.1449190  83.9336452  84.3439862  51.8265471  84.1671849
  84.8677290  51.0332272  82.9889590  80.2686174  50.8120986  74.8602376
  79.4785228  51.0678515  74.3842487  80.7597421  51.6269324  74.9654417
  94.2849984  58.1526226  77.6107657  95.1067427  57.7506413  77.3290339
  94.2812387  58.0494460  78.5623773  88.0506587  57.7010269  79.7668367
  88.1151020  58.1630676  80.6026539  87.3417511  57.0707634  79.8950677
  78.5523877  51.0651477  77.2917367  78.8031915  51.9498487  77.5574943
  79.0883425  50.8856078  76.5192459 102.3755977  54.4964974  73.9592628
 101.6219685  53.9272372  73.8036633 102.5103518  54.4627639  74.9063263
  84.2521944  45.4469956  86.2961703  83.8588890  44.8936155  86.9709347
  85.0688085  45.7580535  86.6868221  87.1689905  46.8627835  83.8881960
  87.9099619  47.4634988  83.8086422  87.4007828  46.1205473  83.3300002
  82.3131243  52.0484203  82.1660189  82.1984759  51.1469460  82.4667288
  81.4575761  52.2947899  81.8145006  89.3923081  59.9901943  83.7647690
  88.9486935  59.2038321  83.4468594  90.0540295  60.1781093  83.0991581
  84.1510202  61.5197744  78.2908368  84.7017627  61.3914808  77.5185362
  83.3121678  61.8192633  77.9403261  91.4904319  60.2704743  81.7929091
  91.4722795  61.0913624  81.3009360  92.4124239  60.1458818  82.0179232
  87.9477373  57.7848872  82.6352600  88.4805710  57.0237160  82.4051908
  87.4191454  57.4922524  83.3776754  91.1147068  42.8908938  78.1646241
  90.7711338  43.7810580  78.0885352  91.4826031  42.7010596  77.3015826
  88.6644462  47.7267250  71.7303915  87.8086058  47.3374101  71.5509553
  89.0771414  47.8059211  70.8703700  90.1943609  45.2613593  76.1295475
  89.6908404  45.2243729  75.3163280  90.4874216  46.1706336  76.1892131
  86.4386495  45.3452323  75.1361656  87.3039491  45.1495132  74.7767546
  86.5064003  45.1162675  76.0631013  96.0531625  55.6349904  68.6071850
  95.2761068  55.2961063  68.1627012  96.7323106  55.6402527  67.9326815
  90.8683654  50.7544641  68.4978458  90.5633790  51.0690791  69.3488601
  91.8214096  50.8326061  68.5405791  94.2922932  55.1083885  75.2638458
  93.6346607  55.7983147  75.3518586  95.0963331  55.4980317  75.6072444
  84.0448814  47.5754531  72.5078023  84.6192566  47.3529713  71.7751216
  84.6319796  47.6443226  73.2606624  93.1028391  53.4628258  73.3142400
  93.6160273  54.0958250  73.8164109  93.7529615  52.8629453  72.9485760
  86.3471481  44.4495780  71.2353092  85.6935894  44.1344797  70.6109707
  86.3051956  43.8271520  71.9612915  89.5809222  50.9377713  75.5600740
  88.6631783  51.1592661  75.4022428  89.9969365  51.0124024  74.7012447
  90.3644269  52.3369129  70.6903420  91.1116088  52.8490526  70.3810542
  90.6335859  52.0153182  71.5507814  92.8123107  49.3726245  72.6722210
  92.0745863  48.8603632  73.0032452  93.0649880  48.9326627  71.8605487
  92.9134734  42.1502497  73.2663979  93.2193611  41.2899861  72.9789894
  93.6387339  42.7420118  73.0662973  87.1855814  52.4456291  73.7740170
  87.2404423  51.4930127  73.6982647  86.3747016  52.6015730  74.2581468
  85.1248174  51.0633350  71.5330549  84.3116039  51.3627521  71.9395741
  85.6207168  50.6689039  72.2505031  90.7222385  51.5275175  80.3645443
  91.0771773  51.7546648  81.2239909  91.3694517  51.8593552  79.7422698
  96.4520122  54.6493611  71.0694772  96.3138021  54.8395207  70.1415961
  96.0956341  55.4112993  71.5262823  84.6162248  48.6351706  77.1491784
  85.2561628  48.4940465  76.4514747  83.7839779  48.3486219  76.7730386
  96.4789502  56.7170138  76.0806043  96.9126009  56.6245427  76.9289097
  97.1921083  56.6927638  75.4426059  81.6190865  48.6052031  71.9264771
  81.8797682  49.5197364  71.8173931  82.4408037  48.1376473  72.0761383
  83.0915790  50.0189788  79.0963595  83.7638844  49.8107150  78.4476244
  82.2645577  49.8211874  78.6568827  97.3405051  56.7593838  78.6138929
  97.5340942  57.6639649  78.8598204  97.2405670  56.3001257  79.4477514
  88.9941362  46.6451729  81.1129256  88.3469277  47.3441679  81.0193732
  89.7642378  47.0787873  81.4805504  92.4020160  56.9100581  84.1879809
  92.2505667  56.6811133  83.2709893  92.3924840  57.8671182  84.2011154
  89.1705497  54.4832494  79.1726076  90.0997557  54.6343653  78.9995043
  88.7496527  54.5716515  78.3174722  83.4943287  53.2932391  79.8566032
  83.3563085  52.5612630  80.4577571  84.4048211  53.2041291  79.5750220
  86.1225588  53.0052350  79.3449712  86.8325207  52.3645542  79.3036330
  86.0794896  53.2565245  80.2675893  94.1112367  59.9419704  82.2656291
  94.0524913  59.2578924  81.5986874  94.5131885  60.6838694  81.8136917
  84.8354522  49.9917568  81.1645351  84.2991879  49.5408307  81.8166948
  84.2471230  50.1263477  80.4215816  83.1303066  66.7581617  75.0590010
  83.3699664  67.3900142  75.7369029  82.2872262  66.4069657  75.3455369
  94.1129774  57.9059288  80.4970271  93.2256553  57.5685209  80.6196670
  94.6828325  57.1742319  80.7339036  80.5693643  49.1273576  78.2498346
  80.4851832  48.5199245  77.5148756  79.7476350  49.6182594  78.2507842
  87.6430927  62.5660740  77.4631514  87.5701099  63.3715711  77.9750819
  87.2008321  62.7652706  76.6379535  90.7417357  47.6127139  73.6168541
  91.2386057  46.8597102  73.2969611  89.9704339  47.6491456  73.0511750
  98.5947115  53.3167505  75.2586833  98.5836991  54.1992220  74.8880766
  97.7264494  52.9639056  75.0641370  90.1029611  62.4647574  79.6189673
  90.8157583  63.0995039  79.5465574  89.6119640  62.5611440  78.8029675
  87.3252326  49.7544522  73.3440226  86.9550113  49.2015563  74.0321131
  87.8211418  49.1502656  72.7915226  95.2119689  52.2116146  71.7256999
  95.6780141  53.0444137  71.6517301  95.6627190  51.7461127  72.4302257
  85.1541524  60.2142017  80.4395244  85.8550984  60.8478500  80.5924638
  84.6836639  60.5556749  79.6790883  93.1836352  44.5796733  75.7647900
  92.2699432  44.8100960  75.9330107  93.6129453  44.6635177  76.6161932
  92.9542810  52.7686625  78.2647794  92.3014261  53.0162532  77.6100247
  93.3323190  51.9550763  77.9310271  89.0030383  53.5106436  84.7513831
  88.3271020  53.4100565  85.4216206  89.8258017  53.3545650  85.2149828
  80.7509243  59.7478372  77.3726346  81.3362679  59.0022060  77.5054250
  80.5534081  60.0582329  78.2563010  75.3426897  52.3183973  76.0930789
  75.3810997  51.7847563  76.8867907  74.8367190  51.7919178  75.4741767
  87.7453166  64.8173363  78.9871447  88.2971474  64.9804985  79.7520532
  88.0859360  65.4077801  78.3151472  82.7217660  47.1648513  79.5893332
  82.7858986  48.0263344  79.1770729  82.6584780  46.5522515  78.8565690
  82.1969932  49.2371646  83.2366366  82.8241971  48.8548723  83.8503890
  81.3397851  49.0185848  83.6022058  92.5964041  59.6434621  84.8420101
  93.1403945  60.2564579  84.3475056  92.0150886  60.2014199  85.3587114
  82.5029722  49.1204071  75.1512269  81.7816308  49.7340039  75.0119743
  83.2922978  49.6561836  75.0728915  92.9456462  60.5664359  77.6014679
  91.9986798  60.4469710  77.5293006  93.2939235  59.6786857  77.6840941
  85.3056035  46.4558498  81.4252921  85.8290437  46.7020794  82.1879230
  85.0868369  47.2878533  81.0056058  83.8165140  49.0135142  69.6599524
  84.1561212  49.5421063  68.9378132  84.2637260  49.3515548  70.4358090
  86.5108580  47.3972193  79.1102592  86.1705401  46.5980006  79.5123272
  85.8047587  47.6973904  78.5379425  87.1625052  44.4821505  77.5629915
  87.9851122  44.0081984  77.4408805  87.4063116  45.2611989  78.0628601
  89.9464410  48.2154913  68.7951149  90.1628024  49.0979551  68.4939977
  89.4658477  47.8241126  68.0656791  84.6863631  51.1740626  75.3721893
  84.5408212  51.4880929  76.2646175  84.2088835  51.7925526  74.8192792
  86.5460014  48.1643174  75.4202783  86.5321583  47.2684267  75.0835081
  87.2632442  48.1713838  76.0541069  88.3986145  48.5980514  77.4655910
  88.1403922  49.5197585  77.4640241  87.8671185  48.2010949  78.1556374
  79.1609293  53.7145970  78.3109554  78.6162761  54.4905778  78.4429829
  80.0388643  54.0616775  78.1528676  85.9496910  47.0457554  70.6890353
  86.0712821  46.1174200  70.8881240  85.6598952  47.0596240  69.7768668
  88.8188100  44.7312465  73.8257073  88.8409797  44.7951798  72.8709052
  89.2356159  43.8916973  74.0197579  99.1971725  54.4667724  71.8636295
  99.6402871  53.7175049  71.4655419  98.3198235  54.4577861  71.4810027
  79.9475315  52.8415867  81.2039711  79.2057051  52.9898502  81.7904342
  79.6268059  53.1024132  80.3406461  96.2298929  58.4697771  68.8730225
  96.7550253  58.8085044  68.1479545  96.1421282  57.5344787  68.6893359
  87.8918978  62.3831845  81.0020101  88.2006104  62.1380992  81.8742801
  88.6894460  62.5878483  80.5138972  85.4337989  48.5589552  84.8980286
  85.4826145  49.4351674  84.5158055  85.9760504  48.0166945  84.3251929
  95.9192835  59.1030675  84.1781423  95.1288379  59.0854814  83.6385922
  95.6826190  59.6418969  84.9330459  96.0390710  55.9523141  81.4914151
  96.0888715  55.7873149  82.4329674  95.9304633  55.0850400  81.1012032
  93.3294472  51.9354069  82.8073458  94.2304335  51.7960534  82.5157456
  93.4042447  52.1008524  83.7471635  87.6637278  49.3120924  81.6526644
  86.7940587  49.6054490  81.3809233  87.8996758  49.8961369  82.3733908
  97.5408907  58.3720083  81.7356173  97.2493715  58.7350063  82.5719634
  96.9281038  57.6587091  81.5569505  98.7404589  55.9372963  74.2558743
  99.5751481  56.3762767  74.4196303  98.8763718  55.4611616  73.4366989
  95.7896095  53.4952697  80.2036231  96.2650217  53.6880344  79.3955082
  94.8661661  53.5511883  79.9579614  90.3676312  45.5300541  79.1692065
  90.8858255  46.2661568  78.8438553  90.0131444  45.8364534  80.0038824
  90.6188906  41.9500824  74.6892961  90.8990660  41.2824013  75.3153388
  91.4039513  42.1429919  74.1767625  94.4897764  50.3718457  78.4364536
  95.4415187  50.4716555  78.4576760  94.3201215  49.5796726  78.9462621
  92.5112144  47.4574041  78.6223937  91.9162076  47.7379053  77.9270426
  92.2261840  47.9467942  79.3940678  96.9685842  53.5924577  77.5506836
  96.9362162  52.6540578  77.7366520  97.5786466  53.6708614  76.8172661
  97.1180330  50.3835621  77.5965119  96.6019379  49.5994077  77.4095048
  98.0020279  50.0554337  77.7611639  94.7791057  44.1276636  73.5560932
  94.5815878  43.8191724  74.4404264  95.3890763  44.8538275  73.6858862
 102.7862392  54.6540584  76.6912873 103.5165780  54.3925872  77.2520576
 102.1769337  53.9169306  76.7314941 100.8677689  52.7948447  77.2887324
 100.1410852  52.6604412  76.6803816 100.4524976  53.1025275  78.0944042
  88.6907865  56.5138376  85.0534697  89.6110875  56.6916975  85.2474744
  88.6557448  55.5694422  84.9014396  77.9090030  51.7076970  73.9787972
  77.5892815  50.8542278  73.6862346  77.3623459  51.9225548  74.7345939
  81.6869938  54.4239411  77.6957478  81.9055948  55.3556519  77.7145512
  82.0995712  54.0647385  78.4812282  88.6074156  44.9307496  69.6833167
  87.7974884  44.5854581  70.0588413  89.2958573  44.6215040  70.2720778
  90.5364704  44.0085543  71.3057463  91.0895743  44.4280996  71.9647486
  90.7734790  43.0821291  71.3480419  86.5597803  49.9972617  87.0860227
  86.4594530  50.9466974  87.0172318  86.3419345  49.6690856  86.2136297
  77.7778290  55.3279881  75.9481093  77.0841762  54.9133834  75.4351048
  78.5251281  55.3700418  75.3514512  93.9143511  46.1186068  70.8136127
  93.3342180  46.7770872  70.4314180  93.6479444  45.2963413  70.4023545
  92.3647077  45.5191126  73.0157448  92.8646856  45.6307660  72.2071767
  93.0082685  45.2152179  73.6558256  86.4229073  53.4269756  85.9025289
  85.9396155  54.2270116  86.1089178  86.5090012  53.4377700  84.9492733
  82.3502411  57.3174290  77.9393723  83.3045664  57.2858233  77.8723654
  82.1514934  56.8564914  78.7543948  82.9401793  55.8875406  80.5064520
  83.7594682  56.3819485  80.5299357  83.2138601  54.9707374  80.4782088
  92.6968389  48.2786159  69.8692476  91.8094244  48.5635809  69.6512670
  93.1122378  48.1179922  69.0219753  96.0482925  48.3032680  73.5846815
  96.8243315  48.7929132  73.8571432  95.3231059  48.7290734  74.0418684
  98.4855484  49.0160299  74.6420756  99.0799975  48.7756035  73.9314064
  98.5582068  48.2967429  75.2694292  80.7052640  62.8593910  74.9563920
  80.5707107  62.0994311  74.3901918  80.2884702  63.5834810  74.4892709
  92.6709413  53.7940695  70.0842766  92.6144614  54.2509246  69.2450398
  93.2237755  53.0331379  69.9065609  96.4814219  49.5830426  70.9092885
  96.2251153  49.1827062  71.7401093  95.8567087  50.2974220  70.7843025
 100.7926557  52.3226500  73.4164177 100.2326115  52.3919689  74.1895739
 100.1870060  52.1467484  72.6963673  83.8621765  63.7563227  75.1682363
  83.7454150  64.7008659  75.0661053  83.0414212  63.4536788  75.5568162
  93.4044192  54.9845476  67.3795295  93.3492996  54.8189747  66.4383739
  92.7790247  55.6921509  67.5357485  78.1936707  50.2213540  81.2056717
  78.8395571  49.7112494  81.6943942  77.9853858  50.9582222  81.7800143
  90.7190099  57.2894388  86.7048858  91.5881259  57.4635040  86.3435493
  90.2396851  58.1088804  86.5824587  86.7140318  44.4853585  66.9580613
  86.7018987  45.4295425  67.1148884  87.6063739  44.3023730  66.6640075
  84.8876280  64.4091489  78.3838291  85.7903526  64.4415099  78.7004786
  84.6613650  63.4791940  78.3984627  90.5292437  41.0796361  71.2126550
  89.7624833  40.5254848  71.3583233  90.9403142  41.1518230  72.0740702
  82.5334198  47.3681157  85.3031731  83.3965660  47.0117962  85.5135056
  81.9599609  47.0295052  85.9907136 102.3782575  68.9983014  76.1094133
 103.0160985  68.8789761  75.4057473 102.2603418  69.9463858  76.1682085
  99.1872281  68.9510442  76.0455657  98.8490793  68.8351506  75.1576192
 100.0562049  68.5501607  76.0256663  95.0459097  70.8045918  72.0352548
  94.4823962  70.7135855  71.2668836  94.9311492  69.9845823  72.5155041
  99.6692064  70.1045293  82.0041863  99.6580705  69.7098092  81.1322366
  99.8312704  69.3711366  82.5975634  92.5923529  72.2997110  74.8736769
  93.3844821  71.9587934  74.4583068  92.8320179  72.4092085  75.7938922
 100.6258656  74.4716886  67.3467013  99.9746635  75.0570966  66.9601027
 101.4203019  75.0023081  67.4062051  94.5514283  71.5606023  67.7454147
  95.3245159  71.0135010  67.6067023  94.9039682  72.4250272  67.9568609
  96.3899325  72.8882405  80.9521047  96.0989191  73.7928036  80.8367713
  97.0256310  72.9298933  81.6665116  97.3155532  70.2659254  77.5422406
  97.9119105  70.0415276  76.8279369  97.3730504  69.5243999  78.1447854
  96.8880561  67.7198689  65.3772597  97.1406081  67.1980210  64.6156060
  95.9505120  67.5564835  65.4799281 101.9323844  66.7234467  73.1847341
 102.7186933  66.3053891  72.8337758 102.1962548  67.6280560  73.3528989
 102.1033921  72.1607318  67.8835997 101.4679754  72.2341944  68.5956902
 101.7731327  72.7500917  67.2055077 107.3332271  66.6609701  74.0880319
 108.0657443  66.0908917  74.3218149 106.5771626  66.2731301  74.5286825
  96.6076849  69.6226795  67.5796972  96.4913108  68.9471698  68.2478057
  96.7179109  69.1359169  66.7629125  98.9508390  69.0836942  71.2843662
  98.5866598  68.5567563  71.9956583  99.8075506  68.6935411  71.1110147
 104.8557691  60.3731275  78.5474928 104.5241016  61.2426686  78.3236143
 104.2603304  60.0567559  79.2268958  98.5913877  64.1126842  66.2805010
  98.7588280  64.9807078  66.6475481  98.4011046  64.2754124  65.3566299
 101.3489211  72.5743821  77.9470840 101.0489934  73.4768860  77.8386648
 101.0040270  72.3076004  78.7991993 104.7486354  65.0926361  75.6268278
 103.8403232  65.0241769  75.3327039 104.6973950  65.5698306  76.4550103
  98.5703098  66.5684499  67.2651677  98.4502723  67.0141550  68.1037157
  97.8755687  66.9169817  66.7065215  96.3309990  79.3388141  70.9141808
  96.2534020  80.2895966  70.9930289  95.7271634  78.9934014  71.5716734
  98.8227220  66.5116007  83.5703175  98.0460554  67.0709927  83.5606040
  99.4617783  66.9972789  84.0918045 106.6148001  63.2942799  77.4046152
 105.9722381  63.5875332  76.7585946 106.1102929  63.1795720  78.2099348
 104.2688164  67.0405973  68.0932011 105.1806020  67.2733359  67.9179708
 103.7597811  67.6243017  67.5307090  97.0773592  69.3201460  83.1321142
  97.8188277  69.8586504  82.8555966  96.3710578  69.9467749  83.2892694
 102.5528932  71.4630600  81.7293303 102.9612288  71.0213011  80.9847936
 101.8306194  70.8883228  81.9827496  98.9060002  66.4003207  79.1026860
  99.7521197  66.8242621  79.2461509  98.8458640  65.7436831  79.7965424
 102.8757747  72.0231791  75.4845592 102.2466609  72.1877505  74.7821660
 102.4883409  72.4373401  76.2556556 106.7546979  72.9586229  72.8389956
 106.0698017  73.3385130  72.2886989 106.8390828  73.5681555  73.5721904
 102.0559447  64.0607575  80.7608034 101.8120379  64.8149636  80.2242310
 102.3319378  64.4392923  81.5955281 104.0097910  70.6046188  79.4385300
 104.2214805  71.2477948  78.7619681 103.9627658  69.7708504  78.9707230
 101.6124139  63.2164008  76.3421872 100.7508618  63.5145262  76.6338609
 101.6386574  63.4334407  75.4102904  98.4285709  71.7606199  72.7495677
  98.8924054  72.0393902  71.9600300  98.1642507  70.8589644  72.5668768
  95.3209790  71.3077681  75.6875441  95.8911147  71.7364949  75.0492925
  95.9117901  71.0260265  76.3859626  97.3654595  67.8829351  69.5585243
  98.0678638  68.3350395  70.0259169  97.0335223  67.2413170  70.1865136
  95.8134956  66.4741108  83.9336452  95.1833617  67.1557389  84.1671849
  95.7071044  66.3624190  82.9889590 105.1243738  73.4818143  77.6107657
 105.9461182  73.0798331  77.3290339 105.1206141  73.3786377  78.5623773
  98.8900342  73.0302187  79.7668367  98.9544774  73.4922594  80.6026539
  98.1811265  72.3999551  79.8950677 113.2149731  69.8256892  73.9592628
 112.4613440  69.2564290  73.8036633 113.3497272  69.7919556  74.9063263
  98.6048359  74.6970294  69.6347348  98.4694034  75.5421830  70.0632196
  99.1458172  74.8989572  68.8713282  95.0915699  60.7761874  86.2961703
  94.6982644  60.2228072  86.9709347  95.9081839  61.0872452  86.6868221
  92.0577757  72.2145732  70.2075273  92.5702277  73.0088982  70.3580838
  92.7100469  71.5172023  70.1408874  93.8672641  75.3311488  72.2898026
  94.0439270  76.2529453  72.1019010  94.6629475  75.0169908  72.7192406
  98.0083660  62.1919753  83.8881960  98.7493373  62.7926906  83.8086422
  98.2401583  61.4497391  83.3300002  93.1524998  67.3776120  82.1660189
  93.0378513  66.4761377  82.4667288  92.2969516  67.6239817  81.8145006
 100.2316836  75.3193861  83.7647690  99.7880690  74.5330239  83.4468594
 100.8934049  75.5073011  83.0991581  94.9903957  76.8489662  78.2908368
  95.5411382  76.7206726  77.5185362  94.1515433  77.1484551  77.9403261
 102.3298074  75.5996660  81.7929091 102.3116549  76.4205542  81.3009360
 103.2517994  75.4750736  82.0179232  98.7871128  73.1140790  82.6352600
  99.3199465  72.3529078  82.4051908  98.2585209  72.8214442  83.3776754
 101.9540823  58.2200856  78.1646241 101.6105092  59.1102498  78.0885352
 102.3219785  58.0302514  77.3015826  90.0226673  70.5434386  70.9834843
  90.8601895  70.9531395  70.7668551  90.2004941  69.6033829  70.9535037
 101.9191106  68.2109467  66.6718676 101.4037729  68.9814072  66.9107064
 101.6468414  67.5374603  67.2951738  99.5038217  63.0559168  71.7303915
  98.6479813  62.6666018  71.5509553  99.9165168  63.1351129  70.8703700
 101.0337363  60.5905511  76.1295475 100.5302159  60.5535646  75.3163280
 101.3267970  61.4998254  76.1892131  97.2780249  60.6744241  75.1361656
  98.1433246  60.4787049  74.7767546  97.3457758  60.4454593  76.0631013
 106.8925380  70.9641822  68.6071850 106.1154822  70.6252981  68.1627012
 107.5716861  70.9694445  67.9326815 101.7077409  66.0836559  68.4978458
 101.4027544  66.3982708  69.3488601 102.6607851  66.1617979  68.5405791
 100.1523841  72.2426782  70.1471412  99.6245202  71.5079542  69.8344649
  99.6511343  73.0201459  69.9011380 105.1316687  70.4375803  75.2638458
 104.4740361  71.1275064  75.3518586 105.9357086  70.8272235  75.6072444
 103.9422145  68.7920176  73.3142400 104.4554027  69.4250167  73.8164109
 104.5923369  68.1921371  72.9485760  98.2976441  70.0606993  63.1506385
  97.3903502  69.8296246  63.3497534  98.7947473  69.2644612  63.3380366
 101.2044520  78.7704500  66.0703071 100.5306218  79.0736197  66.6788029
 101.5910342  79.5733580  65.7208528 100.4202976  66.2669631  75.5600740
  99.5025538  66.4884578  75.4022428 100.8363120  66.3415942  74.7012447
 101.2038024  67.6661047  70.6903420 101.9509843  68.1782444  70.3810542
 101.4729614  67.3445100  71.5507814  99.4764674  70.1619588  67.6730375
  98.5675893  69.8778620  67.7702844  99.5059758  70.5818666  66.8133682
 104.7083942  73.7726177  71.4421542 104.2546269  72.9317087  71.4986733
 104.0777908  74.4087575  71.7796322 103.6516861  64.7018163  72.6722210
 102.9139618  64.1895549  73.0032452 103.9043635  64.2618545  71.8605487
 103.1516881  75.6102674  72.3771360 103.4439855  76.1707731  71.6583726
 103.6615501  75.9031235  73.1324519 103.7528488  57.4794415  73.2663979
 104.0587365  56.6191779  72.9789894 104.4781093  58.0712035  73.0662973
  98.0249568  67.7748208  73.7740170  98.0798178  66.8222045  73.6982647
  97.2140770  67.9307647  74.2581468  99.1740762  71.7028331  65.0118453
  98.7360192  70.9864190  64.5524091  99.9151203  71.9304446  64.4503545
  98.1150506  76.3883025  73.4664814  98.0726685  76.6143871  72.5373346
  99.0313205  76.1546399  73.6150615 101.5616140  66.8567092  80.3645443
 101.9165528  67.0838566  81.2239909 102.2088271  67.1885469  79.7422698
 107.2913877  69.9785528  71.0694772 107.1531775  70.1687124  70.1415961
 106.9350096  70.7404911  71.5262823 107.3183256  72.0462055  76.0806043
 107.7519763  71.9537344  76.9289097 108.0314837  72.0219556  75.4426059
  96.2316307  73.2646054  73.2626776  97.0256905  72.7696374  73.0609351
  95.5207999  72.7363917  72.8994482 101.0511151  75.6464149  77.6139144
 101.1048174  76.2155086  78.3816860 100.1825933  75.8166034  77.2493181
 108.1798806  72.0885756  78.6138929 108.3734696  72.9931566  78.8598204
 108.0799424  71.6293175  79.4477514  99.8335117  61.9743647  81.1129256
  99.1863032  62.6733596  81.0193732 100.6036132  62.4079790  81.4805504
 103.2413915  72.2392499  84.1879809 103.0899421  72.0103050  83.2709893
 103.2318594  73.1963100  84.2011154 100.0099251  69.8124411  79.1726076
 100.9391311  69.9635571  78.9995043  99.5890281  69.9008432  78.3174722
  98.8087583  73.8375076  76.9424613  98.6698668  73.4693860  77.8150552
  98.0202179  74.3522715  76.7708571  99.4035735  78.9384172  68.2850150
  99.5787490  78.4672216  69.0995773  98.7168523  79.5649939  68.5131411
 100.3592798  73.2156679  74.3313451 100.0242631  73.1757449  75.2271101
  99.8596744  72.5501394  73.8583861 103.2951990  70.5612713  64.6050511
 102.6781160  69.8359541  64.5083564 102.8268478  71.3222073  64.2617585
  96.9619343  68.3344268  79.3449712  97.6718961  67.6937460  79.3036330
  96.9188651  68.5857163  80.2675893 104.9506121  75.2711621  82.2656291
 104.8918667  74.5870841  81.5986874 105.3525640  76.0130611  81.8136917
  95.6748277  65.3209486  81.1645351  95.1385634  64.8700224  81.8166948
  95.0864985  65.4555395  80.4215816  93.9696820  82.0873535  75.0590010
  94.2093418  82.7192059  75.7369029  93.1266017  81.7361575  75.3455369
 104.9523529  73.2351205  80.4970271 104.0650307  72.8977127  80.6196670
 105.5222080  72.5034236  80.7339036  86.6052676  69.5675297  73.8213322
  87.2923715  69.2537027  73.2334338  86.4500804  70.4716662  73.5480574
  98.4824682  77.8952658  77.4631514  98.4094853  78.7007629  77.9750819
  98.0402075  78.0944623  76.6379535  98.2714462  77.1324428  70.9734336
  97.4881983  77.6746108  71.0672560  98.9707207  77.6498407  71.3728577
 101.5811112  62.9419057  73.6168541 102.0779811  62.1889019  73.2969611
 100.8098093  62.9783374  73.0511750 109.4340869  68.6459423  75.2586833
 109.4230745  69.5284138  74.8880766 108.5658248  68.2930973  75.0641370
 100.9423365  77.7939492  79.6189673 101.6551338  78.4286956  79.5465574
 100.4513394  77.8903358  78.8029675 102.6640892  71.6990744  71.1906964
 101.7297171  71.8192207  71.0211669 102.8417561  70.7963211  70.9266974
  98.1646080  65.0836440  73.3440226  97.7943868  64.5307480  74.0321131
  98.6605173  64.4794573  72.7915226 106.0513444  67.5408064  71.7256999
 106.5173896  68.3736055  71.6517301 106.5020944  67.0753045  72.4302257
  95.9935279  75.5433935  80.4395244  96.6944738  76.1770418  80.5924638
  95.5230394  75.8848667  79.6790883 104.1189675  73.8851885  68.7243151
 104.3949519  73.7708479  69.6337025 103.2494174  73.4869370  68.6855324
 104.0230106  59.9088651  75.7647900 103.1093186  60.1392877  75.9330107
 104.4523208  59.9927095  76.6161932 103.7936565  68.0978542  78.2647794
 103.1408015  68.3454450  77.6100247 104.1716945  67.2842681  77.9310271
 100.7543739  78.1338236  72.3675964 100.9366133  77.3159892  72.8303717
 101.5776725  78.3505928  71.9300854 101.0885904  77.0606421  69.6291013
 101.6173671  76.5498875  69.0161175 101.3514124  76.7448951  70.4936546
  99.8424138  68.8398354  84.7513831  99.1664775  68.7392483  85.4216206
 100.6651772  68.6837567  85.2149828  91.5902997  75.0770290  77.3726346
  92.1756434  74.3313978  77.5054250  91.3927835  75.3874247  78.2563010
  94.4441652  78.1121537  72.3888789  93.7752027  78.5967665  71.9052829
  94.3054522  78.3590758  73.3032167  86.1820652  67.6475890  76.0930789
  86.2204751  67.1139481  76.8867907  85.6760945  67.1211096  75.4741767
  98.5846921  80.1465281  78.9871447  99.1365229  80.3096902  79.7520532
  98.9253114  80.7369719  78.3151472  93.5611414  62.4940431  79.5893332
  93.6252741  63.3555262  79.1770729  93.4978534  61.8814432  78.8565690
  93.0363687  64.5663563  83.2366366  93.6635725  64.1840641  83.8503890
  92.1791605  64.3477765  83.6022058 103.4357795  74.9726538  84.8420101
 103.9797699  75.5856497  84.3475056 102.8544640  75.5306117  85.3587114
 101.7215308  78.0947257  75.9735129 101.5966448  77.2936996  75.4646075
 102.3794399  78.5893450  75.4849099 103.7850216  75.8956277  77.6014679
 102.8380552  75.7761628  77.5293006 104.1332990  75.0078775  77.6840941
  96.1449790  61.7850416  81.4252921  96.6684192  62.0312712  82.1879230
  95.9262123  62.6170450  81.0056058 100.7896650  75.6908993  73.8019031
 100.6421612  74.7625700  73.9826602 101.6150143  75.7129084  73.3176107
 104.3930772  76.5137552  74.8883904 105.3177319  76.3080413  74.7508355
 104.2246075  76.2653953  75.7973246  97.3502335  62.7264111  79.1102592
  97.0099155  61.9271924  79.5123272  96.6441341  63.0265821  78.5379425
  98.0018807  59.8113423  77.5629915  98.8244876  59.3373901  77.4408805
  98.2456870  60.5903907  78.0628601 100.7858164  63.5446830  68.7951149
 101.0021778  64.4271468  68.4939977 100.3052231  63.1533044  68.0656791
  97.3853768  63.4935092  75.4202783  97.3715337  62.5976185  75.0835081
  98.1026196  63.5005755  76.0541069  99.2379899  63.9272432  77.4655910
  98.9797677  64.8489503  77.4640241  98.7064939  63.5302866  78.1556374
 104.1826088  77.0323219  70.2445996 104.3562965  76.4669641  69.4919848
 104.6754979  77.8324114  70.0625486  90.0003048  69.0437888  78.3109554
  89.4556516  69.8197696  78.4429829  90.8782398  69.3908693  78.1528676
  99.6581855  60.0604382  73.8257073  99.6803552  60.1243715  72.8709052
 100.0749914  59.2208891  74.0197579 110.0365479  69.7959642  71.8636295
 110.4796625  69.0466967  71.4655419 109.1591989  69.7869778  71.4810027
 105.1701260  76.3489983  67.3442894 105.8652165  76.9696676  67.5630209
 105.5124410  75.4985335  67.6195272  90.7869070  68.1707784  81.2039711
  90.0450806  68.3190420  81.7904342  90.4661814  68.4316050  80.3406461
 107.0692683  73.7989689  68.8730225 107.5944008  74.1376962  68.1479545
 106.9815036  72.8636704  68.6893359  98.7312732  77.7123763  81.0020101
  99.0399859  77.4672909  81.8742801  99.5288214  77.9170401  80.5138972
  98.7533344  79.8661672  73.2325478  98.3138334  79.3738051  73.9258335
  99.5041461  79.3234640  72.9917553  91.2325683  76.0573213  73.2350106
  92.0583703  75.7576985  72.8548750  90.8819735  75.2880836  73.6839895
  96.2007216  75.4099681  75.3047780  95.5787226  74.7470386  75.0050007
  96.8712083  75.4360813  74.6221427  89.4334288  73.9759540  74.1939040
  88.5966197  73.5481714  74.0123041  89.4057934  74.1691983  75.1309831
  96.2731744  63.8881469  84.8980286  96.3219899  64.7643592  84.5158055
  96.8154258  63.3458862  84.3251929 106.7586590  74.4322593  84.1781423
 105.9682133  74.4146731  83.6385922 106.5219944  74.9710886  84.9330459
 106.8784465  71.2815059  81.4914151 106.9282469  71.1165066  82.4329674
 106.7698388  70.4142318  81.1012032  95.7620723  73.9603605  68.7806240
  95.9108844  74.6439069  68.1272913  96.5687167  73.9408695  69.2955696
 104.1688227  67.2645987  82.8073458 105.0698090  67.1252452  82.5157456
 104.2436201  67.4300442  83.7471635  98.5031032  64.6412842  81.6526644
  97.6334342  64.9346408  81.3809233  98.7390513  65.2253287  82.3733908
 108.3802661  73.7012000  81.7356173 108.0887470  74.0641981  82.5719634
 107.7674793  72.9879009  81.5569505 109.5798344  71.2664880  74.2558743
 110.4145235  71.7054684  74.4196303 109.7157472  70.7903533  73.4366989
 106.6289850  68.8244615  80.2036231 107.1043971  69.0172261  79.3955082
 105.7055415  68.8803801  79.9579614  93.5173356  69.9868782  69.7867309
  93.2719398  69.0831112  69.9847519  93.6869271  69.9885933  68.8446787
 101.2070066  60.8592459  79.1692065 101.7252010  61.5953486  78.8438553
 100.8525199  61.1656452  80.0038824 101.4582660  57.2792741  74.6892961
 101.7384414  56.6115930  75.3153388 102.2433267  57.4721837  74.1767625
  99.2616129  76.4551735  66.2517988  98.6890096  77.0741922  65.7988459
  99.8348922  77.0051097  66.7857909 105.3291519  65.7010375  78.4364536
 106.2808942  65.8008473  78.4576760 105.1594969  64.9088644  78.9462621
 103.3505898  62.7865958  78.6223937 102.7555830  63.0670971  77.9270426
 103.0655595  63.2759859  79.3940678 102.4813389  76.7388885  67.3826570
 103.4144062  76.6734447  67.5859445 102.3936601  77.5745152  66.9241102
 105.1101405  76.0554756  64.3430517 105.0315037  75.7214619  65.2366275
 105.9311072  76.5476523  64.3421990 107.8079596  68.9216495  77.5506836
 107.7755917  67.9832496  77.7366520 108.4180220  69.0000532  76.8172661
  99.6462927  67.7912548  63.5934040 100.5922032  67.6618756  63.6622458
  99.2677172  67.0527210  64.0703468 107.9574085  65.7127538  77.5965119
 107.4413134  64.9285995  77.4095048 108.8414033  65.3846255  77.7611639
 105.6184812  59.4568554  73.5560932 105.4209633  59.1483642  74.4404264
 106.2284517  60.1830193  73.6858862 113.6256146  69.9832502  76.6912873
 114.3559535  69.7217790  77.2520576 113.0163092  69.2461224  76.7314941
 111.7071443  68.1240364  77.2887324 110.9804607  67.9896329  76.6803816
 111.2918730  68.4317193  78.0944042  99.5301620  71.8430294  85.0534697
 100.4504629  72.0208893  85.2474744  99.4951203  70.8986339  84.9014396
  97.8305844  65.7162524  63.5288925  96.9237300  65.4195637  63.6051639
  98.1081825  65.4192342  62.6623211  99.4467910  60.2599414  69.6833167
  98.6368638  59.9146499  70.0588413 100.1352327  59.9506958  70.2720778
 101.3758458  59.3377461  71.3057463 101.9289497  59.7572914  71.9647486
 101.6128545  58.4113209  71.3480419  97.3991558  65.3264534  87.0860227
  97.2988285  66.2758891  87.0172318  97.1813100  64.9982773  86.2136297
  96.6004629  62.5749459  63.6700904  97.4623793  62.9004358  63.9296722
  96.7854973  61.7880955  63.1573970  88.6172045  70.6571799  75.9481093
  87.9235516  70.2425752  75.4351048  89.3645036  70.6992336  75.3514512
 104.7537266  61.4477986  70.8136127 104.1735935  62.1062790  70.4314180
 104.4873198  60.6255331  70.4023545 103.2040832  60.8483044  73.0157448
 103.7040610  60.9599578  72.2071767 103.8476440  60.5444096  73.6558256
  97.2622828  68.7561673  85.9025289  96.7789909  69.5562033  86.1089178
  97.3483767  68.7669618  84.9492733  90.5308787  70.5890053  73.8247108
  90.5079475  70.6877740  72.8728991  90.8409424  71.4355204  74.1464274
  93.1896165  72.6466208  77.9393723  94.1439419  72.6150150  77.8723654
  92.9908689  72.1856832  78.7543948  93.7795547  71.2167324  80.5064520
  94.5988436  71.7111403  80.5299357  94.0532355  70.2999292  80.4782088
 103.5362144  63.6078076  69.8692476 102.6487999  63.8927727  69.6512670
 103.9516133  63.4471840  69.0219753 106.8876680  63.6324597  73.5846815
 107.6637070  64.1221050  73.8571432 106.1624814  64.0582651  74.0418684
 109.3249238  64.3452216  74.6420756 109.9193729  64.1047952  73.9314064
 109.3975822  63.6259347  75.2694292  91.5446394  78.1885827  74.9563920
  91.4100862  77.4286228  74.3901918  91.1278456  78.9126727  74.4892709
 102.6805357  73.3722751  63.9640496 103.3841207  73.5772753  64.5798151
 101.9568006  73.9399513  64.2289579 103.5103167  69.1232612  70.0842766
 103.4538369  69.5801164  69.2450398 104.0631510  68.3623297  69.9065609
 107.3207973  64.9122344  70.9092885 107.0644907  64.5118980  71.7401093
 106.6960841  65.6266138  70.7843025 111.6320311  67.6518417  73.4164177
 111.0719869  67.7211607  74.1895739 111.0263814  67.4759402  72.6963673
  94.7015520  79.0855144  75.1682363  94.5847904  80.0300577  75.0661053
  93.8807966  78.7828706  75.5568162 104.5892054  73.8105280  66.0138956
 105.4237658  73.3786479  65.8316431 104.4276397  73.6387294  66.9415850
 104.2437947  70.3137393  67.3795295 104.1886750  70.1481665  66.4383739
 103.6184002  71.0213426  67.5357485  89.0330462  65.5505458  81.2056717
  89.6789325  65.0404412  81.6943942  88.8247613  66.2874139  81.7800143
 101.5583854  72.6186305  86.7048858 102.4275013  72.7926958  86.3435493
 101.0790605  73.4380722  86.5824587  97.5534072  59.8145502  66.9580613
  97.5412742  60.7587342  67.1148884  98.4457494  59.6315648  66.6640075
  95.7270034  79.7383406  78.3838291  96.6297281  79.7707017  78.7004786
  95.5007404  78.8083857  78.3984627  97.4823636  78.4914393  75.0448370
  96.5319267  78.4916254  74.9312742  97.7856122  77.7447127  74.5284405
 101.3686192  56.4088279  71.2126550 100.6018587  55.8546766  71.3583233
 101.7796896  56.4810148  72.0740702  93.3727953  62.6973075  85.3031731
  94.2359414  62.3409880  85.5135056  92.7993363  62.3586970  85.9907136
 113.2176330  84.3274931  76.1094133 113.8554739  84.2081679  75.4057473
 113.0997172  85.2755775  76.1682085 110.0266036  84.2802359  76.0455657
 109.6884547  84.1643424  75.1576192 110.8955804  83.8793524  76.0256663
 105.8852851  86.1337836  72.0352548 105.3217717  86.0427773  71.2668836
 105.7705247  85.3137740  72.5155041 110.5085819  85.4337211  82.0041863
 110.4974460  85.0390009  81.1322366 110.6706458  84.7003284  82.5975634
 103.4317283  87.6289027  74.8736769 104.2238575  87.2879852  74.4583068
 103.6713934  87.7384002  75.7938922 111.4652410  89.8008803  67.3467013
 110.8140390  90.3862884  66.9601027 112.2596773  90.3314998  67.4062051
 105.3908037  86.8897941  67.7454147 106.1638913  86.3426928  67.6067023
 105.7433436  87.7542190  67.9568609 107.2293080  88.2174323  80.9521047
 106.9382946  89.1219954  80.8367713 107.8650064  88.2590851  81.6665116
 108.1549287  85.5951171  77.5422406 108.7512859  85.3707194  76.8279369
 108.2124258  84.8535917  78.1447854 107.7274315  83.0490607  65.3772597
 107.9799836  82.5272128  64.6156060 106.7898874  82.8856752  65.4799281
 112.7717598  82.0526385  73.1847341 113.5580687  81.6345808  72.8337758
 113.0356302  82.9572477  73.3528989 112.9427675  87.4899235  67.8835997
 112.3073508  87.5633862  68.5956902 112.6125082  88.0792834  67.2055077
 118.1726025  81.9901618  74.0880319 118.9051197  81.4200835  74.3218149
 117.4165381  81.6023219  74.5286825 107.4470604  84.9518713  67.5796972
 107.3306862  84.2763616  68.2478057 107.5572864  84.4651087  66.7629125
 109.7902145  84.4128860  71.2843662 109.4260352  83.8859481  71.9956583
 110.6469261  84.0227329  71.1110147 115.6951445  75.7023192  78.5474928
 115.3634770  76.5718603  78.3236143 115.0997059  75.3859476  79.2268958
 109.4307632  79.4418760  66.2805010 109.5982034  80.3098996  66.6475481
 109.2404801  79.6046041  65.3566299 112.1882965  87.9035738  77.9470840
 111.8883688  88.8060777  77.8386648 111.8434025  87.6367922  78.7991993
 105.6395446  84.3549535  73.9807545 104.7145943  84.2225749  74.1885237
 105.8879860  85.1343755  74.4777487 115.5880109  80.4218279  75.6268278
 114.6796986  80.3533687  75.3327039 115.5367705  80.8990224  76.4550103
 109.4096853  81.8976417  67.2651677 109.2896478  82.3433468  68.1037157
 108.7149441  82.2461735  66.7065215 103.0004258  83.9982809  74.8151334
 103.1296639  84.2517288  75.7290746 102.3201709  84.5910517  74.4955989
 107.1703745  94.6680059  70.9141808 107.0927775  95.6187884  70.9930289
 106.5665388  94.3225931  71.5716734 109.6620975  81.8407924  83.5703175
 108.8854309  82.4001844  83.5606040 110.3011538  82.3264707  84.0918045
 117.4541755  78.6234717  77.4046152 116.8116135  78.9167250  76.7585946
 116.9496684  78.5087637  78.2099348 115.1081919  82.3697890  68.0932011
 116.0199775  82.6025277  67.9179708 114.5991566  82.9534934  67.5307090
 107.9167347  84.6493378  83.1321142 108.6582031  85.1878422  82.8555966
 107.2104332  85.2759666  83.2892694 113.3922687  86.7922518  81.7293303
 113.8006043  86.3504929  80.9847936 112.6699948  86.2175146  81.9827496
 109.7453757  81.7295125  79.1026860 110.5914952  82.1534538  79.2461509
 109.6852394  81.0728749  79.7965424 113.7151501  87.3523709  75.4845592
 113.0860364  87.5169423  74.7821660 113.3277163  87.7665318  76.2556556
 117.5940733  88.2878146  72.8389956 116.9091771  88.6677048  72.2886989
 117.6784582  88.8973473  73.5721904 112.8953202  79.3899493  80.7608034
 112.6514134  80.1441554  80.2242310 113.1713132  79.7684841  81.5955281
 114.8491665  85.9338106  79.4385300 115.0608560  86.5769865  78.7619681
 114.8021413  85.1000422  78.9707230 112.4517894  78.5455926  76.3421872
 111.5902373  78.8437180  76.6338609 112.4780328  78.7626325  75.4102904
 109.2679463  87.0898117  72.7495677 109.7317809  87.3685820  71.9600300
 109.0036261  86.1881561  72.5668768 106.1603544  86.6369598  75.6875441
 106.7304901  87.0656867  75.0492925 106.7511656  86.3552183  76.3859626
 108.2048349  83.2121269  69.5585243 108.9072392  83.6642313  70.0259169
 107.8728978  82.5705088  70.1865136 106.6528711  81.8033026  83.9336452
 106.0227371  82.4849307  84.1671849 106.5464799  81.6916107  82.9889590
 101.9473683  81.4704822  74.8602376 101.1572737  81.7262350  74.3842487
 102.4384930  82.2853160  74.9654417 115.9637493  88.8110061  77.6107657
 116.7854936  88.4090248  77.3290339 115.9599895  88.7078295  78.5623773
 103.8988428  81.8349401  71.8185853 103.1019592  81.9468095  72.3369349
 103.6714021  82.1736053  70.9526743 109.7294096  88.3594104  79.7668367
 109.7938529  88.8214511  80.6026539 109.0205020  87.7291469  79.8950677
 100.2311386  81.7235312  77.2917367 100.4819424  82.6082322  77.5574943
 100.7670934  81.5439914  76.5192459 109.4442114  90.0262212  69.6347348
 109.3087789  90.8713747  70.0632196 109.9851926  90.2281489  68.8713282
 105.9309453  76.1053792  86.2961703 105.5376399  75.5519990  86.9709347
 106.7475594  76.4164370  86.6868221 102.8971511  87.5437650  70.2075273
 103.4096032  88.3380900  70.3580838 103.5494224  86.8463940  70.1408874
 104.7066396  90.6603406  72.2898026 104.8833024  91.5821371  72.1019010
 105.5023229  90.3461825  72.7192406 108.8477414  77.5211671  83.8881960
 109.5887128  78.1218824  83.8086422 109.0795337  76.7789308  83.3300002
 103.9918752  82.7068038  82.1660189 103.8772267  81.8053295  82.4667288
 103.1363270  82.9531735  81.8145006 111.0710590  90.6485778  83.7647690
 110.6274444  89.8622157  83.4468594 111.7327804  90.8364929  83.0991581
 105.8297711  92.1781580  78.2908368 106.3805136  92.0498643  77.5185362
 104.9909187  92.4776469  77.9403261 113.1691828  90.9288578  81.7929091
 113.1510304  91.7497459  81.3009360 114.0911748  90.8042653  82.0179232
 109.6264882  88.4432708  82.6352600 110.1593219  87.6820996  82.4051908
 109.0978963  88.1506359  83.3776754 112.7934577  73.5492774  78.1646241
 112.4498847  74.4394415  78.0885352 113.1613540  73.3594431  77.3015826
 100.8620428  85.8726304  70.9834843 101.6995650  86.2823312  70.7668551
 101.0398696  84.9325746  70.9535037 112.7584860  83.5401385  66.6718676
 112.2431483  84.3105989  66.9107064 112.4862168  82.8666521  67.2951738
 110.3431971  78.3851085  71.7303915 109.4873567  77.9957936  71.5509553
 110.7558923  78.4643046  70.8703700 111.8731118  75.9197429  76.1295475
 111.3695913  75.8827564  75.3163280 112.1661725  76.8290171  76.1892131
 108.1174004  76.0036158  75.1361656 108.9827000  75.8078967  74.7767546
 108.1851512  75.7746510  76.0631013 117.7319134  86.2933739  68.6071850
 116.9548577  85.9544899  68.1627012 118.4110615  86.2986363  67.9326815
 112.5471163  81.4128477  68.4978458 112.2421299  81.7274626  69.3488601
 113.5001605  81.4909897  68.5405791 110.9917595  87.5718700  70.1471412
 110.4638957  86.8371460  69.8344649 110.4905098  88.3493376  69.9011380
 115.9710441  85.7667721  75.2638458 115.3134115  86.4566982  75.3518586
 116.7750840  86.1564153  75.6072444 105.7236323  78.2338366  72.5078023
 106.2980075  78.0113548  71.7751216 106.3107305  78.3027061  73.2606624
 114.7815900  84.1212093  73.3142400 115.2947782  84.7542085  73.8164109
 115.4317124  83.5213289  72.9485760 106.0505910  80.2642827  66.5273908
 105.2143222  80.6017514  66.8483183 105.9110679  80.1291807  65.5901045
 108.0258990  75.1079615  71.2353092 107.3723403  74.7928632  70.6109707
 107.9839464  74.4855356  71.9612915 109.1370195  85.3898910  63.1506385
 108.2297257  85.1588164  63.3497534 109.6341227  84.5936530  63.3380366
 112.0438274  94.0996418  66.0703071 111.3699973  94.4028114  66.6788029
 112.4304096  94.9025498  65.7208528 111.2596731  81.5961549  75.5600740
 110.3419292  81.8176496  75.4022428 111.6756874  81.6707859  74.7012447
 112.0431778  82.9952965  70.6903420 112.7903597  83.5074362  70.3810542
 112.3123368  82.6737017  71.5507814 110.3158429  85.4911505  67.6730375
 109.4069648  85.2070538  67.7702844 110.3453512  85.9110584  66.8133682
 115.5477696  89.1018095  71.4421542 115.0940023  88.2609005  71.4986733
 114.9171663  89.7379493  71.7796322 114.4910616  80.0310081  72.6722210
 113.7533372  79.5187467  73.0032452 114.7437389  79.5910462  71.8605487
 113.9910635  90.9394591  72.3771360 114.2833610  91.4999649  71.6583726
 114.5009256  91.2323152  73.1324519 114.5922243  72.8086333  73.2663979
 114.8981120  71.9483696  72.9789894 115.3174848  73.4003953  73.0662973
 100.8846599  83.2117019  71.6545577 100.6870999  82.6186380  70.9296643
 100.3293263  82.9069230  72.3721516 108.8643323  83.1040126  73.7740170
 108.9191932  82.1513962  73.6982647 108.0534525  83.2599565  74.2581468
 110.0134516  87.0320249  65.0118453 109.5753946  86.3156108  64.5524091
 110.7544957  87.2596364  64.4503545 106.8035683  81.7217186  71.5330549
 105.9903548  82.0211356  71.9395741 107.2994677  81.3272874  72.2505031
 108.9544260  91.7174943  73.4664814 108.9120439  91.9435789  72.5373346
 109.8706959  91.4838317  73.6150615 112.4009894  82.1859010  80.3645443
 112.7559282  82.4130483  81.2239909 113.0482026  82.5177387  79.7422698
 118.1307631  85.3077446  71.0694772 117.9925530  85.4979042  70.1415961
 117.7743850  86.0696829  71.5262823 106.2949757  79.2935541  77.1491784
 106.9349137  79.1524300  76.4514747 105.4627288  79.0070055  76.7730386
 118.1577011  87.3753973  76.0806043 118.5913518  87.2829262  76.9289097
 118.8708592  87.3511473  75.4426059 107.0710061  88.5937972  73.2626776
 107.8650660  88.0988292  73.0609351 106.3601754  88.0655835  72.8994482
 111.8904906  90.9756067  77.6139144 111.9441928  91.5447003  78.3816860
 111.0219687  91.1457952  77.2493181 103.3792825  82.7381053  69.3386529
 102.4490413  82.6765509  69.5556491 103.4750297  82.2157006  68.5423170
 103.2978374  79.2635866  71.9264771 103.5585191  80.1781199  71.8173931
 104.1195546  78.7960309  72.0761383 104.7703299  80.6773623  79.0963595
 105.4426353  80.4690985  78.4476244 103.9433086  80.4795709  78.6568827
 119.0192560  87.4177674  78.6138929 119.2128450  88.3223484  78.8598204
 118.9193179  86.9585093  79.4477514 110.6728871  77.3035564  81.1129256
 110.0256786  78.0025514  81.0193732 111.4429887  77.7371708  81.4805504
 114.0807669  87.5684416  84.1879809 113.9293175  87.3394968  83.2709893
 114.0712349  88.5255018  84.2011154 110.8493005  85.1416329  79.1726076
 111.7785065  85.2927489  78.9995043 110.4284035  85.2300350  78.3174722
 109.6481337  89.1666994  76.9424613 109.5092423  88.7985778  77.8150552
 108.8595933  89.6814633  76.7708571 110.2429489  94.2676090  68.2850150
 110.4181245  93.7964133  69.0995773 109.5562277  94.8941856  68.5131411
 111.1986552  88.5448596  74.3313451 110.8636385  88.5049366  75.2271101
 110.6990498  87.8793312  73.8583861 105.1730796  83.9516226  79.8566032
 105.0350594  83.2196465  80.4577571 106.0835720  83.8625126  79.5750220
 114.1345744  85.8904631  64.6050511 113.5174915  85.1651459  64.5083564
 113.6662233  86.6513991  64.2617585 107.8013097  83.6636186  79.3449712
 108.5112716  83.0229378  79.3036330 107.7582405  83.9149080  80.2675893
 115.7899876  90.6003539  82.2656291 115.7312422  89.9162759  81.5986874
 116.1919394  91.3422529  81.8136917 106.5142031  80.6501403  81.1645351
 105.9779388  80.1992142  81.8166948 105.9258739  80.7847312  80.4215816
 104.8090575  97.4165453  75.0590010 105.0487173  98.0483977  75.7369029
 103.9659771  97.0653493  75.3455369 105.9244290  80.1090055  63.7271815
 105.0473756  79.9878856  63.3634062 106.4002043  79.3176133  63.4750704
 115.7917283  88.5643123  80.4970271 114.9044062  88.2269045  80.6196670
 116.3615834  87.8326154  80.7339036  97.4446430  84.8967215  73.8213322
  98.1317470  84.5828945  73.2334338  97.2894559  85.8008579  73.5480574
 102.2481152  79.7857411  78.2498346 102.1639341  79.1783081  77.5148756
 101.4263859  80.2766429  78.2507842 109.3218436  93.2244575  77.4631514
 109.2488608  94.0299547  77.9750819 108.8795829  93.4236541  76.6379535
 109.1108216  92.4616345  70.9734336 108.3275738  93.0038025  71.0672560
 109.8100961  92.9790325  71.3728577 112.4204866  78.2710975  73.6168541
 112.9173566  77.5180937  73.2969611 111.6491848  78.3075291  73.0511750
 120.2734624  83.9751340  75.2586833 120.2624500  84.8576056  74.8880766
 119.4052003  83.6222891  75.0641370 111.7817120  93.1231409  79.6189673
 112.4945092  93.7578874  79.5465574 111.2907149  93.2195275  78.8029675
 113.5034647  87.0282662  71.1906964 112.5690926  87.1484124  71.0211669
 113.6811315  86.1255129  70.9266974 109.0039835  80.4128358  73.3440226
 108.6337622  79.8599398  74.0321131 109.4998927  79.8086491  72.7915226
 116.8907198  82.8699981  71.7256999 117.3567650  83.7027973  71.6517301
 117.3414699  82.4044963  72.4302257 106.8329033  90.8725853  80.4395244
 107.5338493  91.5062336  80.5924638 106.3624148  91.2140584  79.6790883
 114.9583429  89.2143802  68.7243151 115.2343273  89.1000397  69.6337025
 114.0887928  88.8161287  68.6855324 114.8623861  75.2380568  75.7647900
 113.9486941  75.4684795  75.9330107 115.2916962  75.3219012  76.6161932
 114.6330319  83.4270460  78.2647794 113.9801770  83.6746368  77.6100247
 115.0110699  82.6134598  77.9310271 111.5937493  93.4630153  72.3675964
 111.7759888  92.6451809  72.8303717 112.4170479  93.6797846  71.9300854
 111.9279659  92.3898338  69.6291013 112.4567425  91.8790793  69.0161175
 112.1907878  92.0740869  70.4936546 110.6817892  84.1690271  84.7513831
 110.0058529  84.0684401  85.4216206 111.5045526  84.0129485  85.2149828
 102.4296752  90.4062208  77.3726346 103.0150188  89.6605896  77.5054250
 102.2321590  90.7166164  78.2563010 105.2835407  93.4413455  72.3888789
 104.6145782  93.9259583  71.9052829 105.1448276  93.6882676  73.3032167
  97.0214406  82.9767808  76.0930789  97.0598506  82.4431399  76.8867907
  96.5154699  82.4503013  75.4741767 109.4240675  95.4757199  78.9871447
 109.9758983  95.6388820  79.7520532 109.7646869  96.0661636  78.3151472
 104.4005169  77.8232348  79.5893332 104.4646495  78.6847179  79.1770729
 104.3372289  77.2106350  78.8565690 103.8757441  79.8955481  83.2366366
 104.5029480  79.5132558  83.8503890 103.0185360  79.6769683  83.6022058
 114.2751550  90.3018456  84.8420101 114.8191454  90.9148414  84.3475056
 113.6938394  90.8598035  85.3587114 100.6522984  81.7031910  69.1684721
 100.9476425  80.7942589  69.1151774  99.7511020  81.6819650  68.8465723
 112.5609063  93.4239174  75.9735129 112.4360202  92.6228914  75.4646075
 113.2188154  93.9185368  75.4849099 104.1817231  79.7787907  75.1512269
 103.4603817  80.3923874  75.0119743 104.9710487  80.3145672  75.0728915
 114.6243971  91.2248194  77.6014679 113.6774307  91.1053545  77.5293006
 114.9726744  90.3370692  77.6840941 106.9843544  77.1142333  81.4252921
 107.5077946  77.3604630  82.1879230 106.7655878  77.9462368  81.0056058
 102.3810825  79.3846008  69.2924046 102.0523532  78.5043387  69.1099152
 102.7350196  79.3293676  70.1800435 111.6290404  91.0200910  73.8019031
 111.4815367  90.0917618  73.9826602 112.4543898  91.0421001  73.3176107
 105.4952649  79.6718978  69.6599524 105.8348721  80.2004899  68.9378132
 105.9424769  80.0099384  70.4358090 115.2324526  91.8429469  74.8883904
 116.1571074  91.6372331  74.7508355 115.0639829  91.5945870  75.7973246
 108.1896089  78.0556028  79.1102592 107.8492910  77.2563841  79.5123272
 107.4835096  78.3557739  78.5379425 108.8412561  75.1405341  77.5629915
 109.6638631  74.6665819  77.4408805 109.0850625  75.9195824  78.0628601
 107.4820796  78.1693599  67.8592816 108.2029158  78.5474852  67.3556533
 106.8586100  78.8882476  67.9627794 111.6251919  78.8738748  68.7951149
 111.8415533  79.7563386  68.4939977 111.1445986  78.4824962  68.0656791
 106.3651140  81.8324461  75.3721893 106.2195721  82.1464764  76.2646175
 105.8876344  82.4509362  74.8192792 108.2247523  78.8227009  75.4202783
 108.2109092  77.9268103  75.0835081 108.9419951  78.8297673  76.0541069
 110.0773654  79.2564350  77.4655910 109.8191431  80.1781420  77.4640241
 109.5458694  78.8594784  78.1556374 115.0219842  92.3615137  70.2445996
 115.1956720  91.7961559  69.4919848 115.5148734  93.1616032  70.0625486
 100.8396802  84.3729806  78.3109554 100.2950270  85.1489614  78.4429829
 101.7176152  84.7200610  78.1528676 107.6284419  77.7041390  70.6890353
 107.7500330  76.7758036  70.8881240 107.3386461  77.7180076  69.7768668
 110.4975609  75.3896300  73.8257073 110.5197306  75.4535633  72.8709052
 110.9143668  74.5500809  74.0197579 120.8759233  85.1251560  71.8636295
 121.3190380  84.3758885  71.4655419 119.9985744  85.1161696  71.4810027
 116.0095015  91.6781901  67.3442894 116.7045919  92.2988594  67.5630209
 116.3518165  90.8277252  67.6195272 101.6262824  83.4999702  81.2039711
 100.8844560  83.6482337  81.7904342 101.3055568  83.7607968  80.3406461
 117.9086438  89.1281607  68.8730225 118.4337762  89.4668879  68.1479545
 117.8208790  88.1928622  68.6893359 109.5706487  93.0415680  81.0020101
 109.8793613  92.7964827  81.8742801 110.3681969  93.2462319  80.5138972
 109.5927099  95.1953590  73.2325478 109.1532089  94.7029969  73.9258335
 110.3435216  94.6526558  72.9917553 102.0719438  91.3865131  73.2350106
 102.8977458  91.0868903  72.8548750 101.7213490  90.6172753  73.6839895
 107.0400971  90.7391599  75.3047780 106.4180980  90.0762304  75.0050007
 107.7105838  90.7652731  74.6221427 100.2728043  89.3051457  74.1939040
  99.4359951  88.8773632  74.0123041 100.2451688  89.4983901  75.1309831
 107.1125498  79.2173387  84.8980286 107.1613654  80.0935510  84.5158055
 107.6548013  78.6750780  84.3251929 117.5980344  89.7614510  84.1781423
 116.8075888  89.7438649  83.6385922 117.3613699  90.3002804  84.9330459
 117.7178219  86.6106977  81.4914151 117.7676224  86.4456984  82.4329674
 117.6092142  85.7434236  81.1012032 106.6014478  89.2895522  68.7806240
 106.7502598  89.9730987  68.1272913 107.4080921  89.2700612  69.2955696
 115.0081981  82.5937905  82.8073458 115.9091844  82.4544369  82.5157456
 115.0829956  82.7592359  83.7471635 109.3424787  79.9704759  81.6526644
 108.4728096  80.2638325  81.3809233 109.5784267  80.5545204  82.3733908
 119.2196416  89.0303918  81.7356173 118.9281224  89.3933899  82.5719634
 118.6068547  88.3170926  81.5569505 120.4192098  86.5956798  74.2558743
 121.2538990  87.0346602  74.4196303 120.5551227  86.1195451  73.4366989
 117.4683604  84.1536533  80.2036231 117.9437726  84.3464179  79.3955082
 116.5449169  84.2095719  79.9579614 104.3567111  85.3160700  69.7867309
 104.1113153  84.4123030  69.9847519 104.5263025  85.3177850  68.8446787
 112.0463821  76.1884376  79.1692065 112.5645764  76.9245403  78.8438553
 111.6918953  76.4948370  80.0038824 103.6262758  81.0489058  67.2853470
 102.9332003  81.1233413  66.6293506 103.3814510  80.2849401  67.8074987
 112.2976415  72.6084659  74.6892961 112.5778169  71.9407848  75.3153388
 113.0827022  72.8013754  74.1767625 110.1009883  91.7843653  66.2517988
 109.5283850  92.4033840  65.7988459 110.6742677  92.3343014  66.7857909
 116.1685273  81.0302293  78.4364536 117.1202696  81.1300391  78.4576760
 115.9988724  80.2380561  78.9462621 114.1899653  78.1157876  78.6223937
 113.5949585  78.3962889  77.9270426 113.9049349  78.6051777  79.3940678
 113.3207143  92.0680803  67.3826570 114.2537816  92.0026365  67.5859445
 113.2330356  92.9037070  66.9241102 115.9495160  91.3846673  64.3430517
 115.8708791  91.0506537  65.2366275 116.7704827  91.8768441  64.3421990
 118.6473351  84.2508413  77.5506836 118.6149671  83.3124413  77.7366520
 119.2573975  84.3292449  76.8172661 110.4856682  83.1204466  63.5934040
 111.4315786  82.9910674  63.6622458 110.1070927  82.3819127  64.0703468
 118.7967839  81.0419456  77.5965119 118.2806888  80.2577913  77.4095048
 119.6807788  80.7138173  77.7611639 116.4578566  74.7860472  73.5560932
 116.2603387  74.4775560  74.4404264 117.0678272  75.5122110  73.6858862
 110.3695374  87.1722212  85.0534697 111.2898384  87.3500811  85.2474744
 110.3344957  86.2278257  84.9014396 108.6699599  81.0454442  63.5288925
 107.7631054  80.7487555  63.6051639 108.9475580  80.7484260  62.6623211
  99.5877539  82.3660805  73.9787972  99.2680324  81.5126114  73.6862346
  99.0410967  82.5809383  74.7345939 103.3657447  85.0823246  77.6957478
 103.5843457  86.0140354  77.7145512 103.7783221  84.7231221  78.4812282
 110.2861665  75.5891332  69.6833167 109.4762393  75.2438417  70.0588413
 110.9746082  75.2798875  70.2720778 112.2152213  74.6669378  71.3057463
 112.7683252  75.0864832  71.9647486 112.4522299  73.7405127  71.3480419
 108.2385312  80.6556452  87.0860227 108.1382039  81.6050809  87.0172318
 108.0206854  80.3274691  86.2136297 107.4398384  77.9041377  63.6700904
 108.3017548  78.2296275  63.9296722 107.6248728  77.1172873  63.1573970
  99.4565799  85.9863717  75.9481093  98.7629271  85.5717670  75.4351048
 100.2038790  86.0284253  75.3514512 115.5931020  76.7769904  70.8136127
 115.0129689  77.4354708  70.4314180 115.3266953  75.9547248  70.4023545
 114.0434586  76.1774961  73.0157448 114.5434365  76.2891496  72.2071767
 114.6870194  75.8736014  73.6558256 108.1016582  84.0853591  85.9025289
 107.6183664  84.8853951  86.1089178 108.1877521  84.0961536  84.9492733
 101.3702542  85.9181971  73.8247108 101.3473230  86.0169658  72.8728991
 101.6803178  86.7647121  74.1464274 104.0289920  87.9758126  77.9393723
 104.9833173  87.9442068  77.8723654 103.8302443  87.5148749  78.7543948
 104.6189302  86.5459242  80.5064520 105.4382191  87.0403320  80.5299357
 104.8926110  85.6291210  80.4782088 114.3755898  78.9369994  69.8692476
 113.4881753  79.2219645  69.6512670 114.7909887  78.7763757  69.0219753
 117.7270434  78.9616515  73.5846815 118.5030824  79.4512967  73.8571432
 117.0018568  79.3874569  74.0418684 120.1642993  79.6744134  74.6420756
 120.7587484  79.4339870  73.9314064 120.2369576  78.9551265  75.2694292
 102.3840148  93.5177745  74.9563920 102.2494616  92.7578146  74.3901918
 101.9672211  94.2418645  74.4892709 113.5199112  88.7014669  63.9640496
 114.2234962  88.9064671  64.5798151 112.7961760  89.2691431  64.2289579
 114.3496922  84.4524530  70.0842766 114.2932123  84.9093081  69.2450398
 114.9025264  83.6915214  69.9065609 118.1601728  80.2414262  70.9092885
 117.9038662  79.8410897  71.7401093 117.5354596  80.9558056  70.7843025
 122.4714066  82.9810335  73.4164177 121.9113624  83.0503524  74.1895739
 121.8657569  82.8051320  72.6963673 105.5409274  94.4147062  75.1682363
 105.4241659  95.3592495  75.0661053 104.7201721  94.1120624  75.5568162
 115.4285809  89.1397198  66.0138956 116.2631413  88.7078396  65.8316431
 115.2670152  88.9679212  66.9415850 115.0831701  85.6429311  67.3795295
 115.0280505  85.4773583  66.4383739 114.4577756  86.3505344  67.5357485
  99.8724216  80.8797376  81.2056717 100.5183080  80.3696329  81.6943942
  99.6641367  81.6166057  81.7800143 112.3977608  87.9478223  86.7048858
 113.2668768  88.1218875  86.3435493 111.9184360  88.7672640  86.5824587
 108.3927827  75.1437420  66.9580613 108.3806496  76.0879260  67.1148884
 109.2851248  74.9607566  66.6640075 106.5663788  95.0675324  78.3838291
 107.4691035  95.0998934  78.7004786 106.3401159  94.1375775  78.3984627
 108.3217391  93.8206311  75.0448370 107.3713022  93.8208172  74.9312742
 108.6249877  93.0739045  74.5284405 112.2079946  71.7380197  71.2126550
 111.4412342  71.1838683  71.3583233 112.6190651  71.8102066  72.0740702
 104.2121707  78.0264993  85.3031731 105.0753169  77.6701797  85.5135056
 103.6387118  77.6878887  85.9907136 120.8659790  99.6094277  76.0455657
 120.5278302  99.4935342  75.1576192 121.7349558  99.2085442  76.0256663
 116.7246606 101.4629753  72.0352548 116.1611471 101.3719690  71.2668836
 116.6099001 100.6429658  72.5155041 121.3479573 100.7629129  82.0041863
 121.3368214 100.3681927  81.1322366 121.5100213 100.0295201  82.5975634
 114.2711038 102.9580945  74.8736769 115.0632330 102.6171770  74.4583068
 114.5107688 103.0675920  75.7938922 116.2301792 102.2189858  67.7454147
 117.0032668 101.6718845  67.6067023 116.5827191 103.0834108  67.9568609
 118.0686834 103.5466241  80.9521047 117.7776700 104.4511871  80.8367713
 118.7043819 103.5882768  81.6665116 118.9943041 100.9243089  77.5422406
 119.5906614 100.6999112  76.8279369 119.0518013 100.1827835  78.1447854
 118.5668070  98.3782524  65.3772597 118.8193590  97.8564046  64.6156060
 117.6292629  98.2148670  65.4799281 118.2864358 100.2810630  67.5796972
 118.1700617  99.6055534  68.2478057 118.3966618  99.7943004  66.7629125
 120.6295899  99.7420777  71.2843662 120.2654107  99.2151398  71.9956583
 121.4863015  99.3519247  71.1110147 120.2701386  94.7710677  66.2805010
 120.4375789  95.6390914  66.6475481 120.0798555  94.9337959  65.3566299
 116.4789201  99.6841453  73.9807545 115.5539697  99.5517667  74.1885237
 116.7273614 100.4635672  74.4777487 120.2490607  97.2268335  67.2651677
 120.1290232  97.6725385  68.1037157 119.5543196  97.5753652  66.7065215
 113.8398012  99.3274726  74.8151334 113.9690393  99.5809205  75.7290746
 113.1595463  99.9202434  74.4955989 120.5014729  97.1699842  83.5703175
 119.7248063  97.7293762  83.5606040 121.1405292  97.6556625  84.0918045
 118.7561101  99.9785295  83.1321142 119.4975786 100.5170339  82.8555966
 118.0498087 100.6051584  83.2892694 120.5847511  97.0587042  79.1026860
 121.4308706  97.4826456  79.2461509 120.5246149  96.4020667  79.7965424
 120.1073218 102.4190034  72.7495677 120.5711563 102.6977737  71.9600300
 119.8430016 101.5173479  72.5668768 116.9997299 101.9661516  75.6875441
 117.5698656 102.3948784  75.0492925 117.5905410 101.6844101  76.3859626
 119.0442104  98.5413187  69.5585243 119.7466147  98.9934230  70.0259169
 118.7122732  97.8997006  70.1865136 117.4922465  97.1324943  83.9336452
 116.8621126  97.8141224  84.1671849 117.3858553  97.0208025  82.9889590
 112.7867438  96.7996739  74.8602376 111.9966492  97.0554268  74.3842487
 113.2778685  97.6145077  74.9654417 114.7382183  97.1641319  71.8185853
 113.9413346  97.2760013  72.3369349 114.5107775  97.5027971  70.9526743
 120.5687851 103.6886022  79.7668367 120.6332283 104.1506429  80.6026539
 119.8598774 103.0583387  79.8950677 111.0705141  97.0527230  77.2917367
 111.3213179  97.9374240  77.5574943 111.6064689  96.8731831  76.5192459
 120.2835868 105.3554129  69.6347348 120.1481543 106.2005665  70.0632196
 120.8245681 105.5573407  68.8713282 116.7703208  91.4345709  86.2961703
 116.3770153  90.8811908  86.9709347 117.5869348  91.7456288  86.6868221
 113.7365266 102.8729567  70.2075273 114.2489786 103.6672818  70.3580838
 114.3887978 102.1755858  70.1408874 115.5460150 105.9895324  72.2898026
 115.7226779 106.9113288  72.1019010 116.3416984 105.6753743  72.7192406
 119.6871169  92.8503588  83.8881960 120.4280882  93.4510741  83.8086422
 119.9189092  92.1081226  83.3300002 114.8312507  98.0359956  82.1660189
 114.7166022  97.1345213  82.4667288 113.9757025  98.2823652  81.8145006
 116.6691466 107.5073497  78.2908368 117.2198891 107.3790561  77.5185362
 115.8302942 107.8068387  77.9403261 120.4658637 103.7724625  82.6352600
 120.9986974 103.0112914  82.4051908 119.9372718 103.4798277  83.3776754
 111.7014182 101.2018222  70.9834843 112.5389404 101.6115230  70.7668551
 111.8792450 100.2617664  70.9535037 121.1825726  93.7143003  71.7303915
 120.3267322  93.3249854  71.5509553 121.5952677  93.7934964  70.8703700
 118.9567758  91.3328076  75.1361656 119.8220755  91.1370885  74.7767546
 119.0245267  91.1038428  76.0631013 121.8311350 102.9010618  70.1471412
 121.3032711 102.1663377  69.8344649 121.3298852 103.6785294  69.9011380
 116.5630077  93.5630284  72.5078023 117.1373829  93.3405466  71.7751216
 117.1501060  93.6318979  73.2606624 116.8899664  95.5934745  66.5273908
 116.0536976  95.9309432  66.8483183 116.7504434  95.4583725  65.5901045
 118.8652745  90.4371533  71.2353092 118.2117157  90.1220550  70.6109707
 118.8233219  89.8147273  71.9612915 119.9763950 100.7190828  63.1506385
 119.0691011 100.4880082  63.3497534 120.4734982  99.9228447  63.3380366
 121.1552183 100.8203423  67.6730375 120.2463402 100.5362456  67.7702844
 121.1847267 101.2402501  66.8133682 111.7240354  98.5408937  71.6545577
 111.5264753  97.9478298  70.9296643 111.1687018  98.2361147  72.3721516
 119.7037077  98.4332044  73.7740170 119.7585687  97.4805880  73.6982647
 118.8928279  98.5891483  74.2581468 120.8528271 102.3612167  65.0118453
 120.4147701 101.6448026  64.5524091 121.5938712 102.5888281  64.4503545
 117.6429437  97.0509103  71.5330549 116.8297303  97.3503274  71.9395741
 118.1388431  96.6564792  72.2505031 117.1343512  94.6227459  77.1491784
 117.7742891  94.4816218  76.4514747 116.3021042  94.3361972  76.7730386
 117.9103816 103.9229889  73.2626776 118.7044414 103.4280209  73.0609351
 117.1995508 103.3947752  72.8994482 114.2186579  98.0672971  69.3386529
 113.2884167  98.0057426  69.5556491 114.3144051  97.5448924  68.5423170
 114.1372128  94.5927784  71.9264771 114.3978946  95.5073117  71.8173931
 114.9589301  94.1252226  72.0761383 115.6097054  96.0065541  79.0963595
 116.2820107  95.7982903  78.4476244 114.7826840  95.8087627  78.6568827
 121.5122626  92.6327482  81.1129256 120.8650541  93.3317432  81.0193732
 122.2823641  93.0663626  81.4805504 120.4875092 104.4958911  76.9424613
 120.3486177 104.1277696  77.8150552 119.6989688 105.0106551  76.7708571
 122.0380307 103.8740514  74.3313451 121.7030140 103.8341284  75.2271101
 121.5384253 103.2085230  73.8583861 116.0124551  99.2808144  79.8566032
 115.8744349  98.5488383  80.4577571 116.9229474  99.1917044  79.5750220
 118.6406852  98.9928103  79.3449712 119.3506470  98.3521295  79.3036330
 118.5976160  99.2440998  80.2675893 117.3535786  95.9793321  81.1645351
 116.8173143  95.5284060  81.8166948 116.7652494  96.1139230  80.4215816
 116.7638044  95.4381973  63.7271815 115.8867511  95.3170773  63.3634062
 117.2395798  94.6468051  63.4750704 108.2840185 100.2259132  73.8213322
 108.9711224  99.9120862  73.2334338 108.1288313 101.1300497  73.5480574
 113.0874907  95.1149329  78.2498346 113.0033095  94.5074998  77.5148756
 112.2657613  95.6058347  78.2507842 119.8433589  95.7420275  73.3440226
 119.4731377  95.1891316  74.0321131 120.3392682  95.1378409  72.7915226
 117.6722788 106.2017770  80.4395244 118.3732247 106.8354253  80.5924638
 117.2017903 106.5432502  79.6790883 121.5211647  99.4982189  84.7513831
 120.8452284  99.3976318  85.4216206 122.3439281  99.3421403  85.2149828
 113.2690506 105.7354125  77.3726346 113.8543943 104.9897813  77.5054250
 113.0715344 106.0458082  78.2563010 116.1229161 108.7705373  72.3888789
 115.4539536 109.2551500  71.9052829 115.9842031 109.0174593  73.3032167
 107.8608161  98.3059726  76.0930789 107.8992260  97.7723316  76.8867907
 107.3548454  97.7794931  75.4741767 115.2398923  93.1524266  79.5893332
 115.3040250  94.0139097  79.1770729 115.1766043  92.5398268  78.8565690
 114.7151196  95.2247399  83.2366366 115.3423234  94.8424476  83.8503890
 113.8579114  95.0061601  83.6022058 111.4916738  97.0323828  69.1684721
 111.7870179  96.1234506  69.1151774 110.5904774  97.0111567  68.8465723
 115.0210985  95.1079824  75.1512269 114.2997571  95.7215792  75.0119743
 115.8104241  95.6437589  75.0728915 117.8237299  92.4434251  81.4252921
 118.3471701  92.6896547  82.1879230 117.6049632  93.2754286  81.0056058
 113.2204580  94.7137925  69.2924046 112.8917286  93.8335304  69.1099152
 113.5743951  94.6585594  70.1800435 116.3346403  95.0010895  69.6599524
 116.6742476  95.5296816  68.9378132 116.7818524  95.3391301  70.4358090
 119.0289844  93.3847946  79.1102592 118.6886664  92.5855759  79.5123272
 118.3228850  93.6849657  78.5379425 119.6806316  90.4697258  77.5629915
 120.5032385  89.9957737  77.4408805 119.9244379  91.2487742  78.0628601
 118.3214550  93.4985517  67.8592816 119.0422913  93.8766770  67.3556533
 117.6979854  94.2174394  67.9627794 117.2044894  97.1616379  75.3721893
 117.0589475  97.4756682  76.2646175 116.7270098  97.7801279  74.8192792
 119.0641277  94.1518927  75.4202783 119.0502846  93.2560020  75.0835081
 119.7813705  94.1589591  76.0541069 120.9167408  94.5856267  77.4655910
 120.6585186  95.5073338  77.4640241 120.3852448  94.1886702  78.1556374
 111.6790557  99.7021723  78.3109554 111.1344025 100.4781531  78.4429829
 112.5569906 100.0492528  78.1528676 118.4678173  93.0333307  70.6890353
 118.5894084  92.1049953  70.8881240 118.1780216  93.0471993  69.7768668
 121.3369364  90.7188218  73.8257073 121.3591060  90.7827551  72.8709052
 121.7537423  89.8792726  74.0197579 112.4656578  98.8291620  81.2039711
 111.7238315  98.9774255  81.7904342 112.1449323  99.0899885  80.3406461
 112.9113192 106.7157048  73.2350106 113.7371212 106.4160820  72.8548750
 112.5607244 105.9464671  73.6839895 117.8794725 106.0683517  75.3047780
 117.2574735 105.4054222  75.0050007 118.5499592 106.0944649  74.6221427
 111.1121797 104.6343375  74.1939040 110.2753706 104.2065549  74.0123041
 111.0845443 104.8275818  75.1309831 117.9519253  94.5465305  84.8980286
 118.0007408  95.4227427  84.5158055 118.4941767  94.0042698  84.3251929
 117.4408232 104.6187440  68.7806240 117.5896353 105.3022904  68.1272913
 118.2474676 104.5992530  69.2955696 120.1818541  95.2996677  81.6526644
 119.3121851  95.5930243  81.3809233 120.4178022  95.8837122  82.3733908
 115.1960865 100.6452618  69.7867309 114.9506907  99.7414948  69.9847519
 115.3656780 100.6469768  68.8446787 114.4656513  96.3780975  67.2853470
 113.7725758  96.4525330  66.6293506 114.2208265  95.6141319  67.8074987
 121.3250436  98.4496383  63.5934040 122.2709541  98.3202591  63.6622458
 120.9464681  97.7111045  64.0703468 121.2089129 102.5014129  85.0534697
 122.1292138 102.6792728  85.2474744 121.1738712 101.5570175  84.9014396
 119.5093353  96.3746360  63.5288925 118.6024809  96.0779472  63.6051639
 119.7869334  96.0776178  62.6623211 110.4271294  97.6952723  73.9787972
 110.1074078  96.8418031  73.6862346 109.8804722  97.9101301  74.7345939
 114.2051201 100.4115164  77.6957478 114.4237211 101.3432272  77.7145512
 114.6176975 100.0523138  78.4812282 121.1255419  90.9183249  69.6833167
 120.3156147  90.5730334  70.0588413 121.8139836  90.6090793  70.2720778
 119.0779067  95.9848370  87.0860227 118.9775794  96.9342727  87.0172318
 118.8600609  95.6566609  86.2136297 118.2792138  93.2333295  63.6700904
 119.1411302  93.5588193  63.9296722 118.4642482  92.4464791  63.1573970
 110.2959554 101.3155634  75.9481093 109.6023025 100.9009587  75.4351048
 111.0432545 101.3576171  75.3514512 118.9410337  99.4145509  85.9025289
 118.4577418 100.2145869  86.1089178 119.0271276  99.4253453  84.9492733
 112.2096296 101.2473888  73.8247108 112.1866984 101.3461576  72.8728991
 112.5196933 102.0939039  74.1464274 114.8683674 103.3050043  77.9393723
 115.8226928 103.2733986  77.8723654 114.6696198 102.8440667  78.7543948
 115.4583056 101.8751159  80.5064520 116.2775945 102.3695238  80.5299357
 115.7319864 100.9583127  80.4782088 113.2233903 108.8469663  74.9563920
 113.0888371 108.0870064  74.3901918 112.8065965 109.5710563  74.4892709
 110.7117971  96.2089293  81.2056717 111.3576834  95.6988247  81.6943942
 110.5035122  96.9457975  81.7800143 119.2321581  90.4729338  66.9580613
 119.2200251  91.4171178  67.1148884 120.1245003  90.2899483  66.6640075
 115.0515462  93.3556910  85.3031731 115.9146923  92.9993715  85.5135056
 114.4780872  93.0170805  85.9907136  52.9734974  -4.9717407  57.6387115
  52.8959003  -4.0209582  57.7175595  52.3696617  -5.3171535  58.2962041
  50.6121803  -2.2232013  61.7835317  50.8518402  -1.5913489  62.4614335
  49.7691000  -2.5743973  62.0700676  51.0866636  -6.1984011  59.1134095
  50.4177011  -5.7137883  58.6298135  50.9479505  -5.9514790  60.0277474
  55.2271904  -4.1640267  65.7116754  55.7790212  -4.0008646  66.4765839
  55.5678098  -3.5735829  65.0396778  55.3958327  -4.4443876  59.9570785
  54.9563318  -4.9367497  60.6503641  56.1466444  -4.9870908  59.7162860
  48.1871377  -6.1219721  61.6809227  48.0525845  -6.8819320  61.1147225
  47.7703440  -5.3978821  61.2138016  51.3440503  -5.2250404  61.8927670
  51.2272887  -4.2804971  61.7906360  50.5232949  -5.5276842  62.2813469
  52.3695017  -4.5722142  65.1083598  53.2722264  -4.5398532  65.4250093
  52.1432387  -5.5021691  65.1229934  66.6691019  -0.0303189  62.7700964
  66.3309531  -0.1462124  61.8821499  67.5380787  -0.4312024  62.7501970
  62.5277835   1.8232288  58.7597855  61.9642700   1.7322225  57.9914143
  62.4130230   1.0032192  59.2400347  67.1510802   1.1231663  68.7287169
  67.1399443   0.7284461  67.8567673  67.3131442   0.3897736  69.3220941
  60.0742267   3.3183479  61.5982075  60.8663559   2.9774304  61.1828375
  60.3138917   3.4278454  62.5184229  68.1077394   5.4903255  54.0712320
  67.4565373   6.0757336  53.6846333  68.9021756   6.0209450  54.1307357
  62.0333021   2.5792393  54.4699454  62.8063897   2.0321380  54.3312330
  62.3858420   3.4436642  54.6813915  63.8718063   3.9068775  67.6766353
  63.5807929   4.8114406  67.5613020  64.5075048   3.9485302  68.3910423
  64.7974270   1.2845623  64.2667713  65.3937842   1.0601646  63.5524676
  64.8549242   0.5430369  64.8693161  64.3699298  -1.2614941  52.1017904
  64.6224819  -1.7833420  51.3401367  63.4323858  -1.4248796  52.2044588
  69.5852659   3.1793687  54.6081304  68.9498492   3.2528314  55.3202209
  69.2550065   3.7687286  53.9300383  64.0895587   0.6413165  54.3042279
  63.9731845  -0.0341932  54.9723363  64.1997847   0.1545539  53.4874432
  66.4327128   0.1023312  58.0088968  66.0685335  -0.4246067  58.7201890
  67.2894244  -0.2878219  57.8355454  68.8307948   3.5930190  64.6716147
  68.5308671   4.4955229  64.5631954  68.4859008   3.3262374  65.5237300
  62.2820430   0.0443987  60.7052851  61.3570926  -0.0879799  60.9130543
  62.5304843   0.8238206  61.2022794  59.6429241  -0.3122739  61.5396641
  59.7721622  -0.0588260  62.4536052  58.9626692   0.2804969  61.2201296
  63.8128728  10.3574511  57.6387115  63.7352758  11.3082336  57.7175595
  63.2090372  10.0120383  58.2962041  64.5592330   0.3387829  69.8566449
  65.3007015   0.8772873  69.5801272  63.8529316   0.9654118  70.0138000
  70.0347670   2.4816970  68.4538610  70.4431026   2.0399380  67.7093242
  69.3124931   1.9069597  68.7072803  70.3576484   3.0418161  62.2090899
  69.7285347   3.2063875  61.5066967  69.9702147   3.4559770  62.9801863
  74.2365716   3.9772598  59.5635263  73.5516755   4.3571500  59.0132296
  74.3209566   4.5867925  60.2967211  71.4916648   1.6232557  66.1630606
  71.7033543   2.2664317  65.4864987  71.4446396   0.7894874  65.6952536
  65.9104446   2.7792569  59.4740984  66.3742792   3.0580272  58.6845607
  65.6461244   1.8776013  59.2914075  62.8028527   2.3264050  62.4120747
  63.3729884   2.7551319  61.7738232  63.3936639   2.0446635  63.1104933
  64.8473332  -1.0984279  56.2830549  65.5497376  -0.6463235  56.7504476
  64.5153961  -1.7400460  56.9110442  63.2953694  -2.5072522  70.6581759
  62.6652355  -1.8256242  70.8917155  63.1889782  -2.6189441  69.7134897
  58.5898666  -2.8400726  61.5847683  57.7997720  -2.5843198  61.1087793
  59.0809914  -2.0252388  61.6899723  72.6062476   4.5004513  64.3352964
  73.4279920   4.0984700  64.0535645  72.6024879   4.3972747  65.2869079
  60.5413412  -2.4756147  58.5431159  59.7444575  -2.3637453  59.0614655
  60.3139004  -2.1369495  57.6772050  66.3719079   4.0488556  66.4913674
  66.4363512   4.5108963  67.3271846  65.6630003   3.4185921  66.6195984
  56.8736369  -2.5870236  64.0162674  57.1244408  -1.7023226  64.2820250
  57.4095918  -2.7665634  63.2437765  66.0867097   5.7156664  56.3592654
  65.9512772   6.5608199  56.7877502  66.6276910   5.9175941  55.5958588
  59.5396494   3.2332102  56.9320580  60.0521015   4.0275352  57.0826144
  60.1919207   2.5358392  56.8654181  61.3491379   6.3497858  59.0143333
  61.5258007   7.2715823  58.8264317  62.1448213   6.0356277  59.4437713
  60.6343736  -1.6037510  68.8905496  60.5197251  -2.5052253  69.1912595
  59.7788253  -1.3573813  68.5390312  67.7135573   6.3380230  70.4892997
  67.2699428   5.5516609  70.1713901  68.3752787   6.5259381  69.8236887
  62.4722695   7.8676032  65.0153675  63.0230120   7.7393095  64.2430669
  61.6334170   8.1670921  64.6648568  69.8116811   6.6183030  68.5174398
  69.7935287   7.4391911  68.0254667  70.7336732   6.4937105  68.7424539
  66.2689866   4.1327160  69.3597906  66.8018202   3.3715448  69.1297214
  65.7403947   3.8400811  70.1022061  57.5045411   1.5620756  57.7080150
  58.3420633   1.9717764  57.4913858  57.6823679   0.6220198  57.6780344
  74.3744117   1.9828191  55.3317157  73.5973560   1.6439351  54.8872319
  75.0535598   1.9880814  54.6572122  67.6342578   3.2613152  56.8716718
  67.1063940   2.5265912  56.5589956  67.1330081   4.0387828  56.6256687
  72.6135424   1.4562173  61.9883764  71.9559099   2.1461434  62.0763893
  73.4175824   1.8458604  62.3317751  65.7795179   1.0793362  49.8751691
  64.8722240   0.8482616  50.0742840  66.2766210   0.2830982  50.0625673
  68.6863257   9.7890869  52.7948377  68.0124956  10.0922566  53.4033335
  69.0729079  10.5919950  52.4453834  66.9583412   1.1805957  54.3975681
  66.0494631   0.8964990  54.4948151  66.9878496   1.6005036  53.5378988
  72.1902679   4.7912547  58.1666849  71.7365006   3.9503457  58.2232039
  71.5596646   5.4273945  58.5041629  70.6335619   6.6289043  59.1016667
  70.9258593   7.1894100  58.3829033  71.1434239   6.9217604  59.8569826
  57.5271582  -1.0988529  58.3790884  57.3295982  -1.6919168  57.6541950
  56.9718246  -1.4036319  59.0966822  66.6559500   2.7214701  51.7363760
  66.2178930   2.0050560  51.2769397  67.3969941   2.9490816  51.1748851
  65.5969244   7.4069394  60.1910120  65.5545423   7.6330241  59.2618652
  66.5131943   7.1732769  60.3395921  74.8001994   3.0648425  62.8051350
  75.2338501   2.9723714  63.6534404  75.5133575   3.0405925  62.1671366
  63.7135045   4.2832423  59.9872083  64.5075643   3.7882744  59.7854658
  63.0026737   3.7550287  59.6239789  68.5329889   6.6650519  64.3384451
  68.5866911   7.2341455  65.1062166  67.6644670   6.8352404  63.9738488
  60.0217808  -1.5724495  56.0631836  59.0915396  -1.6340039  56.2801798
  60.1175280  -2.0948542  55.2668477  75.6617544   3.1072126  65.3384235
  75.8553434   4.0117936  65.5843510  75.5618162   2.6479545  66.1722820
  70.7232652   3.2578868  70.9125116  70.5718159   3.0289420  69.9955200
  70.7137332   4.2149470  70.9256461  67.4917989   0.8310781  65.8971382
  68.4210049   0.9821941  65.7240350  67.0709019   0.9194802  65.0420029
  66.2906321   4.8561445  63.6669920  66.1517406   4.4880230  64.5395858
  65.5020917   5.3709085  63.4953878  66.8854473   9.9570542  55.0095457
  67.0606228   9.4858585  55.8241079  66.1987261  10.5836308  55.2376717
  67.8411536   4.2343048  61.0558758  67.5061368   4.1943818  61.9516408
  67.3415481   3.5687764  60.5829168  61.8155780  -0.3589322  66.5811339
  61.6775578  -1.0909083  67.1822878  62.7260703  -0.4480422  66.2995527
  70.7770727   1.5799082  51.3295817  70.1599898   0.8545911  51.2328870
  70.3087216   2.3408443  50.9862892  64.4438080  -0.6469363  66.0695019
  65.1537699  -1.2876170  66.0281637  64.4007388  -0.3956468  66.9921199
  72.4324859   6.2897991  68.9901598  72.3737405   5.6057211  68.3232181
  72.8344377   7.0316981  68.5382224  61.4515558  13.1059905  61.7835317
  61.6912156  13.7378429  62.4614335  60.6084754  12.7547945  62.0700676
  72.4342266   4.2537575  67.2215578  71.5469045   3.9163497  67.3441976
  73.0040817   3.5220606  67.4584343  54.0871413   0.5861666  60.5458629
  54.7742453   0.2723397  59.9579644  53.9319542   1.4903031  60.2725880
  65.9643420   8.9139027  64.1876821  65.8913591   9.7193999  64.6996125
  65.5220813   9.1130993  63.3624842  65.7533199   8.1510797  57.6979642
  64.9700721   8.6932477  57.7917867  66.4525944   8.6684777  58.0973883
  68.4242103   8.8125861  66.3434979  69.1370075   9.4473326  66.2710881
  67.9332132   8.9089727  65.5274981  70.1459630   2.7177114  57.9152271
  69.2115909   2.8378576  57.7456975  70.3236299   1.8149581  57.6512281
  63.4754017   6.5620305  67.1640550  64.1763476   7.1956788  67.3169944
  63.0049132   6.9035036  66.4036189  71.6008413   4.9038254  55.4488457
  71.8768256   4.7894849  56.3582331  70.7312911   4.5055739  55.4100630
  68.2362477   9.1524605  59.0921271  68.4184871   8.3346261  59.5549023
  69.0595463   9.3692297  58.6546161  68.5704642   8.0792790  56.3536319
  69.0992409   7.5685245  55.7406481  68.8332862   7.7635321  57.2181852
  67.3242876  -0.1415277  71.4759138  66.6483513  -0.2421148  72.1461513
  68.1470510  -0.2976063  71.9395135  59.0721735   6.0956660  64.0971653
  59.6575172   5.3500348  64.2299557  58.8746573   6.4060616  64.9808317
  61.9260390   9.1307907  59.1134095  61.2570765   9.6154035  58.6298135
  61.7873260   9.3777127  60.0277474  53.6639390  -1.3337740  62.8176096
  53.7023489  -1.8674149  63.6113214  53.1579682  -1.8602535  62.1987073
  66.0665659  11.1651651  65.7116754  66.6183967  11.3283272  66.4765839
  66.4071852  11.7556088  65.0396778  70.9176533   5.9912908  71.5665408
  71.4616437   6.6042866  71.0720363  70.3363378   6.5492486  72.0832421
  57.2947967  -2.6073638  55.8930027  57.5901408  -3.5162960  55.8397081
  56.3936003  -2.6285899  55.5711030  69.2034046   9.1133626  62.6980436
  69.0785185   8.3123366  62.1891381  69.8613137   9.6079819  62.2094406
  71.2668954   6.9142646  64.3259986  70.3199290   6.7947997  64.2538313
  71.6151727   6.0265144  64.4086247  68.2715388   6.7095362  60.5264338
  68.1240350   5.7812070  60.7071908  69.0968881   6.7315453  60.0421413
  71.8749509   7.5323921  61.6129211  72.7996057   7.3266782  61.4753662
  71.7064813   7.2840322  62.5218552  63.0076123  -2.4781087  62.0967200
  62.8620704  -2.1640784  62.9891481  62.5301327  -1.8596186  61.5438099
  71.6644826   8.0509589  56.9691302  71.8381703   7.4856011  56.2165155
  72.1573717   8.8510483  56.7870792  57.4821785   0.0624258  65.0354861
  56.9375253   0.8384066  65.1675135  58.3601135   0.4095062  64.8773983
  72.6519998   7.3676353  54.0688201  73.3470903   7.9883046  54.2875515
  72.9943148   6.5171704  54.3440578  58.2687807  -0.8105846  67.9285018
  57.5269543  -0.6623211  68.5149648  57.9480552  -0.5497580  67.0651767
  74.5511421   4.8176058  55.5975531  75.0762745   5.1563331  54.8724851
  74.4633774   3.8823074  55.4138666  66.2131470   8.7310132  67.7265408
  66.5218596   8.4859279  68.5988108  67.0106952   8.9356771  67.2384278
  66.2352082  10.8848042  59.9570785  65.7957072  10.3924420  60.6503641
  66.9860199  10.3421009  59.7162860  58.7144421   7.0759583  59.9595413
  59.5402441   6.7763355  59.5794056  58.3638473   6.3067205  60.4085201
  63.6825954   6.4286051  62.0293086  63.0605963   5.7656756  61.7295314
  64.3530821   6.4547183  61.3466734  56.9153026   4.9945909  60.9184346
  56.0784934   4.5668083  60.7368347  56.8876671   5.1878352  61.8555137
  74.2405327   5.4508962  70.9026729  73.4500871   5.4333101  70.3631229
  74.0038682   5.9897256  71.6575766  74.3603202   2.3001429  68.2159458
  74.4101207   2.1351436  69.1574981  74.2517126   1.4328688  67.8257339
  63.2439461   4.9789974  55.5051547  63.3927581   5.6625439  54.8518219
  64.0505904   4.9595064  56.0201002  75.8621399   4.7198370  68.4601479
  75.5706207   5.0828351  69.2964940  75.2493530   4.0065378  68.2814811
  60.9992094   1.0055152  56.5112616  60.7538136   0.1017482  56.7092826
  61.1688009   1.0072302  55.5692094  66.7434867   7.4738105  52.9763294
  66.1708834   8.0928292  52.5233766  67.3167660   8.0237466  53.5103216
  69.9632126   7.7575255  54.1071876  70.8962800   7.6920816  54.3104752
  69.8755339   8.5931522  53.6486409  72.5920143   7.0741125  51.0675824
  72.5133775   6.7400989  51.9611582  73.4129810   7.5662893  51.0667296
  67.0120358   2.8616664  71.7780004  67.9323367   3.0395263  71.9720050
  66.9769941   1.9172709  71.6259703  56.2302523  -1.9444743  60.7033278
  55.9105307  -2.7979435  60.4107652  55.6835951  -1.7296165  61.4591246
  60.0082430   0.7717698  64.4202785  60.2268440   1.7034806  64.4390819
  60.4208204   0.4125673  65.2057589  56.0990783   1.6758169  62.6726400
  55.4054254   1.2612121  62.1596354  56.8463774   1.7178705  62.0759819
  64.7441566  -0.2251957  72.6270595  64.2608647   0.5748403  72.8334484
  64.8302505  -0.2144012  71.6738039  58.0127525   1.6076422  60.5492415
  57.9898213   1.7064110  59.5974298  58.3228162   2.4541573  60.8709581
  60.6714903   3.6652577  64.6639029  61.6258157   3.6336520  64.5968961
  60.4727427   3.2043201  65.4789255  61.2614285   2.2353694  67.2309827
  62.0807174   2.7297772  67.2544664  61.5351093   1.3185662  67.2027394
  59.0265132   9.2072197  61.6809227  58.8919600   8.4472598  61.1147225
  58.6097194   9.9313097  61.2138016  70.1624095   4.3909121  50.6885802
  70.8659945   4.5959123  51.3043458  69.4386744   4.9585882  50.9534886
  62.1834258  10.1041514  61.8927670  62.0666642  11.0486946  61.7906360
  61.3626704   9.8015076  62.2813469  72.0710792   4.8291650  52.7384262
  72.9056396   4.3972848  52.5561737  71.9095135   4.6573663  53.6661157
  71.7256684   1.3323763  54.1040602  71.6705488   1.1668034  53.1629046
  71.1002740   2.0399796  54.2602791  56.5149199  -3.4308173  67.9302024
  57.1608063  -3.9409219  68.4189249  56.3066350  -2.6939491  68.5045449
  69.0402592   3.6372675  73.4294164  69.9093751   3.8113327  73.0680799
  68.5609343   4.4567092  73.3069894  63.2088772  10.7569776  65.1083598
  64.1116018  10.7893386  65.4250093  62.9826142   9.8270227  65.1229934
  64.9642374   9.5100762  61.7693677  64.0138005   9.5102624  61.6558049
  65.2674860   8.7633497  61.2529711  80.6995067  15.3461301  62.8339439
  81.3373477  15.2268048  62.1302779  80.5815910  16.2942145  62.8927391
  77.5084774  15.2988729  62.7700964  77.1703285  15.1829794  61.8821499
  78.3774542  14.8979894  62.7501970  73.3671589  17.1524205  58.7597855
  72.8036454  17.0614142  57.9914143  73.2523984  16.3324110  59.2400347
  77.9904557  16.4523581  68.7287169  77.9793197  16.0576379  67.8567673
  78.1525196  15.7189653  69.3220941  70.9136021  18.6475397  61.5982075
  71.7057313  18.3066222  61.1828375  71.1532671  18.7570372  62.5184229
  78.9471148  20.8195173  54.0712320  78.2959128  21.4049253  53.6846333
  79.7415511  21.3501368  54.1307357  72.8726775  17.9084310  54.4699454
  73.6457651  17.3613297  54.3312330  73.2252174  18.7728560  54.6813915
  74.7111818  19.2360692  67.6766353  74.4201684  20.1406323  67.5613020
  75.3468802  19.2777220  68.3910423  75.6368025  16.6137541  64.2667713
  76.2331597  16.3893563  63.5524676  75.6942996  15.8722286  64.8693161
  75.2093053  14.0676976  52.1017904  75.4618574  13.5458498  51.3401367
  74.2717612  13.9043122  52.2044588  80.2536336  13.0712755  59.9092647
  81.0399425  12.6532178  59.5583064  80.5175040  13.9758847  60.0774296
  80.4246413  18.5085605  54.6081304  79.7892246  18.5820232  55.3202209
  80.0943820  19.0979204  53.9300383  85.6544763  13.0087988  60.8125626
  86.3869935  12.4387205  61.0463455  84.8984119  12.6209588  61.2532131
  74.9289342  15.9705082  54.3042279  74.8125600  15.2949986  54.9723363
  75.0391602  15.4837456  53.4874432  77.2720883  15.4315229  58.0088968
  76.9079090  14.9045850  58.7201890  78.1287999  15.0413698  57.8355454
  83.1770183   6.7209562  65.2720234  82.8453508   7.5904973  65.0481449
  82.5815797   6.4045846  65.9514265  76.9126370  10.4605129  53.0050317
  77.0800772  11.3285365  53.3720788  76.7223539  10.6232411  52.0811606
  79.6701703  18.9222108  64.6716147  79.3702426  19.8247147  64.5631954
  79.3252762  18.6554291  65.5237300  73.1214184  15.3735905  60.7052851
  72.1964681  15.2412119  60.9130543  73.3698597  16.1530124  61.2022794
  83.0698847  11.4404648  62.3513584  82.1615724  11.3720057  62.0572345
  83.0186442  11.9176593  63.1795410  76.8915590  12.9162787  53.9896983
  76.7715216  13.3619837  54.8282464  76.1968179  13.2648104  53.4310522
  70.4822995  15.0169178  61.5396641  70.6115376  15.2703657  62.4536052
  69.8020447  15.6096886  61.2201296  77.1439712  12.8594294  70.2948482
  76.3673046  13.4188214  70.2851346  77.7830275  13.3451077  70.8163352
  84.9360493   9.6421087  64.1291458  84.2934873   9.9353620  63.4831253
  84.4315422   9.5274007  64.9344655  82.5900657  13.3884260  54.8177318
  83.5018513  13.6211647  54.6425015  82.0810304  13.9721304  54.2552396
  75.3986085  15.6679747  69.8566449  76.1400769  16.2064791  69.5801272
  74.6923070  16.2946036  70.0138000  80.8741424  17.8108888  68.4538610
  81.2824780  17.3691298  67.7093242  80.1518686  17.2361515  68.7072803
  77.2272494  12.7481494  65.8272167  78.0733690  13.1720908  65.9706816
  77.1671132  12.0915119  66.5210730  81.1970239  18.3710078  62.2090899
  80.5679101  18.5355792  61.5066967  80.8095901  18.7851688  62.9801863
  85.0759471  19.3064516  59.5635263  84.3910509  19.6863417  59.0132296
  85.1603320  19.9159843  60.2967211  80.3771940  10.4085863  67.4853341
  80.1332872  11.1627923  66.9487616  80.6531870  10.7871210  68.3200588
  82.3310402  16.9524475  66.1630606  82.5427298  17.5956235  65.4864987
  82.2840151  16.1186792  65.6952536  79.9336631   9.5642296  63.0667178
  79.0721110   9.8623549  63.3583916  79.9599066   9.7812695  62.1348211
  76.7498201  18.1084486  59.4740984  77.2136546  18.3872189  58.6845607
  76.4854999  17.2067931  59.2914075  73.6422282  17.6555968  62.4120747
  74.2123639  18.0843236  61.7738232  74.2330394  17.3738553  63.1104933
  75.6867087  14.2307639  56.2830549  76.3891130  14.6828682  56.7504476
  75.3547715  13.5891458  56.9110442  74.1347448  12.8219395  70.6581759
  73.5046109  13.5035676  70.8917155  74.0283536  12.7102477  69.7134897
  69.4292421  12.4891191  61.5847683  68.6391475  12.7448720  61.1087793
  69.9203668  13.3039529  61.6899723  83.4456230  19.8296431  64.3352964
  84.2673674  19.4276618  64.0535645  83.4418633  19.7264665  65.2869079
  71.3807166  12.8535771  58.5431159  70.5838330  12.9654465  59.0614655
  71.1532758  13.1922423  57.6772050  77.2112834  19.3780474  66.4913674
  77.2757266  19.8400881  67.3271846  76.5023758  18.7477839  66.6195984
  67.7130124  12.7421682  64.0162674  67.9638162  13.6268692  64.2820250
  68.2489672  12.5626283  63.2437765  91.5362223  16.1735179  60.6837935
  90.7825932  15.6042577  60.5281940  91.6709765  16.1397843  61.6308570
  76.9260852  21.0448581  56.3592654  76.7906526  21.8900117  56.7877502
  77.4670664  21.2467859  55.5958588  73.4128191   7.1240161  73.0207010
  73.0195137   6.5706360  73.6954654  74.2294331   7.4350740  73.4113527
  70.3790249  18.5624019  56.9320580  70.8914769  19.3567270  57.0826144
  71.0312962  17.8650310  56.8654181  72.1885134  21.6789776  59.0143333
  72.3651762  22.6007740  58.8264317  72.9841967  21.3648195  59.4437713
  76.3296152   8.5398040  70.6127266  77.0705866   9.1405193  70.5331729
  76.5614075   7.7975678  70.0545309  71.4737490  13.7254407  68.8905496
  71.3591005  12.8239665  69.1912595  70.6182008  13.9718104  68.5390312
  78.5529328  21.6672148  70.4892997  78.1093182  20.8808526  70.1713901
  79.2146541  21.8551298  69.8236887  73.3116449  23.1967949  65.0153675
  73.8623874  23.0685013  64.2430669  72.4727925  23.4962838  64.6648568
  80.6510566  21.9474948  68.5174398  80.6329041  22.7683829  68.0254667
  81.5730486  21.8229023  68.7424539  77.1083620  19.4619077  69.3597906
  77.6411957  18.7007365  69.1297214  76.5797701  19.1692729  70.1022061
  80.2753315   4.5679143  64.8891548  79.9317584   5.4580785  64.8130659
  80.6432278   4.3780801  64.0261133  68.3439166  16.8912674  57.7080150
  69.1814388  17.3009682  57.4913858  68.5217433  15.9512116  57.6780344
  80.2403598  14.5587754  53.3963983  79.7250221  15.3292359  53.6352370
  79.9680906  13.8852890  54.0197044  77.8250709   9.4037455  58.4549221
  76.9692305   9.0144305  58.2754860  78.2377661   9.4829416  57.5949007
  79.3549855   6.9383798  62.8540781  78.8514651   6.9013933  62.0408586
  79.6480462   7.8476541  62.9137438  75.5992741   7.0222528  61.8606963
  76.4645738   6.8265337  61.5012852  75.6670250   6.7932880  62.7876320
  85.2137872  17.3120109  55.3317157  84.4367315  16.9731268  54.8872319
  85.8929353  17.3172732  54.6572122  80.0289901  12.4314846  55.2223764
  79.7240037  12.7460996  56.0733907  80.9820343  12.5096266  55.2651097
  78.4736333  18.5905070  56.8716718  77.9457694  17.8557829  56.5589956
  77.9723836  19.3679746  56.6256687  83.4529179  16.7854090  61.9883764
  82.7952853  17.4753352  62.0763893  84.2569578  17.1750522  62.3317751
  73.2055060   9.2524736  59.2323330  73.7798812   9.0299917  58.4996523
  73.7926043   9.3213430  59.9851931  82.2634638  15.1398463  60.0387706
  82.7766519  15.7728455  60.5409416  82.9135862  14.5399658  59.6731066
  73.5324648  11.2829197  53.2519215  72.6961960  11.6203884  53.5728490
  73.3929417  11.1478177  52.3146352  75.5077728   6.1265985  57.9598399
  74.8542140   5.8115002  57.3355014  75.4658202   5.5041725  58.6858222
  76.6188933  16.4085280  49.8751691  75.7115995  16.1774533  50.0742840
  77.1159965  15.6122899  50.0625673  78.7415468  12.6147918  62.2846047
  77.8238030  12.8362865  62.1267735  79.1575612  12.6894229  61.4257754
  79.5250516  14.0139334  57.4148727  80.2722335  14.5260731  57.1055849
  79.7942106  13.6923387  58.2753121  77.7977166  16.5097875  54.3975681
  76.8888386  16.2256908  54.4948151  77.8272250  16.9296953  53.5378988
  83.0296434  20.1204464  58.1666849  82.5758761  19.2795374  58.2232039
  82.3990401  20.7565863  58.5041629  81.9729353  11.0496450  59.3967516
  81.2352110  10.5373837  59.7277759  82.2256127  10.6096832  58.5850793
  81.4729373  21.9580961  59.1016667  81.7652347  22.5186018  58.3829033
  81.9827994  22.2509522  59.8569826  68.3665337  14.2303389  58.3790884
  68.1689737  13.6372750  57.6541950  67.8112001  13.9255599  59.0966822
  76.3462060  14.1226495  60.4985477  76.4010670  13.1700332  60.4227953
  75.5353263  14.2785935  60.9826775  77.4953254  18.0506618  51.7363760
  77.0572684  17.3342477  51.2769397  78.2363695  18.2782733  51.1748851
  74.2854420  12.7403555  58.2575856  73.4722286  13.0397726  58.6641048
  74.7813415  12.3459244  58.9750338  76.4362998  22.7361312  60.1910120
  76.3939177  22.9622158  59.2618652  77.3525697  22.5024687  60.3395921
  79.8828632  13.2045380  67.0890749  80.2378020  13.4316853  67.9485215
  80.5300763  13.5363756  66.4668005  85.6126369  16.3263816  57.7940078
  85.4744268  16.5165412  56.8661268  85.2562588  17.0883198  58.2508130
  73.7768495  10.3121911  63.8737090  74.4167874  10.1710670  63.1760054
  72.9446026  10.0256424  63.4975692  85.6395749  18.3940343  62.8051350
  86.0732255  18.3015632  63.6534404  86.3527329  18.3697843  62.1671366
  74.5528799  19.6124341  59.9872083  75.3469398  19.1174661  59.7854658
  73.8420491  19.0842204  59.6239789  79.3723644  21.9942437  64.3384451
  79.4260666  22.5633373  65.1062166  78.5038425  22.1644322  63.9738488
  70.8611563  13.7567423  56.0631836  69.9309151  13.6951878  56.2801798
  70.9569035  13.2343376  55.2668477  70.7797112  10.2822236  58.6510077
  71.0403929  11.1967569  58.5419238  71.6014284   9.8146678  58.8006690
  72.2522037  11.6959993  65.8208902  72.9245090  11.4877355  65.1721551
  71.4251823  11.4982079  65.3814134  86.5011298  18.4364043  65.3384235
  86.6947188  19.3409854  65.5843510  86.4011916  17.9771462  66.1722820
  78.1547609   8.3221934  67.8374563  77.5075524   9.0211883  67.7439039
  78.9248624   8.7558078  68.2050811  81.5626407  18.5870786  70.9125116
  81.4111913  18.3581338  69.9955200  81.5531086  19.5441387  70.9256461
  78.3311743  16.1602699  65.8971382  79.2603803  16.3113858  65.7240350
  77.9102773  16.2486719  65.0420029  77.1300075  20.1853363  63.6669920
  76.9911161  19.8172148  64.5395858  76.3414671  20.7001003  63.4953878
  78.6805290  19.5634966  61.0558758  78.3455123  19.5235736  61.9516408
  78.1809236  18.8979682  60.5829168  72.6549534  14.9702596  66.5811339
  72.5169332  14.2382835  67.1822878  73.5654458  14.8811496  66.2995527
  81.6164482  16.9091000  51.3295817  80.9993652  16.1837828  51.2328870
  81.1480970  17.6700360  50.9862892  75.2831835  14.6822555  66.0695019
  75.9931453  14.0415747  66.0281637  75.2401143  14.9335450  66.9921199
  83.2718614  21.6189908  68.9901598  83.2131160  20.9349129  68.3232181
  83.6738132  22.3608898  68.5382224  73.9960769  11.6687773  67.8890658
  73.4598126  11.2178511  68.5412254  73.4077477  11.8033682  67.1461122
  73.4063028  11.1276424  50.4517122  72.5292494  11.0065225  50.0879368
  73.8820781  10.3362503  50.1996010  83.2736021  19.5829492  67.2215578
  82.3862800  19.2455414  67.3441976  83.8434572  18.8512524  67.4584343
  64.9265168  15.9153584  60.5458629  65.6136208  15.6015314  59.9579644
  64.7713297  16.8194949  60.2725880  69.7299890  10.8043781  64.9743653
  69.6458079  10.1969450  64.2394063  68.9082596  11.2952799  64.9753149
  76.8037174  24.2430945  64.1876821  76.7307346  25.0485916  64.6996125
  76.3614567  24.4422911  63.3624842  76.5926954  23.4802715  57.6979642
  75.8094476  24.0224395  57.7917867  77.2919699  23.9976694  58.0973883
  79.9023604   9.2897344  60.3413848  80.3992303   8.5367307  60.0214918
  79.1310585   9.3261661  59.7757057  87.7553361  14.9937710  61.9832139
  87.7443238  15.8762425  61.6126072  86.8870741  14.6409261  61.7886676
  79.2635858  24.1417779  66.3434979  79.9763830  24.7765244  66.2710881
  78.7725886  24.2381645  65.5274981  80.9853385  18.0469031  57.9152271
  80.0509663  18.1670494  57.7456975  81.1630053  17.1441498  57.6512281
  76.4858573  11.4314727  60.0685532  76.1156360  10.8785768  60.7566438
  76.9817665  10.8272861  59.5160532  84.3725936  13.8886351  58.4502305
  84.8386388  14.7214342  58.3762608  84.8233436  13.4231332  59.1547564
  74.3147771  21.8912222  67.1640550  75.0157231  22.5248705  67.3169944
  73.8442886  22.2326954  66.4036189  82.4402167  20.2330172  55.4488457
  82.7162011  20.1186767  56.3582331  81.5706666  19.8347657  55.4100630
  82.3442599   6.2566938  62.4893207  81.4305678   6.4871165  62.6575413
  82.7735700   6.3405382  63.3407239  82.1149057  14.4456830  64.9893101
  81.4620507  14.6932737  64.3345553  82.4929437  13.6320968  64.6555578
  79.0756231  24.4816523  59.0921271  79.2578626  23.6638179  59.5549023
  79.8989217  24.6984215  58.6546161  79.4098397  23.4084708  56.3536319
  79.9386163  22.8977163  55.7406481  79.6726616  23.0927238  57.2181852
  78.1636630  15.1876641  71.4759138  77.4877267  15.0870770  72.1461513
  78.9864264  15.0315855  71.9395135  69.9115489  21.4248577  64.0971653
  70.4968926  20.6792265  64.2299557  69.7140328  21.7352534  64.9808317
  64.5033144  13.9954178  62.8176096  64.5417244  13.4617768  63.6113214
  63.9973437  13.4689383  62.1987073  76.9059413  26.4943568  65.7116754
  77.4577721  26.6575190  66.4765839  77.2465607  27.0848006  65.0396778
  71.8823906   8.8418718  66.3138638  71.9465233   9.7033549  65.9016036
  71.8191027   8.2292720  65.5810997  71.3576179  10.9141851  69.9611673
  71.9848218  10.5318928  70.5749197  70.5004098  10.6956053  70.3267365
  81.7570287  21.3204826  71.5665408  82.3010191  21.9334784  71.0720363
  81.1757132  21.8784404  72.0832421  68.1341722  12.7218280  55.8930027
  68.4295163  11.8128958  55.8397081  67.2329757  12.7006019  55.5711030
  80.0427800  24.4425544  62.6980436  79.9178940  23.6415284  62.1891381
  80.7006891  24.9371737  62.2094406  71.6635969  10.7974276  61.8757576
  70.9422554  11.4110244  61.7365049  72.4529224  11.3332041  61.7974222
  82.1062709  22.2434564  64.3259986  81.1593044  22.1239915  64.2538313
  82.4545482  21.3557062  64.4086247  74.4662282   8.1328703  68.1498228
  74.9896684   8.3790999  68.9124537  74.2474615   8.9648738  67.7301365
  69.8629563  10.4032377  56.0169353  69.5342269   9.5229756  55.8344458
  70.2168934  10.3480046  56.9045742  79.1109142  22.0387280  60.5264338
  78.9634104  21.1103987  60.7071908  79.9362636  22.0607371  60.0421413
  72.9771386  10.6905347  56.3844830  73.3167459  11.2191268  55.6623439
  73.4243507  11.0285753  57.1603397  82.7143264  22.8615839  61.6129211
  83.6389811  22.6558700  61.4753662  82.5458567  22.6132240  62.5218552
  75.6714827   9.0742398  65.8347898  75.3311648   8.2750211  66.2368578
  74.9653833   9.3744109  65.2624731  76.3231299   6.1591710  64.2875221
  77.1457368   5.6852188  64.1654112  76.5669363   6.9382194  64.7873908
  74.9639533   9.1879969  54.5838123  75.6847896   9.5661222  54.0801840
  74.3404838   9.9068846  54.6873101  79.1070656   9.8925118  55.5196455
  79.3234271  10.7749756  55.2185283  78.6264724   9.5011331  54.7902097
  73.8469878  12.8510831  62.0967200  73.7014458  13.1651134  62.9891481
  73.3695081  13.4695731  61.5438099  75.7066261   9.8413379  62.1448089
  75.6927829   8.9454472  61.8080387  76.4238689   9.8484043  62.7786376
  77.5592391  10.2750719  64.1901217  77.3010169  11.1967790  64.1885547
  77.0277432   9.8781154  64.8801681  82.5038580  23.3801506  56.9691302
  82.6775458  22.8147929  56.2165155  82.9967471  24.1802401  56.7870792
  68.3215540  15.3916175  65.0354861  67.7769008  16.1675983  65.1675135
  69.1994890  15.7386980  64.8773983  75.1103157   8.7227759  57.4135660
  75.2319068   7.7944405  57.6126547  74.8205199   8.7366445  56.5013975
  77.9794347   6.4082670  60.5502379  78.0016044   6.4722003  59.5954359
  78.3962406   5.5687178  60.7442886  88.3577971  16.1437929  58.5881602
  88.8009117  15.3945254  58.1900725  87.4804482  16.1348066  58.2055334
  69.1081562  14.5186072  67.9285018  68.3663298  14.6668707  68.5149648
  68.7874306  14.7794337  67.0651767  85.3905176  20.1467976  55.5975531
  85.9156500  20.4855249  54.8724851  85.3027528  19.2114991  55.4138666
  77.0525224  24.0602050  67.7265408  77.3612351  23.8151197  68.5988108
  77.8500706  24.2648688  67.2384278  77.0745836  26.2139959  59.9570785
  76.6350827  25.7216338  60.6503641  77.8253953  25.6712927  59.7162860
  69.5538175  22.4051500  59.9595413  70.3796195  22.1055272  59.5794056
  69.2032227  21.6359123  60.4085201  74.5219709  21.7577969  62.0293086
  73.8999718  21.0948674  61.7295314  75.1924576  21.7839100  61.3466734
  67.7546780  20.3237827  60.9184346  66.9178689  19.8960001  60.7368347
  67.7270426  20.5170270  61.8555137  74.5944236  10.2359757  71.6225592
  74.6432392  11.1121879  71.2403362  75.1366750   9.6937150  71.0497235
  85.0799082  20.7800880  70.9026729  84.2894625  20.7625019  70.3631229
  84.8432436  21.3189174  71.6575766  85.1996957  17.6293346  68.2159458
  85.2494962  17.4643354  69.1574981  85.0910880  16.7620605  67.8257339
  74.0833216  20.3081892  55.5051547  74.2321336  20.9917356  54.8518219
  74.8899659  20.2886982  56.0201002  82.4900719  13.6124274  69.5318765
  83.3910582  13.4730739  69.2402762  82.5648694  13.7778729  70.4716942
  76.8243525  10.9891129  68.3771951  75.9546834  11.2824695  68.1054539
  77.0603005  11.5731574  69.0979215  86.7015154  20.0490288  68.4601479
  86.4099962  20.4120268  69.2964940  86.0887285  19.3357296  68.2814811
  87.9010836  17.6143167  60.9804050  88.7357727  18.0532972  61.1441610
  88.0369965  17.1381821  60.1612295  84.9502342  15.1722902  66.9281537
  85.4256463  15.3650549  66.1200389  84.0267907  15.2282088  66.6824921
  71.8385849  16.3347070  56.5112616  71.5931890  15.4309400  56.7092826
  72.0081763  16.3364220  55.5692094  79.5282558   7.2070746  65.8937371
  80.0464502   7.9431773  65.5683860  79.1737691   7.5134739  66.7284130
  71.1081496  12.0675427  54.0098777  70.4150741  12.1419782  53.3538813
  70.8633248  11.3035771  54.5320294  77.5828621  22.8030022  52.9763294
  77.0102588  23.4220209  52.5233766  78.1561415  23.3529384  53.5103216
  83.6504011  12.0488662  65.1609843  84.6021434  12.1486760  65.1822067
  83.4807461  11.2566931  65.6707927  81.6718390   9.1344246  65.3469244
  81.0768322   9.4149258  64.6515733  81.3868087   9.6238147  66.1185985
  86.1292089  15.2694782  64.2752143  86.0968409  14.3310783  64.4611826
  86.7392712  15.3478819  63.5417968  77.9675420  14.1390835  50.3179347
  78.9134524  14.0097043  50.3867765  77.5889665  13.4005497  50.7948775
  86.2786577  12.0605826  64.3210426  85.7625626  11.2764282  64.1340355
  87.1626526  11.7324542  64.4856945  83.9397304   5.8046841  60.2806238
  83.7422125   5.4961929  61.1649570  84.5497010   6.5308480  60.4104168
  91.9468639  16.3310789  63.4158179  92.6772027  16.0696077  63.9765883
  91.3375584  15.5939511  63.4560247  90.0283936  14.4718652  64.0132631
  89.3017099  14.3374616  63.4049122  89.6131223  14.7795480  64.8189349
  77.8514112  18.1908581  71.7780004  78.7717122  18.3687180  71.9720050
  77.8163695  17.2464627  71.6259703  76.1518337  12.0640811  50.2534232
  75.2449792  11.7673924  50.3296945  76.4294318  11.7670630  49.3868518
  67.0696277  13.3847175  60.7033278  66.7499061  12.5312483  60.4107652
  66.5229705  13.5995753  61.4591246  70.8476185  16.1009616  64.4202785
  71.0662194  17.0326724  64.4390819  71.2601958  15.7417590  65.2057589
  77.7680402   6.6077701  56.4078473  76.9581131   6.2624786  56.7833719
  78.4564819   6.2985245  56.9966085  79.6970951   5.6855748  58.0302770
  80.2501989   6.1051201  58.6892793  79.9341037   4.7591496  58.0725726
  75.7204050  11.6742822  73.8105534  75.6200777  12.6237179  73.7417625
  75.5025592  11.3461061  72.9381604  74.9217121   8.9227747  50.3946211
  75.7836285   9.2482645  50.6542028  75.1067465   8.1359243  49.8819277
  66.9384537  17.0050086  62.6726400  66.2448009  16.5904039  62.1596354
  67.6857528  17.0470623  62.0759819  83.0749758   7.7956273  57.5381434
  82.4948427   8.4541077  57.1559486  82.8085690   6.9733618  57.1268852
  81.5253324   7.1961331  59.7402754  82.0253103   7.3077865  58.9317073
  82.1688932   6.8922384  60.3803563  75.5835320  15.1039960  72.6270595
  75.1002402  15.9040321  72.8334484  75.6696259  15.1147905  71.6738039
  68.8521280  16.9368340  60.5492415  68.8291968  17.0356027  59.5974298
  69.1621916  17.7833491  60.8709581  71.5108657  18.9944495  64.6639029
  72.4651911  18.9628438  64.5968961  71.3121181  18.5335119  65.4789255
  72.1008040  17.5645611  67.2309827  72.9200929  18.0589690  67.2544664
  72.3744847  16.6477579  67.2027394  81.8574636   9.9556364  56.5937782
  80.9700491  10.2406014  56.3757977  82.2728625   9.7950127  55.7465059
  85.2089172   9.9802885  60.3092122  85.9849562  10.4699337  60.5816738
  84.4837306  10.4060939  60.7663991  87.6461731  10.6930504  61.3666062
  88.2406221  10.4526240  60.6559370  87.7188314   9.9737634  61.9939599
  69.8658886  24.5364115  61.6809227  69.7313354  23.7764516  61.1147225
  69.4490949  25.2605015  61.2138016  81.0017849  19.7201038  50.6885802
  81.7053699  19.9251041  51.3043458  80.2780498  20.2877800  50.9534886
  81.8315660  15.4710899  56.8088072  81.7750861  15.9279451  55.9695705
  82.3844002  14.7101584  56.6310915  85.6420465  11.2600631  57.6338192
  85.3857400  10.8597267  58.4646400  85.0173334  11.9744425  57.5088331
  89.9532803  13.9996705  60.1409483  89.3932361  14.0689894  60.9141045
  89.3476307  13.8237689  59.4208980  82.9104547  20.1583567  52.7384262
  83.7450151  19.7264766  52.5561737  82.7488890  19.9865581  53.6661157
  82.5650439  16.6615681  54.1040602  82.5099243  16.4959952  53.1629046
  81.9396494  17.3691714  54.2602791  67.3542954  11.8983745  67.9302024
  68.0001817  11.3882699  68.4189249  67.1460105  12.6352427  68.5045449
  79.8796346  18.9664593  73.4294164  80.7487506  19.1405245  73.0680799
  79.4003098  19.7859009  73.3069894  75.8746564   6.1623790  53.6825920
  75.8625234   7.1065630  53.8394191  76.7669986   5.9793935  53.3885381
  71.6940445   9.0451362  72.0277038  72.5571906   8.6888167  72.2380363
  71.1205856   8.7065257  72.7152442  91.5388822  30.6753219  62.8339439
  92.1767232  30.5559966  62.1302779  91.4209665  31.6234062  62.8927391
  88.8298311  31.7815498  68.7287169  88.8186952  31.3868297  67.8567673
  88.9918951  31.0481571  69.3220941  85.5505572  34.5652610  67.6766353
  85.2595438  35.4698241  67.5613020  86.1862557  34.6069138  68.3910423
  91.0930090  28.4004672  59.9092647  91.8793180  27.9824096  59.5583064
  91.3568795  29.3050765  60.0774296  96.4938517  28.3379906  60.8125626
  97.2263689  27.7679122  61.0463455  95.7377873  27.9501506  61.2532131
  94.0163938  22.0501480  65.2720234  93.6847263  22.9196891  65.0481449
  93.4209551  21.7337764  65.9514265  87.7520124  25.7897047  53.0050317
  87.9194526  26.6577283  53.3720788  87.5617293  25.9524328  52.0811606
  90.5095457  34.2514026  64.6716147  90.2096180  35.1539064  64.5631954
  90.1646517  33.9846209  65.5237300  93.9092601  26.7696566  62.3513584
  93.0009478  26.7011974  62.0572345  93.8580197  27.2468511  63.1795410
  87.9833467  28.1886211  70.2948482  87.2066801  28.7480132  70.2851346
  88.6224030  28.6742994  70.8163352  95.7754247  24.9713004  64.1291458
  95.1328628  25.2645537  63.4831253  95.2709176  24.8565925  64.9344655
  93.4294411  28.7176177  54.8177318  94.3412267  28.9503564  54.6425015
  92.9204058  29.3013222  54.2552396  86.2379839  30.9971665  69.8566449
  86.9794524  31.5356709  69.5801272  85.5316825  31.6237954  70.0138000
  91.7135179  33.1400805  68.4538610  92.1218535  32.6983216  67.7093242
  90.9912440  32.5653433  68.7072803  88.0666249  28.0773412  65.8272167
  88.9127444  28.5012826  65.9706816  88.0064887  27.4207036  66.5210730
  92.0363993  33.7001996  62.2090899  91.4072856  33.8647710  61.5066967
  91.6489656  34.1143605  62.9801863  95.9153225  34.6356434  59.5635263
  95.2304263  35.0155335  59.0132296  95.9997075  35.2451760  60.2967211
  91.2165694  25.7377780  67.4853341  90.9726626  26.4919841  66.9487616
  91.4925625  26.1163128  68.3200588  93.1704157  32.2816393  66.1630606
  93.3821052  32.9248153  65.4864987  93.1233905  31.4478709  65.6952536
  90.7730386  24.8934213  63.0667178  89.9114865  25.1915467  63.3583916
  90.7992821  25.1104612  62.1348211  84.9741203  28.1511313  70.6581759
  84.3439863  28.8327594  70.8917155  84.8677291  28.0394395  69.7134897
  94.2849985  35.1588348  64.3352964  95.1067429  34.7568535  64.0535645
  94.2812388  35.0556582  65.2869079  88.0506588  34.7072391  66.4913674
  88.1151021  35.1692799  67.3271846  87.3417512  34.0769756  66.6195984
  78.5523878  28.0713599  64.0162674  78.8031917  28.9560609  64.2820250
  79.0883427  27.8918201  63.2437765 102.3755978  31.5027097  60.6837935
 101.6219686  30.9334495  60.5281940 102.5103519  31.4689761  61.6308570
  84.2521946  22.4532079  73.0207010  83.8588891  21.8998277  73.6954654
  85.0688086  22.7642657  73.4113527  87.1689907  23.8689958  70.6127266
  87.9099620  24.4697111  70.5331729  87.4007829  23.1267596  70.0545309
  82.3131245  29.0546325  68.8905496  82.1984760  28.1531582  69.1912595
  81.4575762  29.3010022  68.5390312  89.3923082  36.9964065  70.4892997
  88.9486937  36.2100444  70.1713901  90.0540296  37.1843216  69.8236887
  91.4904320  37.2766865  68.5174398  91.4722796  38.0975746  68.0254667
  92.4124240  37.1520941  68.7424539  87.9477375  34.7910995  69.3597906
  88.4805711  34.0299283  69.1297214  87.4191456  34.4984647  70.1022061
  91.1147070  19.8971061  64.8891548  90.7711339  20.7872703  64.8130659
  91.4826032  19.7072718  64.0261133  91.0797352  29.8879672  53.3963983
  90.5643976  30.6584277  53.6352370  90.8074661  29.2144808  54.0197044
  88.6644463  24.7329373  58.4549221  87.8086060  24.3436223  58.2754860
  89.0771415  24.8121334  57.5949007  90.1943610  22.2675716  62.8540781
  89.6908406  22.2305851  62.0408586  90.4874217  23.1768459  62.9137438
  86.4386496  22.3514446  61.8606963  87.3039493  22.1557254  61.5012852
  86.5064005  22.1224797  62.7876320  96.0531626  32.6412027  55.3317157
  95.2761069  32.3023186  54.8872319  96.7323107  32.6464650  54.6572122
  90.8683655  27.7606764  55.2223764  90.5633791  28.0752913  56.0733907
  91.8214098  27.8388184  55.2651097  94.2922933  32.1146008  61.9883764
  93.6346608  32.8045269  62.0763893  95.0963333  32.5042440  62.3317751
  84.0448815  24.5816654  59.2323330  84.6192567  24.3591835  58.4996523
  84.6319797  24.6505348  59.9851931  93.1028392  30.4690381  60.0387706
  93.6160274  31.1020372  60.5409416  93.7529616  29.8691576  59.6731066
  86.3471483  21.4557903  57.9598399  85.6935895  21.1406920  57.3355014
  86.3051957  20.8333643  58.6858222  90.3644271  29.3431252  57.4148727
  91.1116090  29.8552649  57.1055849  90.6335860  29.0215305  58.2753121
  93.8690188  35.4496382  58.1666849  93.4152515  34.6087292  58.2232039
  93.2384155  36.0857780  58.5041629  92.8123108  26.3788368  59.3967516
  92.0745865  25.8665754  59.7277759  93.0649881  25.9388750  58.5850793
  92.3123128  37.2872879  59.1016667  92.6046102  37.8477936  58.3829033
  92.8221748  37.5801440  59.8569826  92.9134735  19.1564620  59.9909286
  93.2193612  18.2961983  59.7035201  93.6387340  19.7482240  59.7908279
  90.7222387  28.5337297  67.0890749  91.0771774  28.7608770  67.9485215
  91.3694518  28.8655674  66.4668005  96.4520124  31.6555733  57.7940078
  96.3138022  31.8457329  56.8661268  96.0956342  32.4175116  58.2508130
  84.6162250  25.6413828  63.8737090  85.2561629  25.5002587  63.1760054
  83.7839780  25.3548342  63.4975692  96.4789503  33.7232260  62.8051350
  96.9126010  33.6307549  63.6534404  97.1921084  33.6989761  62.1671366
  81.6190866  25.6114153  58.6510077  81.8797683  26.5259487  58.5419238
  82.4408038  25.1438596  58.8006690  83.0915791  27.0251911  65.8208902
  83.7638845  26.8169273  65.1721551  82.2645578  26.8273997  65.3814134
  97.3405053  33.7655961  65.3384235  97.5340943  34.6701771  65.5843510
  97.2405671  33.3063380  66.1722820  88.9941363  23.6513851  67.8374563
  88.3469278  24.3503801  67.7439039  89.7642379  24.0849995  68.2050811
  92.4020161  33.9162704  70.9125116  92.2505668  33.6873255  69.9955200
  92.3924841  34.8733305  70.9256461  89.1705498  31.4894616  65.8971382
  90.0997558  31.6405776  65.7240350  88.7496528  31.5778637  65.0420029
  83.4943289  30.2994514  66.5811339  83.3563087  29.5674752  67.1822878
  84.4048212  30.2103414  66.2995527  94.1112368  36.9481826  68.9901598
  94.0524914  36.2641046  68.3232181  94.5131886  37.6900816  68.5382224
  84.8354523  26.9979691  67.8890658  84.2991880  26.5470429  68.5412254
  84.2471232  27.1325600  67.1461122  94.1129775  34.9121410  67.2215578
  93.2256554  34.5747332  67.3441976  94.6828326  34.1804441  67.4584343
  80.5693645  26.1335698  64.9743653  80.4851833  25.5261368  64.2394063
  79.7476351  26.6244717  64.9753149  90.7417358  24.6189262  60.3413848
  91.2386058  23.8659224  60.0214918  89.9704340  24.6553579  59.7757057
  98.5947116  30.3229627  61.9832139  98.5836992  31.2054343  61.6126072
  97.7264495  29.9701178  61.7886676  91.8247139  33.3760949  57.9152271
  90.8903418  33.4962412  57.7456975  92.0023808  32.4733416  57.6512281
  95.2119690  29.2178268  58.4502305  95.6780143  30.0506260  58.3762608
  95.6627191  28.7523250  59.1547564  93.1836353  21.5858855  62.4893207
  92.2699433  21.8163082  62.6575413  93.6129455  21.6697299  63.3407239
  92.9542812  29.7748747  64.9893101  92.3014262  30.0224655  64.3345553
  93.3323192  28.9612886  64.6555578  89.9149986  39.8108441  59.0921271
  90.0972380  38.9930097  59.5549023  90.7382972  40.0276133  58.6546161
  89.0030385  30.5168558  71.4759138  88.3271022  30.4162688  72.1461513
  89.8258019  30.3607772  71.9395135  82.7217661  24.1710636  66.3138638
  82.7858987  25.0325467  65.9016036  82.6584781  23.5584637  65.5810997
  82.1969933  26.2433768  69.9611673  82.8241972  25.8610846  70.5749197
  81.3397852  26.0247970  70.3267365  92.5964042  36.6496743  71.5665408
  93.1403946  37.2626702  71.0720363  92.0150887  37.2076322  72.0832421
  82.5029723  26.1266194  61.8757576  81.7816309  26.7402162  61.7365049
  83.2922979  26.6623959  61.7974222  92.9456463  37.5726482  64.3259986
  91.9986799  37.4531833  64.2538313  93.2939236  36.6848980  64.4086247
  85.3056037  23.4620620  68.1498228  85.8290438  23.7082917  68.9124537
  85.0868370  24.2940655  67.7301365  80.7023318  25.7324295  56.0169353
  80.3736024  24.8521674  55.8344458  81.0562688  25.6771964  56.9045742
  83.8165141  26.0197265  56.3844830  84.1561213  26.5483186  55.6623439
  84.2637261  26.3577671  57.1603397  93.5537018  38.1907756  61.6129211
  94.4783566  37.9850618  61.4753662  93.3852322  37.9424158  62.5218552
  86.5108582  24.4034316  65.8347898  86.1705402  23.6042129  66.2368578
  85.8047588  24.7036026  65.2624731  87.1625053  21.4883628  64.2875221
  87.9851123  21.0144106  64.1654112  87.4063117  22.2674112  64.7873908
  85.8033288  24.5171886  54.5838123  86.5241650  24.8953139  54.0801840
  85.1798592  25.2360763  54.6873101  89.9464411  25.2217035  55.5196455
  90.1628025  26.1041673  55.2185283  89.4658478  24.8303249  54.7902097
  86.5460015  25.1705297  62.1448089  86.5321584  24.2746390  61.8080387
  87.2632443  25.1775960  62.7786376  88.3986146  25.6042637  64.1901217
  88.1403924  26.5259707  64.1885547  87.8671186  25.2073071  64.8801681
  85.9496911  24.0519677  57.4135660  86.0712822  23.1236323  57.6126547
  85.6598953  24.0658363  56.5013975  88.8188101  21.7374587  60.5502379
  88.8409798  21.8013920  59.5954359  89.2356160  20.8979096  60.7442886
  99.1971726  31.4729847  58.5881602  99.6402872  30.7237172  58.1900725
  98.3198236  31.4639983  58.2055334  79.9475316  29.8477989  67.9285018
  79.2057052  29.9960625  68.5149648  79.6268061  30.1086255  67.0651767
  96.2298930  35.4759894  55.5975531  96.7550254  35.8147167  54.8724851
  96.1421283  34.5406909  55.4138666  87.8918979  39.3893967  67.7265408
  88.2006105  39.1443114  68.5988108  88.6894461  39.5940606  67.2384278
  85.4337991  25.5651674  71.6225592  85.4826146  26.4413797  71.2403362
  85.9760505  25.0229067  71.0497235  95.9192836  36.1092797  70.9026729
  95.1288380  36.0916936  70.3631229  95.6826191  36.6481091  71.6575766
  96.0390711  32.9585264  68.2159458  96.0888716  32.7935271  69.1574981
  95.9304635  32.0912523  67.8257339  93.3294474  28.9416192  69.5318765
  94.2304336  28.8022657  69.2402762  93.4042448  29.1070647  70.4716942
  87.6637279  26.3183047  68.3771951  86.7940588  26.6116613  68.1054539
  87.8996759  26.9023492  69.0979215  97.5408908  35.3782205  68.4601479
  97.2493716  35.7412186  69.2964940  96.9281039  34.6649214  68.2814811
  98.7404590  32.9435085  60.9804050  99.5751482  33.3824889  61.1441610
  98.8763719  32.4673738  60.1612295  95.7896096  30.5014820  66.9281537
  96.2650218  30.6942466  66.1200389  94.8661662  30.5574006  66.6824921
  90.3676313  22.5362664  65.8937371  90.8858257  23.2723690  65.5683860
  90.0131446  22.8426657  66.7284130  90.6188907  18.9562946  61.4138268
  90.8990661  18.2886135  62.0398694  91.4039514  19.1492042  60.9012932
  94.4897765  27.3780580  65.1609843  95.4415188  27.4778678  65.1822067
  94.3201216  26.5858849  65.6707927  92.5112145  24.4636163  65.3469244
  91.9162077  24.7441176  64.6515733  92.2261842  24.9530064  66.1185985
  96.9685843  30.5986700  64.2752143  96.9362163  29.6602701  64.4611826
  97.5786467  30.6770737  63.5417968  97.1180332  27.3897743  64.3210426
  96.6019380  26.6056200  64.1340355  98.0020280  27.0616460  64.4856945
  94.7791059  21.1338759  60.2806238  94.5815880  20.8253847  61.1649570
  95.3890764  21.8600398  60.4104168 102.7862393  31.6602707  63.4158179
 103.5165782  31.3987995  63.9765883 102.1769339  30.9231429  63.4560247
 100.8677690  29.8010569  64.0132631 100.1410854  29.6666534  63.4049122
 100.4524977  30.1087398  64.8189349  88.6907867  33.5200499  71.7780004
  89.6110876  33.6979098  71.9720050  88.6557450  32.5756544  71.6259703
  88.6074157  21.9369619  56.4078473  87.7974885  21.5916704  56.7833719
  89.2958574  21.6277163  56.9966085  90.5364705  21.0147666  58.0302770
  91.0895744  21.4343119  58.6892793  90.7734792  20.0883414  58.0725726
  86.5597804  27.0034739  73.8105534  86.4594531  27.9529096  73.7417625
  86.3419346  26.6752978  72.9381604  93.9143512  23.1248191  57.5381434
  93.3342181  23.7832995  57.1559486  93.6479445  22.3025535  57.1268852
  92.3647079  22.5253249  59.7402754  92.8646857  22.6369783  58.9317073
  93.0082687  22.2214301  60.3803563  86.4229074  30.4331878  72.6270595
  85.9396156  31.2332238  72.8334484  86.5090014  30.4439823  71.6738039
  92.6968390  25.2848281  56.5937782  91.8094245  25.5697932  56.3757977
  93.1122379  25.1242045  55.7465059  96.0482926  25.3094802  60.3092122
  96.8243317  25.7991255  60.5816738  95.3231061  25.7352856  60.7663991
  98.4855485  26.0222421  61.3666062  99.0799976  25.7818157  60.6559370
  98.5582069  25.3029552  61.9939599  92.6709414  30.8002817  56.8088072
  92.6144615  31.2571369  55.9695705  93.2237757  30.0393502  56.6310915
  96.4814220  26.5892549  57.6338192  96.2251154  26.1889185  58.4646400
  95.8567088  27.3036343  57.5088331 100.7926558  29.3288622  60.1409483
 100.2326116  29.3981812  60.9141045 100.1870061  29.1529607  59.4208980
  78.1936708  27.2275663  67.9302024  78.8395572  26.7174617  68.4189249
  77.9853859  27.9644344  68.5045449  90.7190101  34.2956510  73.4294164
  91.5881260  34.4697163  73.0680799  90.2396852  35.1150927  73.3069894
  86.7140319  21.4915707  53.6825920  86.7018989  22.4357547  53.8394191
  87.6063741  21.3085853  53.3885381  90.5292438  18.0858484  57.9371857
  89.7624834  17.5316971  58.0828539  90.9403143  18.1580353  58.7986009
  82.5334199  24.3743280  72.0277038  83.3965661  24.0180085  72.2380363
  81.9599610  24.0357175  72.7152442 102.3782576  46.0045136  62.8339439
 103.0160986  45.8851884  62.1302779 102.2603419  46.9525980  62.8927391
  99.1872283  45.9572564  62.7700964  98.8490794  45.8413629  61.8821499
 100.0562051  45.5563729  62.7501970  99.6692066  47.1107416  68.7287169
  99.6580706  46.7160214  67.8567673  99.8312705  46.3773489  69.3220941
 100.6258657  51.4779008  54.0712320  99.9746637  52.0633089  53.6846333
 101.4203020  52.0085203  54.1307357  96.3899327  49.8944528  67.6766353
  96.0989193  50.7990159  67.5613020  97.0256311  49.9361055  68.3910423
  97.3155534  47.2721376  64.2667713  97.9119106  47.0477399  63.5524676
  97.3730505  46.5306122  64.8693161  96.8880562  44.7260812  52.1017904
  97.1406083  44.2042333  51.3401367  95.9505121  44.5626957  52.2044588
 101.9323845  43.7296590  59.9092647 102.7186934  43.3116013  59.5583064
 102.1962549  44.6342682  60.0774296 102.1033922  49.1669440  54.6081304
 101.4679755  49.2404067  55.3202209 101.7731329  49.7563039  53.9300383
 107.3332272  43.6671823  60.8125626 108.0657444  43.0971040  61.0463455
 106.5771628  43.2793424  61.2532131  96.6076851  46.6288918  54.3042279
  96.4913109  45.9533821  54.9723363  96.7179111  46.1421292  53.4874432
  98.9508392  46.0899065  58.0088968  98.5866599  45.5629686  58.7201890
  99.8075508  45.6997534  57.8355454 104.8557692  37.3793397  65.2720234
 104.5241017  38.2488808  65.0481449 104.2603306  37.0629681  65.9514265
  98.5913879  41.1188964  53.0050317  98.7588281  41.9869201  53.3720788
  98.4011048  41.2816246  52.0811606 101.3489212  49.5805943  64.6716147
 101.0489935  50.4830982  64.5631954 101.0040271  49.3138127  65.5237300
  94.8001693  46.0319740  60.7052851  93.8752190  45.8995954  60.9130543
  95.0486106  46.8113959  61.2022794 104.7486356  42.0988484  62.3513584
 103.8403233  42.0303892  62.0572345 104.6973951  42.5760428  63.1795410
  98.5703099  43.5746622  53.9896983  98.4502725  44.0203673  54.8282464
  97.8755688  43.9231940  53.4310522  92.1610504  45.6753014  61.5396641
  92.2902885  45.9287493  62.4536052  91.4807956  46.2680722  61.2201296
  98.8227221  43.5178129  70.2948482  98.0460555  44.0772049  70.2851346
  99.4617784  44.0034912  70.8163352 106.6148002  40.3004922  64.1291458
 105.9722382  40.5937455  63.4831253 106.1102930  40.1857842  64.9344655
 104.2688166  44.0468095  54.8177318 105.1806022  44.2795482  54.6425015
 103.7597813  44.6305139  54.2552396  97.0773594  46.3263582  69.8566449
  97.8188278  46.8648626  69.5801272  96.3710579  46.9529871  70.0138000
 102.5528933  48.4692723  68.4538610 102.9612289  48.0275133  67.7093242
 101.8306195  47.8945350  68.7072803  98.9060003  43.4065330  65.8272167
  99.7521199  43.8304743  65.9706816  98.8458641  42.7498954  66.5210730
 102.8757748  49.0293914  62.2090899 102.2466610  49.1939628  61.5066967
 102.4883410  49.4435523  62.9801863 106.7546980  49.9648351  59.5635263
 106.0698018  50.3447253  59.0132296 106.8390829  50.5743678  60.2967211
 102.0559449  41.0669698  67.4853341 101.8120381  41.8211759  66.9487616
 102.3319379  41.4455046  68.3200588 104.0097911  47.6108310  66.1630606
 104.2214807  48.2540070  65.4864987 103.9627660  46.7770627  65.6952536
 101.6124140  40.2226131  63.0667178 100.7508619  40.5207385  63.3583916
 101.6386575  40.4396530  62.1348211  98.4285710  48.7668322  59.4740984
  98.8924055  49.0456025  58.6845607  98.1642508  47.8651766  59.2914075
  97.3654596  44.8891474  56.2830549  98.0678639  45.3412518  56.7504476
  97.0335224  44.2475293  56.9110442  95.8134957  43.4803231  70.6581759
  95.1833618  44.1619512  70.8917155  95.7071045  43.3686312  69.7134897
 105.1243739  50.4880266  64.3352964 105.9461183  50.0860453  64.0535645
 105.1206142  50.3848500  65.2869079  93.0594675  43.5119606  58.5431159
  92.2625838  43.6238300  59.0614655  92.8320267  43.8506258  57.6772050
  98.8900343  50.0364309  66.4913674  98.9544775  50.4984716  67.3271846
  98.1811267  49.4061674  66.6195984 113.2149732  46.8319014  60.6837935
 112.4613441  46.2626412  60.5281940 113.3497274  46.7981679  61.6308570
  98.6048360  51.7032417  56.3592654  98.4694035  52.5483952  56.7877502
  99.1458173  51.9051694  55.5958588  95.0915700  37.7823996  73.0207010
  94.6982646  37.2290195  73.6954654  95.9081840  38.0934575  73.4113527
  98.0083661  39.1981876  70.6127266  98.7493374  39.7989029  70.5331729
  98.2401584  38.4559513  70.0545309  93.1524999  44.3838243  68.8905496
  93.0378514  43.4823500  69.1912595  92.2969517  44.6301940  68.5390312
 100.2316837  52.3255983  70.4892997  99.7880691  51.5392362  70.1713901
 100.8934050  52.5135134  69.8236887  94.9903958  53.8551785  65.0153675
  95.5411383  53.7268848  64.2430669  94.1515434  54.1546674  64.6648568
 102.3298075  52.6058783  68.5174398 102.3116550  53.4267664  68.0254667
 103.2517995  52.4812858  68.7424539  98.7871129  50.1202913  69.3597906
  99.3199466  49.3591201  69.1297214  98.2585210  49.8276564  70.1022061
 101.9540824  35.2262979  64.8891548 101.6105093  36.1164620  64.8130659
 102.3219787  35.0364636  64.0261133 101.9191107  45.2171590  53.3963983
 101.4037730  45.9876194  53.6352370 101.6468415  44.5436726  54.0197044
  99.5038218  40.0621290  58.4549221  98.6479814  39.6728141  58.2754860
  99.9165170  40.1413251  57.5949007 101.0337364  37.5967634  62.8540781
 100.5302160  37.5597769  62.0408586 101.3267971  38.5060376  62.9137438
  97.2780250  37.6806363  61.8606963  98.1433247  37.4849172  61.5012852
  97.3457759  37.4516715  62.7876320 106.8925381  47.9703944  55.3317157
 106.1154824  47.6315104  54.8872319 107.5716862  47.9756567  54.6572122
 101.7077410  43.0898682  55.2223764 101.4027546  43.4044831  56.0733907
 102.6607852  43.1680102  55.2651097 100.1523842  49.2488905  56.8716718
  99.6245203  48.5141665  56.5589956  99.6511345  50.0263581  56.6256687
 105.1316688  47.4437926  61.9883764 104.4740362  48.1337187  62.0763893
 105.9357087  47.8334357  62.3317751  94.8842569  39.9108571  59.2323330
  95.4586321  39.6883753  58.4996523  95.4713552  39.9797266  59.9851931
 103.9422147  45.7982298  60.0387706 104.4554028  46.4312290  60.5409416
 104.5923371  45.1983494  59.6731066  95.2112157  41.9413032  53.2519215
  94.3749469  42.2787719  53.5728490  95.0716926  41.8062012  52.3146352
  97.1865237  36.7849820  57.9598399  96.5329649  36.4698837  57.3355014
  97.1445711  36.1625561  58.6858222  98.2976442  47.0669115  49.8751691
  97.3903504  46.8358369  50.0742840  98.7947474  46.2706735  50.0625673
 100.4202977  43.2731754  62.2846047  99.5025539  43.4946701  62.1267735
 100.8363121  43.3478064  61.4257754 101.2038025  44.6723169  57.4148727
 101.9509844  45.1844567  57.1055849 101.4729615  44.3507222  58.2753121
  99.4764675  47.1681710  54.3975681  98.5675895  46.8840743  54.4948151
  99.5059759  47.5880789  53.5378988 104.7083943  50.7788300  58.1666849
 104.2546270  49.9379210  58.2232039 104.0777910  51.4149698  58.5041629
 103.6516862  41.7080286  59.3967516 102.9139619  41.1957672  59.7277759
 103.9043636  41.2680667  58.5850793 103.1516882  52.6164796  59.1016667
 103.4439856  53.1769853  58.3829033 103.6615503  52.9093357  59.8569826
 103.7528490  34.4856538  59.9909286 104.0587367  33.6253901  59.7035201
 104.4781095  35.0774158  59.7908279  98.0249569  44.7810331  60.4985477
  98.0798179  43.8284167  60.4227953  97.2140771  44.9369770  60.9826775
  99.1740763  48.7090454  51.7363760  98.7360193  47.9926313  51.2769397
  99.9151204  48.9366569  51.1748851  95.9641929  43.3987391  58.2575856
  95.1509795  43.6981561  58.6641048  96.4600924  43.0043079  58.9750338
 101.5616141  43.8629215  67.0890749 101.9165529  44.0900688  67.9485215
 102.2088272  44.1947592  66.4668005 107.2913878  46.9847651  57.7940078
 107.1531777  47.1749247  56.8661268 106.9350097  47.7467034  58.2508130
  95.4556004  40.9705746  63.8737090  96.0955383  40.8294505  63.1760054
  94.6233535  40.6840259  63.4975692 107.3183258  49.0524178  62.8051350
 107.7519764  48.9599467  63.6534404 108.0314838  49.0281678  62.1671366
 101.0511153  52.6526272  64.3384451 101.1048175  53.2217208  65.1062166
 100.1825934  52.8228157  63.9738488  92.5399072  44.4151258  56.0631836
  91.6096660  44.3535714  56.2801798  92.6356543  43.8927211  55.2668477
  92.4584621  40.9406071  58.6510077  92.7191438  41.8551404  58.5419238
  93.2801793  40.4730514  58.8006690  93.9309546  42.3543828  65.8208902
  94.6032599  42.1461190  65.1721551  93.1039332  42.1565914  65.3814134
 108.1798807  49.0947879  65.3384235 108.3734697  49.9993689  65.5843510
 108.0799425  48.6355298  66.1722820  99.8335118  38.9805769  67.8374563
  99.1863033  39.6795719  67.7439039 100.6036133  39.4141913  68.2050811
 103.2413916  49.2454621  70.9125116 103.0899422  49.0165173  69.9955200
 103.2318595  50.2025223  70.9256461 100.0099252  46.8186534  65.8971382
 100.9391312  46.9697694  65.7240350  99.5890282  46.9070555  65.0420029
  98.8087584  50.8437198  63.6669920  98.6698670  50.4755983  64.5395858
  98.0202180  51.3584838  63.4953878  99.4035736  55.9446295  55.0095457
  99.5787492  55.4734338  55.8241079  98.7168524  56.5712061  55.2376717
 100.3592799  50.2218801  61.0558758 100.0242632  50.1819571  61.9516408
  99.8596745  49.5563517  60.5829168  94.3337043  45.6286431  66.5811339
  94.1956841  44.8966670  67.1822878  95.2441967  45.5395331  66.2995527
 103.2951991  47.5674835  51.3295817 102.6781161  46.8421664  51.2328870
 102.8268479  48.3284196  50.9862892  96.9619344  45.3406391  66.0695019
  97.6718962  44.6999583  66.0281637  96.9188652  45.5919285  66.9921199
 104.9506122  52.2773744  68.9901598 104.8918669  51.5932964  68.3232181
 105.3525641  53.0192734  68.5382224  95.6748278  42.3271608  67.8890658
  95.1385635  41.8762347  68.5412254  95.0864986  42.4617517  67.1461122
  95.0850537  41.7860260  50.4517122  94.2080003  41.6649061  50.0879368
  95.5608290  40.9946338  50.1996010 104.9523530  50.2413328  67.2215578
 104.0650309  49.9039250  67.3441976 105.5222081  49.5096359  67.4584343
  98.4824683  54.9014780  64.1876821  98.4094855  55.7069752  64.6996125
  98.0402076  55.1006746  63.3624842 101.5811113  39.9481180  60.3413848
 102.0779812  39.1951142  60.0214918 100.8098094  39.9845496  59.7757057
 109.4340870  45.6521545  61.9832139 109.4230747  46.5346261  61.6126072
 108.5658250  45.2993096  61.7886676 100.9423367  54.8001614  66.3434979
 101.6551339  55.4349079  66.2710881 100.4513395  54.8965480  65.5274981
 102.6640894  48.7052867  57.9152271 101.7297172  48.8254329  57.7456975
 102.8417562  47.8025334  57.6512281  98.1646082  42.0898563  60.0685532
  97.7943869  41.5369603  60.7566438  98.6605174  41.4856696  59.5160532
 106.0513445  44.5470186  58.4502305 106.5173897  45.3798178  58.3762608
 106.5020945  44.0815168  59.1547564  95.9935280  52.5496058  67.1640550
  96.6944740  53.1832541  67.3169944  95.5230395  52.8910789  66.4036189
 104.1189676  50.8914007  55.4488457 104.3949520  50.7770602  56.3582331
 103.2494175  50.4931492  55.4100630 104.0230108  36.9150773  62.4893207
 103.1093187  37.1455000  62.6575413 104.4523209  36.9989217  63.3407239
 103.7936566  45.1040665  64.9893101 103.1408016  45.3516573  64.3345553
 104.1716946  44.2904803  64.6555578 100.7543740  55.1400358  59.0921271
 100.9366135  54.3222014  59.5549023 101.5776726  55.3568051  58.6546161
 101.0885906  54.0668543  56.3536319 101.6173672  53.5560998  55.7406481
 101.3514125  53.7511074  57.2181852  99.8424139  45.8460476  71.4759138
  99.1664776  45.7454605  72.1461513 100.6651773  45.6899690  71.9395135
  98.5846922  57.1527404  65.7116754  99.1365230  57.3159025  66.4765839
  98.9253116  57.7431841  65.0396778  93.5611415  39.5002553  66.3138638
  93.6252742  40.3617384  65.9016036  93.4978536  38.8876555  65.5810997
  93.0363688  41.5725686  69.9611673  93.6635727  41.1902763  70.5749197
  92.1791607  41.3539888  70.3267365 103.4357796  51.9788661  71.5665408
 103.9797700  52.5918619  71.0720363 102.8544641  52.5368240  72.0832421
 101.7215309  55.1009379  62.6980436 101.5966449  54.2999119  62.1891381
 102.3794400  55.5955572  62.2094406  93.3423478  41.4558112  61.8757576
  92.6210063  42.0694079  61.7365049  94.1316733  41.9915876  61.7974222
 103.7850218  52.9018399  64.3259986 102.8380553  52.7823750  64.2538313
 104.1332991  52.0140897  64.4086247  96.1449791  38.7912538  68.1498228
  96.6684193  39.0374835  68.9124537  95.9262124  39.6232573  67.7301365
 100.7896651  52.6971115  60.5264338 100.6421613  51.7687823  60.7071908
 101.6150145  52.7191206  60.0421413  94.6558895  41.3489182  56.3844830
  94.9954968  41.8775104  55.6623439  95.1031016  41.6869589  57.1603397
 104.3930773  53.5199674  61.6129211 105.3177320  53.3142535  61.4753662
 104.2246076  53.2716075  62.5218552  97.3502336  39.7326233  65.8347898
  97.0099157  38.9334046  66.2368578  96.6441342  40.0327944  65.2624731
  98.0018808  36.8175546  64.2875221  98.8244877  36.3436024  64.1654112
  98.2456872  37.5966029  64.7873908  96.6427042  39.8463804  54.5838123
  97.3635405  40.2245057  54.0801840  96.0192347  40.5652681  54.6873101
 100.7858165  40.5508953  55.5196455 101.0021780  41.4333591  55.2185283
 100.3052232  40.1595166  54.7902097  95.5257387  43.5094666  62.0967200
  95.3801967  43.8234969  62.9891481  95.0482590  44.1279567  61.5438099
  97.3853770  40.4997214  62.1448089  97.3715338  39.6038308  61.8080387
  98.1026198  40.5067878  62.7786376  99.2379900  40.9334554  64.1901217
  98.9797678  41.8551625  64.1885547  98.7064941  40.5364989  64.8801681
 104.1826089  54.0385342  56.9691302 104.3562967  53.4731764  56.2165155
 104.6754980  54.8386236  56.7870792  96.7890666  39.3811595  57.4135660
  96.9106577  38.4528241  57.6126547  96.4992708  39.3950281  56.5013975
  99.6581856  37.0666505  60.5502379  99.6803553  37.1305838  59.5954359
 100.0749915  36.2271014  60.7442886 110.0365480  46.8021765  58.5881602
 110.4796626  46.0529090  58.1900725 109.1591991  46.7931901  58.2055334
 105.1701262  53.3552106  54.0688201 105.8652166  53.9758799  54.2875515
 105.5124412  52.5047457  54.3440578  90.7869071  45.1769907  67.9285018
  90.0450807  45.3252542  68.5149648  90.4661815  45.4378173  67.0651767
 107.0692685  50.8051812  55.5975531 107.5944009  51.1439084  54.8724851
 106.9815037  49.8698827  55.4138666  98.7312733  54.7185885  67.7265408
  99.0399860  54.4735032  68.5988108  99.5288215  54.9232524  67.2384278
  98.7533345  56.8723795  59.9570785  98.3138336  56.3800174  60.6503641
  99.5041462  56.3296762  59.7162860  96.2731745  40.8943592  71.6225592
  96.3219901  41.7705715  71.2403362  96.8154259  40.3520985  71.0497235
 106.7586591  51.4384715  70.9026729 105.9682134  51.4208854  70.3631229
 106.5219945  51.9773009  71.6575766 106.8784466  48.2877182  68.2159458
 106.9282471  48.1227189  69.1574981 106.7698389  47.4204441  67.8257339
 104.1688228  44.2708110  69.5318765 105.0698091  44.1314574  69.2402762
 104.2436203  44.4362564  70.4716942  98.5031034  41.6474964  68.3771951
  97.6334343  41.9408530  68.1054539  98.7390514  42.2315409  69.0979215
 108.3802663  50.7074123  68.4601479 108.0887471  51.0704104  69.2964940
 107.7674794  49.9941131  68.2814811 109.5798345  48.2727003  60.9804050
 110.4145236  48.7116807  61.1441610 109.7157474  47.7965656  60.1612295
 106.6289851  45.8306738  66.9281537 107.1043972  46.0234384  66.1200389
 105.7055416  45.8865924  66.6824921 101.2070067  37.8654581  65.8937371
 101.7252011  38.6015608  65.5683860 100.8525200  38.1718575  66.7284130
 101.4582662  34.2854864  61.4138268 101.7384415  33.6178053  62.0398694
 102.2433268  34.4783959  60.9012932 105.3291520  42.7072498  65.1609843
 106.2808943  42.8070595  65.1822067 105.1594970  41.9150766  65.6707927
 103.3505899  39.7928081  65.3469244 102.7555831  40.0733094  64.6515733
 103.0655596  40.2821982  66.1185985 102.4813390  53.7451008  54.1071876
 103.4144063  53.6796569  54.3104752 102.3936603  54.5807275  53.6486409
 105.1101406  53.0616878  51.0675824 105.0315038  52.7276742  51.9611582
 105.9311073  53.5538646  51.0667296 107.8079598  45.9278617  64.2752143
 107.7755918  44.9894618  64.4611826 108.4180221  46.0062654  63.5417968
  99.6462929  44.7974670  50.3179347 100.5922033  44.6680879  50.3867765
  99.2677173  44.0589332  50.7948775 107.9574086  42.7189661  64.3210426
 107.4413135  41.9348118  64.1340355 108.8414035  42.3908378  64.4856945
 105.6184813  36.4630676  60.2806238 105.4209634  36.1545765  61.1649570
 106.2284519  37.1892315  60.4104168 113.6256148  46.9894624  63.4158179
 114.3559536  46.7279912  63.9765883 113.0163093  46.2523346  63.4560247
 111.7071445  45.1302487  64.0132631 110.9804608  44.9958452  63.4049122
 111.2918732  45.4379316  64.8189349  99.5301621  48.8492417  71.7780004
 100.4504631  49.0271016  71.9720050  99.4951204  47.9048462  71.6259703
  97.8305846  42.7224647  50.2534232  96.9237301  42.4257760  50.3296945
  98.1081827  42.4254465  49.3868518  92.5263694  46.7593451  64.4202785
  92.7449703  47.6910559  64.4390819  92.9389467  46.4001426  65.2057589
  99.4467911  37.2661537  56.4078473  98.6368640  36.9208622  56.7833719
 100.1352328  36.9569080  56.9966085 101.3758460  36.3439583  58.0302770
 101.9289498  36.7635037  58.6892793 101.6128546  35.4175331  58.0725726
  97.3991559  42.3326657  73.8105534  97.2988286  43.2821014  73.7417625
  97.1813101  42.0044896  72.9381604 104.7537267  38.4540108  57.5381434
 104.1735936  39.1124913  57.1559486 104.4873199  37.6317453  57.1268852
 103.2040833  37.8545166  59.7402754 103.7040612  37.9661701  58.9317073
 103.8476441  37.5506219  60.3803563  97.2622829  45.7623796  72.6270595
  96.7789911  46.5624156  72.8334484  97.3483768  45.7731741  71.6738039
  93.7795549  48.2229447  67.2309827  94.5988438  48.7173525  67.2544664
  94.0532356  47.3061415  67.2027394 103.5362145  40.6140199  56.5937782
 102.6488000  40.8989850  56.3757977 103.9516134  40.4533962  55.7465059
 106.8876681  40.6386720  60.3092122 107.6637071  41.1283172  60.5816738
 106.1624815  41.0644774  60.7663991 109.3249240  41.3514339  61.3666062
 109.9193730  41.1110075  60.6559370 109.3975823  40.6321470  61.9939599
 102.6805358  50.3784874  50.6885802 103.3841208  50.5834876  51.3043458
 101.9568007  50.9461635  50.9534886 103.5103169  46.1294735  56.8088072
 103.4538370  46.5863286  55.9695705 104.0631511  45.3685419  56.6310915
 107.3207974  41.9184467  57.6338192 107.0644909  41.5181102  58.4646400
 106.6960842  42.6328261  57.5088331 111.6320312  44.6580540  60.1409483
 111.0719870  44.7273729  60.9141045 111.0263816  44.4821525  59.4208980
 104.5892056  50.8167403  52.7384262 105.4237660  50.3848601  52.5561737
 104.4276399  50.6449416  53.6661157 104.2437948  47.3199516  54.1040602
 104.1886752  47.1543787  53.1629046 103.6184003  48.0275549  54.2602791
  89.0330463  42.5567580  67.9302024  89.6789326  42.0466534  68.4189249
  88.8247614  43.2936262  68.5045449 101.5583855  49.6248428  73.4294164
 102.4275015  49.7989080  73.0680799 101.0790607  50.4442845  73.3069894
  95.7270035  56.7445529  65.1083598  96.6297282  56.7769139  65.4250093
  95.5007405  55.8145980  65.1229934 101.3686193  33.4150402  57.9371857
 100.6018589  32.8608888  58.0828539 101.7796898  33.4872270  58.7986009
  93.3727954  39.7035198  72.0277038  94.2359415  39.3472002  72.2380363
  92.7993364  39.3649092  72.7152442 113.2176331  61.3337054  62.8339439
 113.8554741  61.2143801  62.1302779 113.0997174  62.2817898  62.8927391
 110.0266037  61.2864482  62.7700964 109.6884549  61.1705547  61.8821499
 110.8955805  60.8855647  62.7501970 105.8852853  63.1399958  58.7597855
 105.3217718  63.0489895  57.9914143 105.7705248  62.3199863  59.2400347
 110.5085820  62.4399334  68.7287169 110.4974461  62.0452132  67.8567673
 110.6706460  61.7065406  69.3220941 103.4317285  64.6351150  61.5982075
 104.2238577  64.2941975  61.1828375 103.6713935  64.7446125  62.5184229
 111.4652411  66.8070926  54.0712320 110.8140391  67.3925006  53.6846333
 112.2596774  67.3377121  54.1307357 105.3908039  63.8960063  54.4699454
 106.1638915  63.3489050  54.3312330 105.7433437  64.7604313  54.6813915
 107.2293081  65.2236446  67.6766353 106.9382947  66.1282076  67.5613020
 107.8650066  65.2652973  68.3910423 108.1549288  62.6013294  64.2667713
 108.7512860  62.3769316  63.5524676 108.2124260  61.8598039  64.8693161
 107.7274316  60.0552729  52.1017904 107.9799837  59.5334251  51.3401367
 106.7898876  59.8918875  52.2044588 112.7717599  59.0588508  59.9092647
 113.5580688  58.6407931  59.5583064 113.0356304  59.9634600  60.0774296
 112.9427677  64.4961358  54.6081304 112.3073510  64.5695985  55.3202209
 112.6125083  65.0854957  53.9300383 118.1726026  58.9963741  60.8125626
 118.9051198  58.4262958  61.0463455 117.4165382  58.6085341  61.2532131
 107.4470605  61.9580835  54.3042279 107.3306863  61.2825739  54.9723363
 107.5572865  61.4713209  53.4874432 109.7902146  61.4190982  58.0088968
 109.4260353  60.8921603  58.7201890 110.6469262  61.0289451  57.8355454
 115.6951447  52.7085315  65.2720234 115.3634772  53.5780726  65.0481449
 115.0997060  52.3921599  65.9514265 109.4307633  56.4480882  53.0050317
 109.5982035  57.3161119  53.3720788 109.2404802  56.6108164  52.0811606
 112.1882966  64.9097861  64.6716147 111.8883689  65.8122900  64.5631954
 111.8434026  64.6430044  65.5237300 105.6395448  61.3611658  60.7052851
 104.7145944  61.2287872  60.9130543 105.8879861  62.1405877  61.2022794
 115.5880110  57.4280401  62.3513584 114.6796987  57.3595810  62.0572345
 115.5367706  57.9052346  63.1795410 109.4096854  58.9038540  53.9896983
 109.2896479  59.3495590  54.8282464 108.7149442  59.2523857  53.4310522
 103.0004259  61.0044931  61.5396641 103.1296640  61.2579410  62.4536052
 102.3201710  61.5972639  61.2201296 107.1703746  71.6742181  57.6387115
 107.0927776  72.6250006  57.7175595 106.5665390  71.3288054  58.2962041
 109.6620976  58.8470047  70.2948482 108.8854310  59.4063967  70.2851346
 110.3011539  59.3326830  70.8163352 117.4541756  55.6296840  64.1291458
 116.8116137  55.9229373  63.4831253 116.9496685  55.5149760  64.9344655
 115.1081920  59.3760013  54.8177318 116.0199776  59.6087400  54.6425015
 114.5991567  59.9597057  54.2552396 107.9167348  61.6555500  69.8566449
 108.6582033  62.1940544  69.5801272 107.2104334  62.2821789  70.0138000
 113.3922688  63.7984641  68.4538610 113.8006044  63.3567051  67.7093242
 112.6699949  63.2237268  68.7072803 109.7453758  58.7357247  65.8272167
 110.5914953  59.1596661  65.9706816 109.6852395  58.0790872  66.5210730
 113.7151502  64.3585831  62.2090899 113.0860365  64.5231545  61.5066967
 113.3277165  64.7727441  62.9801863 117.5940734  65.2940269  59.5635263
 116.9091772  65.6739170  59.0132296 117.6784584  65.9035596  60.2967211
 112.8953203  56.3961616  67.4853341 112.6514135  57.1503676  66.9487616
 113.1713134  56.7746963  68.3200588 114.8491666  62.9400228  66.1630606
 115.0608561  63.5831988  65.4864987 114.8021414  62.1062545  65.6952536
 112.4517895  55.5518049  63.0667178 111.5902374  55.8499302  63.3583916
 112.4780330  55.7688448  62.1348211 109.2679464  64.0960239  59.4740984
 109.7317810  64.3747942  58.6845607 109.0036262  63.1943684  59.2914075
 106.1603545  63.6431721  62.4120747 106.7304902  64.0718989  61.7738232
 106.7511657  63.3614306  63.1104933 108.2048350  60.2183392  56.2830549
 108.9072394  60.6704435  56.7504476 107.8728979  59.5767211  56.9110442
 106.6528712  58.8095148  70.6581759 106.0227372  59.4911429  70.8917155
 106.5464800  58.6978230  69.7134897 101.9473684  58.4766944  61.5847683
 101.1572738  58.7324473  61.1087793 102.4384932  59.2915282  61.6899723
 115.9637494  65.8172184  64.3352964 116.7854938  65.4152371  64.0535645
 115.9599897  65.7140418  65.2869079 103.8988430  58.8411524  58.5431159
 103.1019593  58.9530218  59.0614655 103.6714022  59.1798176  57.6772050
 109.7294097  65.3656227  66.4913674 109.7938530  65.8276634  67.3271846
 109.0205021  64.7353592  66.6195984 100.2311387  58.7297435  64.0162674
 100.4819426  59.6144445  64.2820250 100.7670936  58.5502036  63.2437765
 109.4442115  67.0324334  56.3592654 109.3087790  67.8775870  56.7877502
 109.9851927  67.2343612  55.5958588 105.9309455  53.1115914  73.0207010
 105.5376400  52.5582113  73.6954654 106.7475595  53.4226493  73.4113527
 102.8971512  64.5499772  56.9320580 103.4096033  65.3443023  57.0826144
 103.5494225  63.8526063  56.8654181 104.7066397  67.6665529  59.0143333
 104.8833025  68.5883493  58.8264317 105.5023231  67.3523948  59.4437713
 108.8477416  54.5273793  70.6127266 109.5887129  55.1280946  70.5331729
 109.0795338  53.7851431  70.0545309 103.9918754  59.7130161  68.8905496
 103.8772269  58.8115418  69.1912595 103.1363271  59.9593857  68.5390312
 111.0710591  67.6547901  70.4892997 110.6274446  66.8684279  70.1713901
 111.7327805  67.8427051  69.8236887 105.8297713  69.1843702  65.0153675
 106.3805138  69.0560766  64.2430669 104.9909188  69.4838591  64.6648568
 113.1691829  67.9350701  68.5174398 113.1510305  68.7559582  68.0254667
 114.0911749  67.8104776  68.7424539 109.6264884  65.4494830  69.3597906
 110.1593220  64.6883118  69.1297214 109.0978965  65.1568482  70.1022061
 112.7934579  50.5554896  64.8891548 112.4498848  51.4456538  64.8130659
 113.1613541  50.3656554  64.0261133 100.8620429  62.8788427  57.7080150
 101.6995651  63.2885435  57.4913858 101.0398697  61.9387869  57.6780344
 112.7584861  60.5463507  53.3963983 112.2431485  61.3168112  53.6352370
 112.4862170  59.8728643  54.0197044 110.3431972  55.3913208  58.4549221
 109.4873569  55.0020058  58.2754860 110.7558924  55.4705169  57.5949007
 111.8731119  52.9259551  62.8540781 111.3695915  52.8889687  62.0408586
 112.1661726  53.8352294  62.9137438 108.1174005  53.0098281  61.8606963
 108.9827002  52.8141090  61.5012852 108.1851514  52.7808633  62.7876320
 117.7319135  63.2995862  55.3317157 116.9548578  62.9607021  54.8872319
 118.4110616  63.3048485  54.6572122 112.5471164  58.4190599  55.2223764
 112.2421300  58.7336749  56.0733907 113.5001607  58.4972019  55.2651097
 110.9917596  64.5780823  56.8716718 110.4638958  63.8433582  56.5589956
 110.4905099  65.3555499  56.6256687 115.9710442  62.7729843  61.9883764
 115.3134117  63.4629105  62.0763893 116.7750842  63.1626275  62.3317751
 105.7236324  55.2400489  59.2323330 106.2980076  55.0175670  58.4996523
 106.3107306  55.3089184  59.9851931 114.7815901  61.1274216  60.0387706
 115.2947783  61.7604208  60.5409416 115.4317125  60.5275411  59.6731066
 106.0505911  57.2704950  53.2519215 105.2143223  57.6079637  53.5728490
 105.9110681  57.1353930  52.3146352 108.0258992  52.1141738  57.9598399
 107.3723404  51.7990755  57.3355014 107.9839466  51.4917478  58.6858222
 109.1370196  62.3961033  49.8751691 108.2297258  62.1650286  50.0742840
 109.6341228  61.5998652  50.0625673 112.0438275  71.1058540  52.7948377
 111.3699974  71.4090237  53.4033335 112.4304097  71.9087621  52.4453834
 111.2596732  58.6023671  62.2846047 110.3419293  58.8238618  62.1267735
 111.6756876  58.6769982  61.4257754 112.0431780  60.0015087  57.4148727
 112.7903599  60.5136484  57.1055849 112.3123369  59.6799140  58.2753121
 110.3158430  62.4973628  54.3975681 109.4069649  62.2132661  54.4948151
 110.3453514  62.9172706  53.5378988 115.5477697  66.1080217  58.1666849
 115.0940024  65.2671127  58.2232039 114.9171664  66.7441616  58.5041629
 114.4910617  57.0372203  59.3967516 113.7533374  56.5249590  59.7277759
 114.7437390  56.5972585  58.5850793 113.9910637  67.9456714  59.1016667
 114.2833611  68.5061771  58.3829033 114.5009257  68.2385275  59.8569826
 114.5922244  49.8148455  59.9909286 114.8981121  48.9545819  59.7035201
 115.3174849  50.4066076  59.7908279 100.8846600  60.2179142  58.3790884
 100.6871000  59.6248503  57.6541950 100.3293264  59.9131352  59.0966822
 108.8643324  60.1102248  60.4985477 108.9191934  59.1576085  60.4227953
 108.0534526  60.2661688  60.9826775 110.0134518  64.0382372  51.7363760
 109.5753948  63.3218230  51.2769397 110.7544959  64.2658486  51.1748851
 106.8035684  58.7279308  58.2575856 105.9903549  59.0273479  58.6641048
 107.2994678  58.3334997  58.9750338 108.9544262  68.7237065  60.1910120
 108.9120441  68.9497911  59.2618652 109.8706961  68.4900440  60.3395921
 112.4009896  59.1921133  67.0890749 112.7559283  59.4192606  67.9485215
 113.0482027  59.5239509  66.4668005 118.1307632  62.3139569  57.7940078
 117.9925531  62.5041165  56.8661268 117.7743851  63.0758951  58.2508130
 106.2949759  56.2997664  63.8737090 106.9349138  56.1586423  63.1760054
 105.4627289  56.0132177  63.4975692 118.1577012  64.3816096  62.8051350
 118.5913519  64.2891385  63.6534404 118.8708593  64.3573596  62.1671366
 107.0710063  65.6000094  59.9872083 107.8650661  65.1050414  59.7854658
 106.3601755  65.0717957  59.6239789 111.8904907  67.9818190  64.3384451
 111.9441929  68.5509126  65.1062166 111.0219688  68.1520075  63.9738488
 103.3792826  59.7443176  56.0631836 102.4490414  59.6827631  56.2801798
 103.4750298  59.2219129  55.2668477 103.2978375  56.2697989  58.6510077
 103.5585192  57.1843322  58.5419238 104.1195547  55.8022431  58.8006690
 104.7703300  57.6835746  65.8208902 105.4426354  57.4753108  65.1721551
 103.9433087  57.4857832  65.3814134 119.0192562  64.4239796  65.3384235
 119.2128452  65.3285607  65.5843510 118.9193180  63.9647215  66.1722820
 110.6728872  54.3097687  67.8374563 110.0256787  55.0087636  67.7439039
 111.4429888  54.7433831  68.2050811 114.0807670  64.5746539  70.9125116
 113.9293177  64.3457091  69.9955200 114.0712350  65.5317140  70.9256461
 110.8493007  62.1478452  65.8971382 111.7785067  62.2989611  65.7240350
 110.4284037  62.2362473  65.0420029 109.6481339  66.1729116  63.6669920
 109.5092424  65.8047901  64.5395858 108.8595935  66.6876756  63.4953878
 110.2429490  71.2738213  55.0095457 110.4181246  70.8026256  55.8241079
 109.5562279  71.9003979  55.2376717 111.1986554  65.5510719  61.0558758
 110.8636386  65.5111489  61.9516408 110.6990499  64.8855435  60.5829168
 105.1730798  60.9578349  66.5811339 105.0350596  60.2258588  67.1822878
 106.0835721  60.8687249  66.2995527 114.1345745  62.8966753  51.3295817
 113.5174916  62.1713581  51.2328870 113.6662234  63.6576113  50.9862892
 107.8013098  60.6698308  66.0695019 108.5112717  60.0291500  66.0281637
 107.7582406  60.9211203  66.9921199 115.7899877  67.6065662  68.9901598
 115.7312423  66.9224882  68.3232181 116.1919395  68.3484652  68.5382224
 106.5142032  57.6563526  67.8890658 105.9779389  57.2054265  68.5412254
 105.9258741  57.7909435  67.1461122 104.8090576  74.4227575  61.7835317
 105.0487174  75.0546100  62.4614335 103.9659772  74.0715615  62.0700676
 105.9244291  57.1152177  50.4517122 105.0473758  56.9940978  50.0879368
 106.4002044  56.3238256  50.1996010 115.7917284  65.5705245  67.2215578
 114.9044063  65.2331167  67.3441976 116.3615835  64.8388277  67.4584343
  97.4446431  61.9029337  60.5458629  98.1317471  61.5891067  59.9579644
  97.2894560  62.8070702  60.2725880 102.2481154  56.7919534  64.9743653
 102.1639342  56.1845203  64.2394063 101.4263860  57.2828552  64.9753149
 109.3218438  70.2306698  64.1876821 109.2488609  71.0361669  64.6996125
 108.8795831  70.4298664  63.3624842 109.1108217  69.4678468  57.6979642
 108.3275739  70.0100148  57.7917867 109.8100962  69.9852447  58.0973883
 112.4204867  55.2773097  60.3413848 112.9173567  54.5243060  60.0214918
 111.6491849  55.3137414  59.7757057 120.2734625  60.9813463  61.9832139
 120.2624501  61.8638178  61.6126072 119.4052004  60.6285014  61.7886676
 111.7817121  70.1293532  66.3434979 112.4945093  70.7640997  66.2710881
 111.2907150  70.2257398  65.5274981 113.5034648  64.0344785  57.9152271
 112.5690927  64.1546247  57.7456975 113.6811317  63.1317251  57.6512281
 109.0039836  57.4190480  60.0685532 108.6337624  56.8661521  60.7566438
 109.4998929  56.8148614  59.5160532 116.8907199  59.8762104  58.4502305
 117.3567652  60.7090095  58.3762608 117.3414700  59.4107085  59.1547564
 106.8329035  67.8787975  67.1640550 107.5338494  68.5124458  67.3169944
 106.3624150  68.2202707  66.4036189 114.9583431  66.2205925  55.4488457
 115.2343274  66.1062520  56.3582331 114.0887929  65.8223410  55.4100630
 114.8623862  52.2442691  62.4893207 113.9486942  52.4746918  62.6575413
 115.2916964  52.3281135  63.3407239 114.6330321  60.4332583  64.9893101
 113.9801771  60.6808490  64.3345553 115.0110701  59.6196721  64.6555578
 111.5937495  70.4692276  59.0921271 111.7759889  69.6513932  59.5549023
 112.4170481  70.6859968  58.6546161 111.9279660  69.3960461  56.3536319
 112.4567426  68.8852916  55.7406481 112.1907880  69.0802991  57.2181852
 110.6817894  61.1752394  71.4759138 110.0058531  61.0746523  72.1461513
 111.5045528  61.0191608  71.9395135 102.4296753  67.4124330  64.0971653
 103.0150190  66.6668018  64.2299557 102.2321591  67.7228287  64.9808317
 105.2835408  70.4475578  59.1134095 104.6145783  70.9321705  58.6298135
 105.1448278  70.6944798  60.0277474  97.0214407  59.9829931  62.8176096
  97.0598507  59.4493521  63.6113214  96.5154700  59.4565136  62.1987073
 109.4240677  72.4819321  65.7116754 109.9758985  72.6450943  66.4765839
 109.7646870  73.0723759  65.0396778 104.4005170  54.8294471  66.3138638
 104.4646496  55.6909302  65.9016036 104.3372290  54.2168473  65.5810997
 103.8757442  56.9017604  69.9611673 104.5029481  56.5194681  70.5749197
 103.0185361  56.6831806  70.3267365 114.2751551  67.3080579  71.5665408
 114.8191455  67.9210537  71.0720363 113.6938396  67.8660157  72.0832421
 100.6522985  58.7094033  55.8930027 100.9476426  57.8004711  55.8397081
  99.7511021  58.6881772  55.5711030 112.5609064  70.4301297  62.6980436
 112.4360203  69.6291037  62.1891381 113.2188155  70.9247490  62.2094406
 104.1817232  56.7850029  61.8757576 103.4603818  57.3985997  61.7365049
 104.9710488  57.3207794  61.7974222 114.6243972  68.2310317  64.3259986
 113.6774308  68.1115668  64.2538313 114.9726745  67.3432815  64.4086247
 106.9843546  54.1204456  68.1498228 107.5077947  54.3666752  68.9124537
 106.7655879  54.9524491  67.7301365 102.3810827  56.3908130  56.0169353
 102.0523533  55.5105509  55.8344458 102.7350197  56.3355799  56.9045742
 111.6290406  68.0263033  60.5264338 111.4815368  67.0979741  60.7071908
 112.4543899  68.0483124  60.0421413 105.4952650  56.6781100  56.3844830
 105.8348722  57.2067021  55.6623439 105.9424770  57.0161506  57.1603397
 115.2324527  68.8491592  61.6129211 116.1571075  68.6434453  61.4753662
 115.0639831  68.6007993  62.5218552 108.1896091  55.0618151  65.8347898
 107.8492911  54.2625964  66.2368578 107.4835097  55.3619862  65.2624731
 108.8412562  52.1467463  64.2875221 109.6638632  51.6727942  64.1654112
 109.0850626  52.9257947  64.7873908 107.4820797  55.1755722  54.5838123
 108.2029159  55.5536975  54.0801840 106.8586101  55.8944599  54.6873101
 111.6251920  55.8800871  55.5196455 111.8415534  56.7625509  55.2185283
 111.1445987  55.4887084  54.7902097 106.3651141  58.8386584  62.0967200
 106.2195722  59.1526887  62.9891481 105.8876345  59.4571484  61.5438099
 108.2247524  55.8289132  62.1448089 108.2109093  54.9330225  61.8080387
 108.9419952  55.8359796  62.7786376 110.0773655  56.2626472  64.1901217
 109.8191433  57.1843543  64.1885547 109.5458695  55.8656907  64.8801681
 115.0219844  69.3677259  56.9691302 115.1956721  68.8023682  56.2165155
 115.5148735  70.1678154  56.7870792 100.8396803  61.3791928  65.0354861
 100.2950271  62.1551736  65.1675135 101.7176153  61.7262733  64.8773983
 107.6284420  54.7103512  57.4135660 107.7500331  53.7820158  57.6126547
 107.3386462  54.7242198  56.5013975 110.4975610  52.3958423  60.5502379
 110.5197307  52.4597756  59.5954359 110.9143669  51.5562931  60.7442886
 120.8759235  62.1313682  58.5881602 121.3190381  61.3821007  58.1900725
 119.9985745  62.1223819  58.2055334 116.0095016  68.6844024  54.0688201
 116.7045921  69.3050716  54.2875515 116.3518166  67.8339375  54.3440578
 101.6262825  60.5061825  67.9285018 100.8844561  60.6544460  68.5149648
 101.3055570  60.7670090  67.0651767 117.9086439  66.1343729  55.5975531
 118.4337763  66.4731002  54.8724851 117.8208792  65.1990745  55.4138666
 109.5706488  70.0477803  67.7265408 109.8793614  69.8026950  68.5988108
 110.3681970  70.2524441  67.2384278 109.5927100  72.2015712  59.9570785
 109.1532090  71.7092091  60.6503641 110.3435217  71.6588680  59.7162860
 102.0719439  68.3927253  59.9595413 102.8977459  68.0931025  59.5794056
 101.7213491  67.6234876  60.4085201 107.0400972  67.7453722  62.0293086
 106.4180981  67.0824427  61.7295314 107.7105839  67.7714853  61.3466734
 100.2728044  66.3113580  60.9184346  99.4359952  65.8835754  60.7368347
 100.2451689  66.5046023  61.8555137 107.1125500  56.2235510  71.6225592
 107.1613655  57.0997632  71.2403362 107.6548014  55.6812903  71.0497235
 117.5980345  66.7676633  70.9026729 116.8075889  66.7500772  70.3631229
 117.3613700  67.3064927  71.6575766 117.7178220  63.6169099  68.2159458
 117.7676225  63.4519107  69.1574981 117.6092144  62.7496358  67.8257339
 106.6014479  66.2957645  55.5051547 106.7502599  66.9793109  54.8518219
 107.4080922  66.2762735  56.0201002 115.0081983  59.6000027  69.5318765
 115.9091845  59.4606492  69.2402762 115.0829957  59.7654482  70.4716942
 109.3424788  56.9766882  68.3771951 108.4728097  57.2700448  68.1054539
 109.5784268  57.5607327  69.0979215 119.2196417  66.0366041  68.4601479
 118.9281225  66.3996021  69.2964940 118.6068548  65.3233049  68.2814811
 120.4192099  63.6018921  60.9804050 121.2538991  64.0408725  61.1441610
 120.5551228  63.1257574  60.1612295 117.4683605  61.1598655  66.9281537
 117.9437727  61.3526302  66.1200389 116.5449171  61.2157841  66.6824921
 104.3567112  62.3222823  56.5112616 104.1113154  61.4185153  56.7092826
 104.5263027  62.3239973  55.5692094 112.0463822  53.1946499  65.8937371
 112.5645766  53.9307526  65.5683860 111.6918955  53.5010492  66.7284130
 103.6262760  58.0551180  54.0098777 102.9332004  58.1295535  53.3538813
 103.3814511  57.2911524  54.5320294 112.2976416  49.6146781  61.4138268
 112.5778170  48.9469971  62.0398694 113.0827023  49.8075877  60.9012932
 110.1009885  68.7905775  52.9763294 109.5283852  69.4095962  52.5233766
 110.6742678  69.3405137  53.5103216 116.1685274  58.0364415  65.1609843
 117.1202697  58.1362513  65.1822067 115.9988725  57.2442684  65.6707927
 114.1899654  55.1219999  65.3469244 113.5949586  55.4025011  64.6515733
 113.9049351  55.6113900  66.1185985 113.3207144  69.0742925  54.1071876
 114.2537817  69.0088487  54.3104752 113.2330357  69.9099192  53.6486409
 115.9495161  68.3908796  51.0675824 115.8708793  68.0568659  51.9611582
 116.7704828  68.8830564  51.0667296 118.6473352  61.2570535  64.2752143
 118.6149672  60.3186536  64.4611826 119.2573976  61.3354572  63.5417968
 110.4856683  60.1266588  50.3179347 111.4315788  59.9972796  50.3867765
 110.1070928  59.3881250  50.7948775 118.7967841  58.0481579  64.3210426
 118.2806889  57.2640035  64.1340355 119.6807789  57.7200295  64.4856945
 116.4578568  51.7922594  60.2806238 116.2603389  51.4837682  61.1649570
 117.0678273  52.5184233  60.4104168 110.3695376  64.1784334  71.7780004
 111.2898385  64.3562933  71.9720050 110.3344959  63.2340380  71.6259703
 108.6699600  58.0516565  50.2534232 107.7631056  57.7549677  50.3296945
 108.9475581  57.7546383  49.3868518  99.5877541  59.3722928  60.7033278
  99.2680325  58.5188236  60.4107652  99.0410969  59.5871506  61.4591246
 103.3657448  62.0885369  64.4202785 103.5843458  63.0202477  64.4390819
 103.7783222  61.7293343  65.2057589 110.2861666  52.5953454  56.4078473
 109.4762394  52.2500539  56.7833719 110.9746083  52.2860998  56.9966085
 112.2152214  51.6731501  58.0302770 112.7683253  52.0926954  58.6892793
 112.4522301  50.7467249  58.0725726 108.2385313  57.6618575  73.8105534
 108.1382040  58.6112932  73.7417625 108.0206855  57.3336814  72.9381604
 107.4398385  54.9103500  50.3946211 108.3017549  55.2358398  50.6542028
 107.6248729  54.1234996  49.8819277  99.4565801  62.9925839  62.6726400
  98.7629272  62.5779792  62.1596354 100.2038792  63.0346376  62.0759819
 115.5931021  53.7832026  57.5381434 115.0129690  54.4416830  57.1559486
 115.3266954  52.9609371  57.1268852 114.0434588  53.1837084  59.7402754
 114.5434366  53.2953618  58.9317073 114.6870196  52.8798137  60.3803563
 108.1016583  61.0915714  72.6270595 107.6183665  61.8916074  72.8334484
 108.1877523  61.1023658  71.6738039 101.3702543  62.9244093  60.5492415
 101.3473231  63.0231780  59.5974298 101.6803180  63.7709244  60.8709581
 104.0289921  64.9820248  64.6639029 104.9833175  64.9504191  64.5968961
 103.8302445  64.5210872  65.4789255 104.6189303  63.5521364  67.2309827
 105.4382192  64.0465443  67.2544664 104.8926111  62.6353332  67.2027394
 114.3755899  55.9432117  56.5937782 113.4881754  56.2281767  56.3757977
 114.7909888  55.7825880  55.7465059 117.7270435  55.9678638  60.3092122
 118.5030826  56.4575090  60.5816738 117.0018570  56.3936692  60.7663991
 120.1642994  56.6806257  61.3666062 120.7587485  56.4401993  60.6559370
 120.2369578  55.9613387  61.9939599 102.3840150  70.5239868  61.6809227
 102.2494618  69.7640269  61.1147225 101.9672212  71.2480768  61.2138016
 113.5199113  65.7076791  50.6885802 114.2234963  65.9126794  51.3043458
 112.7961762  66.2753553  50.9534886 114.3496923  61.4586652  56.8088072
 114.2932124  61.9155204  55.9695705 114.9025266  60.6977337  56.6310915
 118.1601729  57.2476384  57.6338192 117.9038663  56.8473020  58.4646400
 117.5354597  57.9620178  57.5088331 122.4714067  59.9872458  60.1409483
 121.9113625  60.0565647  60.9141045 121.8657570  59.8113442  59.4208980
 105.5409276  71.4209185  61.8927670 105.4241660  72.3654617  61.7906360
 104.7201722  71.1182746  62.2813469 115.4285810  66.1459320  52.7384262
 116.2631414  65.7140519  52.5561737 115.2670153  65.9741334  53.6661157
 115.0831702  62.6491434  54.1040602 115.0280506  62.4835705  53.1629046
 114.4577758  63.3567467  54.2602791  99.8724217  57.8859498  67.9302024
 100.5183081  57.3758452  68.4189249  99.6641368  58.6228180  68.5045449
 112.3977610  64.9540346  73.4294164 113.2668769  65.1280998  73.0680799
 111.9184361  65.7734762  73.3069894 108.3927828  52.1499543  53.6825920
 108.3806498  53.0941383  53.8394191 109.2851250  51.9669688  53.3885381
 106.5663790  72.0737447  65.1083598 107.4691036  72.1061057  65.4250093
 106.3401160  71.1437898  65.1229934 108.3217392  70.8268433  61.7693677
 107.3713023  70.8270295  61.6558049 108.6249878  70.0801168  61.2529711
 112.2079947  48.7442319  57.9371857 111.4412343  48.1900806  58.0828539
 112.6190652  48.8164188  58.7986009 104.2121708  55.0327115  72.0277038
 105.0753170  54.6763920  72.2380363 103.6387119  54.6941010  72.7152442
 120.8659792  76.6156400  62.7700964 120.5278303  76.4997464  61.8821499
 121.7349560  76.2147565  62.7501970 116.7246607  78.4691876  58.7597855
 116.1611472  78.3781813  57.9914143 116.6099002  77.6491781  59.2400347
 121.3479575  77.7691251  68.7287169 121.3368215  77.3744050  67.8567673
 121.5100214  77.0357324  69.3220941 114.2711039  79.9643068  61.5982075
 115.0632331  79.6233892  61.1828375 114.5107689  80.0738043  62.5184229
 116.2301793  79.2251981  54.4699454 117.0032669  78.6780968  54.3312330
 116.5827192  80.0896230  54.6813915 118.0686836  80.5528363  67.6766353
 117.7776702  81.4573994  67.5613020 118.7043820  80.5944891  68.3910423
 118.9943043  77.9305212  64.2667713 119.5906615  77.7061234  63.5524676
 119.0518014  77.1889957  64.8693161 118.5668071  75.3844647  52.1017904
 118.8193592  74.8626168  51.3401367 117.6292630  75.2210792  52.2044588
 118.2864360  77.2872753  54.3042279 118.1700618  76.6117656  54.9723363
 118.3966620  76.8005127  53.4874432 120.6295901  76.7482900  58.0088968
 120.2654108  76.2213521  58.7201890 121.4863017  76.3581369  57.8355454
 120.2701388  71.7772800  53.0050317 120.4375790  72.6453036  53.3720788
 120.0798557  71.9400081  52.0811606 116.4789202  76.6903576  60.7052851
 115.5539699  76.5579790  60.9130543 116.7273615  77.4697795  61.2022794
 120.2490608  74.2330457  53.9896983 120.1290234  74.6787508  54.8282464
 119.5543197  74.5815775  53.4310522 113.8398013  76.3336849  61.5396641
 113.9690394  76.5871328  62.4536052 113.1595465  76.9264557  61.2201296
 118.0097501  87.0034099  57.6387115 117.9321530  87.9541924  57.7175595
 117.4059144  86.6579972  58.2962041 120.5014730  74.1761964  70.2948482
 119.7248064  74.7355885  70.2851346 121.1405293  74.6618747  70.8163352
 118.7561103  76.9847418  69.8566449 119.4975787  77.5232462  69.5801272
 118.0498088  77.6113707  70.0138000 120.5847512  74.0649165  65.8272167
 121.4308708  74.4888579  65.9706816 120.5246150  73.4082789  66.5210730
 120.1073219  79.4252157  59.4740984 120.5711564  79.7039860  58.6845607
 119.8430017  78.5235602  59.2914075 116.9997300  78.9723639  62.4120747
 117.5698657  79.4010907  61.7738232 117.5905412  78.6906223  63.1104933
 119.0442105  75.5475309  56.2830549 119.7466148  75.9996353  56.7504476
 118.7122733  74.9059128  56.9110442 117.4922466  74.1387066  70.6581759
 116.8621127  74.8203347  70.8917155 117.3858554  74.0270148  69.7134897
 112.7867439  73.8058862  61.5847683 111.9966493  74.0616391  61.1087793
 113.2778686  74.6207200  61.6899723 114.7382184  74.1703441  58.5431159
 113.9413347  74.2822136  59.0614655 114.5107776  74.5090094  57.6772050
 120.5687852  80.6948145  66.4913674 120.6332284  81.1568552  67.3271846
 119.8598776  80.0645509  66.6195984 111.0705142  74.0589352  64.0162674
 111.3213180  74.9436362  64.2820250 111.6064690  73.8793954  63.2437765
 120.2835869  82.3616252  56.3592654 120.1481544  83.2067788  56.7877502
 120.8245682  82.5635530  55.5958588 116.7703209  68.4407832  73.0207010
 116.3770155  67.8874030  73.6954654 117.5869349  68.7518410  73.4113527
 113.7365267  79.8791690  56.9320580 114.2489787  80.6734940  57.0826144
 114.3887980  79.1817980  56.8654181 115.5460152  82.9957446  59.0143333
 115.7226780  83.9175411  58.8264317 116.3416985  82.6815866  59.4437713
 119.6871170  69.8565711  70.6127266 120.4280883  70.4572864  70.5331729
 119.9189093  69.1143349  70.0545309 114.8312508  75.0422078  68.8905496
 114.7166023  74.1407335  69.1912595 113.9757026  75.2885775  68.5390312
 116.6691467  84.5135620  65.0153675 117.2198892  84.3852683  64.2430669
 115.8302943  84.8130509  64.6648568 120.4658638  80.7786748  69.3597906
 120.9986975  80.0175036  69.1297214 119.9372719  80.4860400  70.1022061
 111.7014184  78.2080344  57.7080150 112.5389406  78.6177353  57.4913858
 111.8792451  77.2679786  57.6780344 121.1825727  70.7205126  58.4549221
 120.3267323  70.3311976  58.2754860 121.5952679  70.7997087  57.5949007
 118.9567759  68.3390199  61.8606963 119.8220756  68.1433007  61.5012852
 119.0245268  68.1100551  62.7876320 121.8311351  79.9072740  56.8716718
 121.3032712  79.1725500  56.5589956 121.3298854  80.6847417  56.6256687
 116.5630078  70.5692407  59.2323330 117.1373830  70.3467588  58.4996523
 117.1501061  70.6381101  59.9851931 116.8899665  72.5996868  53.2519215
 116.0536978  72.9371554  53.5728490 116.7504435  72.4645847  52.3146352
 118.8652746  67.4433656  57.9598399 118.2117158  67.1282673  57.3355014
 118.8233220  66.8209396  58.6858222 119.9763951  77.7252951  49.8751691
 119.0691013  77.4942204  50.0742840 120.4734983  76.9290570  50.0625673
 121.1552184  77.8265546  54.3975681 120.2463404  77.5424578  54.4948151
 121.1847268  78.2464624  53.5378988 111.7240355  75.5471060  58.3790884
 111.5264755  74.9540420  57.6541950 111.1687019  75.2423270  59.0966822
 119.7037078  75.4394166  60.4985477 119.7585688  74.4868003  60.4227953
 118.8928280  75.5953605  60.9826775 120.8528272  79.3674289  51.7363760
 120.4147702  78.6510148  51.2769397 121.5938713  79.5950404  51.1748851
 117.6429438  74.0571226  58.2575856 116.8297304  74.3565396  58.6641048
 118.1388433  73.6626915  58.9750338 119.7938016  84.0528983  60.1910120
 119.7514195  84.2789829  59.2618652 120.7100715  83.8192357  60.3395921
 117.1343513  71.6289581  63.8737090 117.7742892  71.4878340  63.1760054
 116.3021044  71.3424095  63.4975692 117.9103817  80.9292012  59.9872083
 118.7044416  80.4342332  59.7854658 117.1995509  80.4009875  59.6239789
 114.2186580  75.0735094  56.0631836 113.2884169  75.0119549  56.2801798
 114.3144052  74.5511046  55.2668477 114.1372130  71.5989906  58.6510077
 114.3978947  72.5135240  58.5419238 114.9589302  71.1314349  58.8006690
 115.6097055  73.0127664  65.8208902 116.2820108  72.8045026  65.1721551
 114.7826841  72.8149750  65.3814134 121.5122627  69.6389604  67.8374563
 120.8650542  70.3379554  67.7439039 122.2823642  70.0725748  68.2050811
 120.4875093  81.5021034  63.6669920 120.3486179  81.1339818  64.5395858
 119.6989689  82.0168673  63.4953878 121.0823245  86.6030130  55.0095457
 121.2575001  86.1318173  55.8241079 120.3956033  87.2295896  55.2376717
 122.0380308  80.8802636  61.0558758 121.7030141  80.8403406  61.9516408
 121.5384254  80.2147352  60.5829168 116.0124552  76.2870267  66.5811339
 115.8744350  75.5550505  67.1822878 116.9229476  76.1979167  66.2995527
 118.6406853  75.9990226  66.0695019 119.3506471  75.3583418  66.0281637
 118.5976161  76.2503121  66.9921199 117.3535787  72.9855444  67.8890658
 116.8173144  72.5346182  68.5412254 116.7652495  73.1201353  67.1461122
 115.6484330  89.7519493  61.7835317 115.8880928  90.3838017  62.4614335
 114.8053527  89.4007533  62.0700676 116.7638046  72.4444095  50.4517122
 115.8867512  72.3232896  50.0879368 117.2395799  71.6530173  50.1996010
 108.2840186  77.2321255  60.5458629 108.9711226  76.9182985  59.9579644
 108.1288315  78.1362620  60.2725880 113.0874908  72.1211451  64.9743653
 113.0033097  71.5137121  64.2394063 112.2657614  72.6120470  64.9753149
 120.1612192  85.5598615  64.1876821 120.0882364  86.3653587  64.6996125
 119.7189585  85.7590581  63.3624842 119.9501972  84.7970386  57.6979642
 119.1669494  85.3392066  57.7917867 120.6494717  85.3144365  58.0973883
 119.8433591  72.7482398  60.0685532 119.4731378  72.1953438  60.7566438
 120.3392683  72.1440531  59.5160532 117.6722789  83.2079893  67.1640550
 118.3732249  83.8416376  67.3169944 117.2017904  83.5494625  66.4036189
 121.5211648  76.5044311  71.4759138 120.8452285  76.4038441  72.1461513
 122.3439282  76.3483525  71.9395135 113.2690507  82.7416248  64.0971653
 113.8543944  81.9959936  64.2299557 113.0715346  83.0520205  64.9808317
 116.1229162  85.7767495  59.1134095 115.4539538  86.2613623  58.6298135
 115.9842032  86.0236716  60.0277474 107.8608162  75.3121848  62.8176096
 107.8992261  74.7785439  63.6113214 107.3548455  74.7857054  62.1987073
 120.2634431  87.8111239  65.7116754 120.8152739  87.9742860  66.4765839
 120.6040625  88.4015677  65.0396778 115.2398924  70.1586389  66.3138638
 115.3040251  71.0201220  65.9016036 115.1766045  69.5460390  65.5810997
 114.7151197  72.2309521  69.9611673 115.3423236  71.8486599  70.5749197
 113.8579116  72.0123723  70.3267365 111.4916740  74.0385950  55.8930027
 111.7870181  73.1296629  55.8397081 110.5904775  74.0173690  55.5711030
 115.0210987  72.1141947  61.8757576 114.2997572  72.7277915  61.7365049
 115.8104242  72.6499712  61.7974222 117.8237300  69.4496373  68.1498228
 118.3471702  69.6958670  68.9124537 117.6049633  70.2816408  67.7301365
 113.2204581  71.7200048  56.0169353 112.8917287  70.8397427  55.8344458
 113.5743952  71.6647717  56.9045742 116.3346404  72.0073018  56.3844830
 116.6742477  72.5358939  55.6623439 116.7818525  72.3453424  57.1603397
 119.0289845  70.3910069  65.8347898 118.6886665  69.5917882  66.2368578
 118.3228851  70.6911779  65.2624731 119.6806317  67.4759381  64.2875221
 120.5032386  67.0019859  64.1654112 119.9244380  68.2549865  64.7873908
 118.3214551  70.5047639  54.5838123 119.0422914  70.8828892  54.0801840
 117.6979856  71.2236516  54.6873101 117.2044896  74.1678502  62.0967200
 117.0589476  74.4818805  62.9891481 116.7270099  74.7863402  61.5438099
 119.0641279  71.1581050  62.1448089 119.0502847  70.2622143  61.8080387
 119.7813707  71.1651713  62.7786376 120.9167409  71.5918390  64.1901217
 120.6585187  72.5135460  64.1885547 120.3852450  71.1948824  64.8801681
 111.6790558  76.7083846  65.0354861 111.1344026  77.4843654  65.1675135
 112.5569908  77.0554651  64.8773983 118.4678175  70.0395430  57.4135660
 118.5894086  69.1112076  57.6126547 118.1780217  70.0534116  56.5013975
 121.3369365  67.7250340  60.5502379 121.3591062  67.7889673  59.5954359
 121.7537424  66.8854849  60.7442886 112.4656580  75.8353742  67.9285018
 111.7238316  75.9836378  68.5149648 112.1449324  76.0962008  67.0651767
 120.4100242  85.3769721  67.7265408 120.7187369  85.1318867  68.5988108
 121.2075724  85.5816359  67.2384278 120.4320854  87.5307630  59.9570785
 119.9925845  87.0384009  60.6503641 121.1828971  86.9880598  59.7162860
 112.9113193  83.7219171  59.9595413 113.7371213  83.4222943  59.5794056
 112.5607245  82.9526793  60.4085201 117.8794727  83.0745639  62.0293086
 117.2574736  82.4116344  61.7295314 118.5499593  83.1006771  61.3466734
 111.1121798  81.6405497  60.9184346 110.2753707  81.2127672  60.7368347
 111.0845444  81.8337941  61.8555137 117.9519254  71.5527427  71.6225592
 118.0007410  72.4289550  71.2403362 118.4941768  71.0104820  71.0497235
 117.4408233  81.6249563  55.5051547 117.5896354  82.3085027  54.8518219
 118.2474677  81.6054653  56.0201002 120.1818543  72.3058800  68.3771951
 119.3121852  72.5992366  68.1054539 120.4178023  72.8899245  69.0979215
 115.1960866  77.6514740  56.5112616 114.9506908  76.7477070  56.7092826
 115.3656781  77.6531891  55.5692094 114.4656514  73.3843098  54.0098777
 113.7725759  73.4587453  53.3538813 114.2208266  72.6203441  54.5320294
 120.9403639  84.1197693  52.9763294 120.3677606  84.7387880  52.5233766
 121.5136433  84.6697055  53.5103216 121.3250438  75.4558506  50.3179347
 122.2709542  75.3264714  50.3867765 120.9464682  74.7173168  50.7948775
 121.2089130  79.5076252  71.7780004 122.1292140  79.6854851  71.9720050
 121.1738713  78.5632297  71.6259703 119.5093355  73.3808482  50.2534232
 118.6024810  73.0841595  50.3296945 119.7869336  73.0838300  49.3868518
 110.4271295  74.7014846  60.7033278 110.1074079  73.8480154  60.4107652
 109.8804723  74.9163424  61.4591246 114.2051203  77.4177287  64.4202785
 114.4237212  78.3494394  64.4390819 114.6176976  77.0585261  65.2057589
 121.1255420  67.9245372  56.4078473 120.3156149  67.5792457  56.7833719
 121.8139837  67.6152916  56.9966085 119.0779068  72.9910492  73.8105534
 118.9775795  73.9404849  73.7417625 118.8600610  72.6628731  72.9381604
 118.2792139  70.2395417  50.3946211 119.1411303  70.5650316  50.6542028
 118.4642483  69.4526913  49.8819277 110.2959555  78.3217757  62.6726400
 109.6023026  77.9071710  62.1596354 111.0432546  78.3638294  62.0759819
 118.9410338  76.4207631  72.6270595 118.4577420  77.2207991  72.8334484
 119.0271277  76.4315576  71.6738039 112.2096298  78.2536011  60.5492415
 112.1866986  78.3523698  59.5974298 112.5196934  79.1001162  60.8709581
 114.8683675  80.3112166  64.6639029 115.8226929  80.2796108  64.5968961
 114.6696199  79.8502790  65.4789255 115.4583058  78.8813282  67.2309827
 116.2775947  79.3757361  67.2544664 115.7319865  77.9645250  67.2027394
 113.2233904  85.8531785  61.6809227 113.0888372  85.0932186  61.1147225
 112.8065967  86.5772685  61.2138016 116.3803030  86.7501102  61.8927670
 116.2635414  87.6946535  61.7906360 115.5595476  86.4474664  62.2813469
 110.7117972  73.2151416  67.9302024 111.3576835  72.7050370  68.4189249
 110.5035123  73.9520097  68.5045449 119.2321582  67.4791460  53.6825920
 119.2200252  68.4233300  53.8394191 120.1245004  67.2961606  53.3885381
 117.4057544  87.4029364  65.1083598 118.3084791  87.4352975  65.4250093
 117.1794914  86.4729815  65.1229934 119.1611146  86.1560351  61.7693677
 118.2106777  86.1562212  61.6558049 119.4643632  85.4093085  61.2529711
 115.0515463  70.3619033  72.0277038 115.9146924  70.0055838  72.2380363
 114.4780873  70.0232928  72.7152442 121.9098896  89.3881270  64.0162674
 122.1606935  90.2728280  64.2820250 122.4458445  89.2085872  63.2437765
 119.1233940  92.5613173  60.5458629 119.8104980  92.2474903  59.9579644
 118.9682069  93.4654537  60.2725880 118.7001916  90.6413766  62.8176096
 118.7386016  90.1077357  63.6113214 118.1942209  90.1148971  62.1987073
 121.9515553  96.9697415  60.9184346 121.1147461  96.5419590  60.7368347
 121.9239198  97.1629858  61.8555137 121.2665050  90.0306763  60.7033278
 120.9467834  89.1772071  60.4107652 120.7198478  90.2455341  61.4591246
 121.1353310  93.6509675  62.6726400 120.4416781  93.2363628  62.1596354
 121.8826301  93.6930211  62.0759819 121.5511726  88.5443333  67.9302024
 122.1970590  88.0342287  68.4189249 121.3428877  89.2812015  68.5045449
  74.6522484   2.6928551  44.3632421  74.5746514   3.6436376  44.4420902
  74.0484127   2.3474423  45.0207348  72.2909314   5.4413945  48.5080623
  72.5305912   6.0732469  49.1859642  71.4478510   5.0901985  48.7945983
  72.7654146   1.4661947  45.8379402  72.0964521   1.9508075  45.3543442
  72.6267015   1.7131168  46.7522780  76.9059414   3.5005691  52.4362060
  77.4577722   3.6637312  53.2011145  77.2465608   4.0910129  51.7642085
  77.0745838   3.2202082  46.6816091  76.6350828   2.7278461  47.3748948
  77.8253955   2.6775050  46.4408166  69.8658888   1.5426237  48.4054534
  69.7313355   0.7826638  47.8392532  69.4490950   2.2667137  47.9383323
  73.0228013   2.4395554  48.6172976  72.9060398   3.3840987  48.5151667
  72.2020460   2.1369116  49.0058776  74.0482528   3.0923816  51.8328905
  74.9509774   3.1247426  52.1495400  73.8219898   2.1624267  51.8475241
  88.3478529   7.6342769  49.4946270  88.0097041   7.5183834  48.6066805
  89.2168298   7.2333934  49.4747277  84.2065345   9.4878246  45.4843161
  83.6430210   9.3968183  44.7159449  84.0917740   8.6678150  45.9645654
  88.8298312   8.7877621  55.4532476  88.8186953   8.3930419  54.5812980
  88.9918952   8.0543694  56.0466247  81.7529777  10.9829437  48.3227382
  82.5451069  10.6420262  47.9073681  81.9926427  11.0924412  49.2429535
  89.7864904  13.1549213  40.7957626  89.1352883  13.7403294  40.4091640
  90.5809267  13.6855408  40.8552664  83.7120531  10.2438350  41.1944761
  84.4851407   9.6967338  41.0557636  84.0645930  11.1082600  41.4059222
  85.5505573  11.5714733  54.4011660  85.2595439  12.4760364  54.2858326
  86.1862558  11.6131260  55.1155730  86.4761780   8.9491581  50.9913020
  87.0725353   8.7247604  50.2769983  86.5336752   8.2076327  51.5938467
  86.0486809   6.4031017  38.8263211  86.3012329   5.8812538  38.0646674
  85.1111368   6.2397162  38.9289894  91.2640169  10.8439645  41.3326611
  90.6286002  10.9174272  42.0447515  90.9337575  11.4333244  40.6545690
  85.7683097   8.3059123  41.0287586  85.6519356   7.6304026  41.6968670
  85.8785357   7.8191496  40.2119739  88.1114638   7.7669270  44.7334275
  87.7472846   7.2399891  45.4447196  88.9681754   7.3767739  44.5600760
  90.5095459  11.2576148  51.3961454  90.2096182  12.1601187  51.2877261
  90.1646518  10.9908331  52.2482607  83.9607940   7.7089945  47.4298158
  83.0358436   7.5766159  47.6375850  84.2092353   8.4884164  47.9268100
  81.3216751   7.3523219  48.2641947  81.4509132   7.6057698  49.1781359
  80.6414202   7.9450927  47.9446602  85.4916238  18.0220469  44.3632421
  85.4140268  18.9728294  44.4420902  84.8877882  17.6766341  45.0207348
  86.2379840   8.0033787  56.5811755  86.9794525   8.5418831  56.3046579
  85.5316826   8.6300076  56.7383307  91.7135180  10.1462928  55.1783917
  92.1218536   9.7045338  54.4338549  90.9912442   9.5715555  55.4318110
  92.0363995  10.7064118  48.9336206  91.4072857  10.8709833  48.2312273
  91.6489657  11.1205728  49.7047170  95.9153227  11.6418556  46.2880569
  95.2304265  12.0217458  45.7377603  95.9997076  12.2513883  47.0212517
  93.1704158   9.2878515  52.8875913  93.3821053   9.9310275  52.2110294
  93.1233906   8.4540832  52.4197843  87.5891957  10.4438527  46.1986291
  88.0530302  10.7226230  45.4090913  87.3248755   9.5421971  46.0159381
  84.4816038   9.9910008  49.1366054  85.0517395  10.4197276  48.4983538
  85.0724149   9.7092593  49.8350240  86.5260843   6.5661679  43.0075856
  87.2284886   7.0182723  43.4749782  86.1941471   5.9245498  43.6355749
  84.9741204   5.1573436  57.3827065  84.3439865   5.8389716  57.6162462
  84.8677292   5.0456517  56.4380204  80.2686177   4.8245232  48.3092989
  79.4785231   5.0802760  47.8333100  80.7597424   5.6393569  48.4145030
  94.2849986  12.1650471  51.0598270  95.1067430  11.7630658  50.7780952
  94.2812389  12.0618705  52.0114386  82.2200922   5.1889811  45.2676466
  81.4232085   5.3008505  45.7859962  81.9926514   5.5276463  44.4017357
  88.0506590  11.7134514  53.2158981  88.1151022  12.1754921  54.0517153
  87.3417513  11.0831879  53.3441291  78.5523880   5.0775722  50.7407980
  78.8031918   5.9622732  51.0065556  79.0883428   4.8980324  49.9683072
  87.7654607  13.3802622  43.0837961  87.6300282  14.2254157  43.5122809
  88.3064420  13.5821899  42.3203895  81.2184005  10.8978060  43.6565886
  81.7308525  11.6921310  43.8071451  81.8706717  10.2004350  43.5899488
  83.0278889  14.0143816  45.7388639  83.2045518  14.9361781  45.5509623
  83.8235723  13.7002235  46.1683019  82.3131246   6.0608448  55.6150803
  82.1984761   5.1593705  55.9157901  81.4575764   6.3072145  55.2635619
  89.3923084  14.0026188  57.2138303  88.9486938  13.2162567  56.8959208
  90.0540297  14.1905339  56.5482194  84.1510205  15.5321990  51.7398982
  84.7017630  15.4039053  50.9675976  83.3121681  15.8316879  51.3893874
  91.4904322  14.2828988  55.2419704  91.4722797  15.1037869  54.7499974
  92.4124242  14.1583063  55.4669846  87.9477376  11.7973117  56.0843213
  88.4805713  11.0361406  55.8542521  87.4191457  11.5046769  56.8267367
  79.1832921   9.2266714  44.4325457  80.0208143   9.6363722  44.2159164
  79.3611189   8.2866156  44.4025651  96.0531628   9.6474149  42.0562463
  95.2761070   9.3085309  41.6117625  96.7323109   9.6526772  41.3817428
  89.3130089  10.9259110  43.5962025  88.7851450  10.1911870  43.2835262
  88.8117591  11.7033786  43.3501993  94.2922935   9.1208130  48.7129071
  93.6346609   9.8107392  48.8009200  95.0963334   9.5104562  49.0563057
  87.4582689   8.7439320  36.5996998  86.5509750   8.5128574  36.7988147
  87.9553721   7.9476939  36.7870979  90.3650768  17.4536827  39.5193684
  89.6912466  17.7568524  40.1278642  90.7516590  18.2565908  39.1699141
  88.6370922   8.8451915  41.1220988  87.7282141   8.5610948  41.2193458
  88.6666006   9.2650994  40.2624295  93.8690190  12.4558505  44.8912156
  93.4152517  11.6149414  44.9477346  93.2384156  13.0919903  45.2286936
  92.3123129  14.2935001  45.8261974  92.6046103  14.8540058  45.1074339
  92.8221749  14.5863562  46.5815133  79.2059093   6.5657429  45.1036190
  79.0083492   5.9726790  44.3787257  78.6505757   6.2609639  45.8212129
  88.3347010  10.3860659  38.4609067  87.8966440   9.6696518  38.0014704
  89.0757451  10.6136774  37.8994158  87.2756754  15.0715352  46.9155427
  87.2332933  15.2976199  45.9863959  88.1919453  14.8378727  47.0641228
  96.4789504  10.7294383  49.5296657  96.9126011  10.6369672  50.3779711
  97.1921085  10.7051883  48.8916673  85.3922555  11.9478381  46.7117390
  86.1863153  11.4528702  46.5099965  84.6814247  11.4196245  46.3485095
  90.2117399  14.3296477  51.0629757  90.2654422  14.8987413  51.8307473
  89.3432181  14.4998362  50.6983794  81.7005318   6.0921463  42.7877142
  80.7702906   6.0305919  43.0047104  81.7962790   5.5697416  41.9913784
  97.3405054  10.7718083  52.0629542  97.5340944  11.6763894  52.3088817
  97.2405672  10.3125503  52.8968127  92.4020163  10.9224826  57.6370423
  92.2505669  10.6935378  56.7200506  92.3924842  11.8795428  57.6501768
  89.1705499   8.4956739  52.6216689  90.0997559   8.6467899  52.4485656
  88.7496529   8.5840760  51.7665336  87.9693831  12.5207403  50.3915227
  87.8304916  12.1526188  51.2641165  87.1808427  13.0355043  50.2199184
  88.5641983  17.6216500  41.7340763  88.7393738  17.1504543  42.5486386
  87.8774771  18.2482266  41.9622024  89.5199046  11.8989006  47.7804064
  89.1848879  11.8589776  48.6761714  89.0202992  11.2333722  47.3074475
  83.4943290   7.3056636  53.3056646  83.3563088   6.5736875  53.9068185
  84.4048213   7.2165536  53.0240833  92.4558238   9.2445040  38.0541124
  91.8387408   8.5191869  37.9574177  91.9874726  10.0054401  37.7108198
  86.1225591   7.0176595  52.7940325  86.8325209   6.3769788  52.7526944
  86.0794899   7.2689490  53.7166506  94.1112369  13.9543949  55.7146904
  94.0524915  13.2703169  55.0477487  94.5131888  14.6962939  55.2627530
  83.1303068  20.7705863  48.5080623  83.3699666  21.4024387  49.1859642
  82.2872265  20.4193903  48.7945983  94.1129777  11.9183533  53.9460884
  93.2256555  11.5809454  54.0687283  94.6828328  11.1866564  54.1829650
  75.7658924   8.2507624  47.2703936  76.4529963   7.9369354  46.6824951
  75.6107052   9.1548989  46.9971187  87.6430930  16.5784985  50.9122127
  87.5701101  17.3839957  51.4241432  87.2008323  16.7776951  50.0870149
  87.4320710  15.8156755  44.4224949  86.6488231  16.3578435  44.5163173
  88.1313455  16.3330735  44.8219190  90.1029613  16.4771819  53.0680286
  90.8157586  17.1119284  52.9956187  89.6119642  16.5735685  52.2520288
  91.8247140  10.3823072  44.6397578  90.8903419  10.5024534  44.4702282
  92.0023809   9.4795539  44.3757588  85.1541527  14.2266263  53.8885857
  85.8550986  14.8602746  54.0415251  84.6836642  14.5680994  53.1281496
  93.2795923  12.5684212  42.1733764  93.5555767  12.4540807  43.0827638
  92.4100422  12.1701697  42.1345937  89.9149987  16.8170563  45.8166577
  90.0972381  15.9992219  46.2794330  90.7382973  17.0338255  45.3791467
  90.2492152  15.7438748  43.0781626  90.7779919  15.2331203  42.4651788
  90.5120372  15.4281279  43.9427159  89.0030386   7.5230681  58.2004444
  88.3271023   7.4224810  58.8706819  89.8258020   7.3669895  58.6640441
  80.7509245  13.7602618  50.8216960  81.3362682  13.0146305  50.9544864
  80.5534083  14.0706574  51.7053623  83.6047900  16.7953865  45.8379402
  82.9358276  17.2799993  45.3543442  83.4660770  17.0423085  46.7522780
  75.3426900   6.3308218  49.5421403  75.3810999   5.7971808  50.3358521
  74.8367193   5.8043423  48.9232380  87.7453169  18.8297609  52.4362060
  88.2971477  18.9929230  53.2011145  88.0859362  19.4202046  51.7642085
  92.5964043  13.6558866  58.2910715  93.1403947  14.2688824  57.7965669
  92.0150888  14.2138444  58.8077728  78.9735477   5.0572320  42.6175334
  79.2688918   4.1482998  42.5642388  78.0723513   5.0360059  42.2956336
  90.8821556  16.7779584  49.4225742  90.7572696  15.9769324  48.9136688
  91.5400647  17.2725777  48.9339712  92.9456465  14.5788604  51.0505293
  91.9986800  14.4593955  50.9783619  93.2939238  13.6911102  51.1331554
  89.9502898  14.3741320  47.2509645  89.8027860  13.4458028  47.4317215
  90.7756391  14.3961411  46.7666720  93.5537020  15.1969879  48.3374517
  94.4783567  14.9912740  48.1998969  93.3852323  14.9486280  49.2463859
  84.6863634   5.1864871  48.8212507  84.5408214   5.5005174  49.7136788
  84.2088837   5.8049772  48.2683405  93.3432336  15.7155547  43.6936609
  93.5169213  15.1501969  42.9410461  93.8361227  16.5156441  43.5116099
  79.1609296   7.7270216  51.7600168  78.6162764   8.5030024  51.8920442
  80.0388646   8.0741020  51.6019289  94.3307508  15.0322311  40.7933507
  95.0258413  15.6529004  41.0120822  94.6730658  14.1817662  41.0685885
  79.9475318   6.8540112  54.6530325  79.2057054   7.0022747  55.2394955
  79.6268062   7.1148377  53.7897074  96.2298931  12.4822016  42.3220838
  96.7550256  12.8209289  41.5970158  96.1421284  11.5469032  42.1383973
  87.8918980  16.3956090  54.4510715  88.2006107  16.1505237  55.3233414
  88.6894462  16.6002729  53.9629585  87.9139592  18.5494000  46.6816091
  87.4744583  18.0570378  47.3748948  88.6647709  18.0066967  46.4408166
  80.3931931  14.7405541  46.6840719  81.2189951  14.4409312  46.3039363
  80.0425983  13.9713163  47.1330508  85.3613464  14.0932009  48.7538393
  84.7393474  13.4302714  48.4540621  86.0318331  14.1193141  48.0712041
  78.5940536  12.6591867  47.6429653  77.7572445  12.2314041  47.4613654
  78.5664182  12.8524310  48.5800444  95.9192838  13.1154920  57.6272036
  95.1288381  13.0979059  57.0876535  95.6826192  13.6543214  58.3821073
  96.0390713   9.9647386  54.9404764  96.0888718   9.7997394  55.8820287
  95.9304636   9.0974645  54.5502645  84.9226971  12.6435932  42.2296853
  85.0715092  13.3271397  41.5763526  85.7293415  12.6241022  42.7446309
  97.5408909  12.3844328  55.1846786  97.2493718  12.7474309  56.0210247
  96.9281041  11.6711336  55.0060118  82.6779604   8.6701110  43.2357922
  82.4325646   7.7663440  43.4338132  82.8475519   8.6718260  42.2937400
  88.4222377  15.1384063  39.7008601  87.8496344  15.7574250  39.2479073
  88.9955170  15.6883424  40.2348523  91.6419637  15.4221213  40.8317183
  92.5750310  15.3566774  41.0350059  91.5542849  16.2577480  40.3731716
  94.2707653  14.7387083  37.7921131  94.1921285  14.4046947  38.6856889
  95.0917320  15.2308851  37.7912603  88.6907868  10.5262621  58.5025310
  89.6110877  10.7041220  58.6965357  88.6557451   9.5818667  58.3505010
  77.9090033   5.7201215  47.4278585  77.5892817   4.8666523  47.1352959
  77.3623461   5.9349793  48.1836552  81.6869940   8.4363656  51.1448091
  81.9055950   9.3680764  51.1636125  82.0995714   8.0771631  51.9302895
  77.7778293   9.3404127  49.3971707  77.0841764   8.9258079  48.8841661
  78.5251284   9.3824663  48.8005125  86.4229076   7.4394001  59.3515902
  85.9396157   8.2394361  59.5579791  86.5090015   7.4501946  58.3983346
  79.6915035   9.2722380  47.2737721  79.6685723   9.3710068  46.3219604
  80.0015672  10.1187531  47.5954888  82.3502413  11.3298535  51.3884336
  83.3045667  11.2982478  51.3214267  82.1514937  10.8689159  52.2034562
  82.9401795   9.8999651  53.9555133  83.7594684  10.3943730  53.9789971
  83.2138603   8.9831620  53.9272701  80.7052642  16.8718155  48.4054534
  80.5707110  16.1118556  47.8392532  80.2884704  17.5959055  47.9383323
  91.8411605  12.0555078  37.4131109  92.5447455  12.2605081  38.0288765
  91.1174254  12.6231840  37.6780192  83.8621768  17.7687472  48.6172976
  83.7454152  18.7132904  48.5151667  83.0414214  17.4661034  49.0058776
  93.7498302  12.4937608  39.4629569  94.5843906  12.0618806  39.2807044
  93.5882645  12.3219621  40.3906464  93.4044195   8.9969721  40.8285908
  93.3492998   8.8313992  39.8874352  92.7790250   9.7045754  40.9848098
  78.1936710   4.2337785  54.6547331  78.8395573   3.7236739  55.1434556
  77.9853861   4.9706467  55.2290756  90.7190102  11.3018633  60.1539471
  91.5881261  11.4759285  59.7926106  90.2396853  12.1213050  60.0315200
  84.8876282  18.4215734  51.8328905  85.7903529  18.4539344  52.1495400
  84.6613652  17.4916185  51.8475241  86.6429884  17.1746720  48.4938983
  85.6925515  17.1748582  48.3803356  86.9462370  16.4279455  47.9775018
 102.3782578  23.0107259  49.5584746 103.0160987  22.8914006  48.8548086
 102.2603420  23.9588103  49.6172698  99.1872284  22.9634687  49.4946270
  98.8490795  22.8475752  48.6066805 100.0562052  22.5625852  49.4747277
  95.0459100  24.8170163  45.4843161  94.4823965  24.7260100  44.7159449
  94.9311495  23.9970068  45.9645654  99.6692067  24.1169539  55.4532476
  99.6580708  23.7222337  54.5812980  99.8312706  23.3835611  56.0466247
  92.5923531  26.3121355  48.3227382  93.3844823  25.9712180  47.9073681
  92.8320182  26.4216330  49.2429535 100.6258658  28.4841131  40.7957626
  99.9746638  29.0695211  40.4091640 101.4203021  29.0147326  40.8552664
  94.5514285  25.5730268  41.1944761  95.3245161  25.0259255  41.0557636
  94.9039684  26.4374517  41.4059222  96.3899328  26.9006650  54.4011660
  96.0989194  27.8052281  54.2858326  97.0256312  26.9423178  55.1155730
  97.3155535  24.2783499  50.9913020  97.9119107  24.0539521  50.2769983
  97.3730506  23.5368244  51.5938467  96.8880563  21.7322934  38.8263211
  97.1406084  21.2104456  38.0646674  95.9505122  21.5689080  38.9289894
 101.9323846  20.7358713  46.6337954 102.7186935  20.3178136  46.2828371
 102.1962550  21.6404805  46.8019602 102.1033923  26.1731563  41.3326611
 101.4679756  26.2466189  42.0447515 101.7731330  26.7625162  40.6545690
 107.3332273  20.6733946  47.5370932 108.0657445  20.1033163  47.7708762
 106.5771629  20.2855546  47.9777438  96.6076852  23.6351040  41.0287586
  96.4913110  22.9595944  41.6968670  96.7179112  23.1483414  40.2119739
  98.9508393  23.0961187  44.7334275  98.5866600  22.5691808  45.4447196
  99.8075509  22.7059656  44.5600760 104.8557693  14.3855520  51.9965541
 104.5241018  15.2550931  51.7726756 104.2603307  14.0691804  52.6759571
  98.5913880  18.1251087  39.7295623  98.7588282  18.9931323  40.0966094
  98.4011049  18.2878369  38.8056913 101.3489213  26.5868066  51.3961454
 101.0489936  27.4893105  51.2877261 101.0040273  26.3200249  52.2482607
  94.8001695  23.0381863  47.4298158  93.8752191  22.9058077  47.6375850
  95.0486108  23.8176082  47.9268100 104.7486357  19.1050606  49.0758891
 103.8403234  19.0366015  48.7817652 104.6973953  19.5822551  49.9040716
  98.5703101  20.5808745  40.7142290  98.4502726  21.0265795  41.5527770
  97.8755689  20.9294062  40.1555828  92.1610506  22.6815136  48.2641947
  92.2902887  22.9349615  49.1781359  91.4807957  23.2742844  47.9446602
  96.3309993  33.3512386  44.3632421  96.2534023  34.3020211  44.4420902
  95.7271636  33.0058259  45.0207348  98.8227223  20.5240252  57.0193788
  98.0460557  21.0834172  57.0096653  99.4617786  21.0097035  57.5408658
 106.6148003  17.3067045  50.8536765 105.9722383  17.5999578  50.2076559
 106.1102932  17.1919965  51.6589962 104.2688167  21.0530218  41.5422624
 105.1806023  21.2857604  41.3670322 103.7597814  21.6367262  40.9797703
  97.0773595  23.3325705  56.5811755  97.8188279  23.8710749  56.3046579
  96.3710580  23.9591994  56.7383307 102.5528935  25.4754846  55.1783917
 102.9612291  25.0337256  54.4338549 101.8306196  24.9007473  55.4318110
  98.9060005  20.4127452  52.5517474  99.7521200  20.8366866  52.6952123
  98.8458642  19.7561077  53.2456037 102.8757749  26.0356036  48.9336206
 102.2466612  26.2001750  48.2312273 102.4883411  26.4497646  49.7047170
 106.7546981  26.9710474  46.2880569 106.0698019  27.3509375  45.7377603
 106.8390830  27.5805801  47.0212517 102.0559450  18.0731821  54.2098647
 101.8120382  18.8273881  53.6732923 102.3319380  18.4517168  55.0445894
 104.0097913  24.6170433  52.8875913 104.2214808  25.2602193  52.2110294
 103.9627661  23.7832750  52.4197843 101.6124142  17.2288254  49.7912485
 100.7508621  17.5269507  50.0829223 101.6386576  17.4458653  48.8593518
  98.4285711  25.7730444  46.1986291  98.8924057  26.0518147  45.4090913
  98.1642509  24.8713889  46.0159381  95.3209792  25.3201926  49.1366054
  95.8911149  25.7489194  48.4983538  95.9117904  25.0384510  49.8350240
  97.3654597  21.8953597  43.0075856  98.0678640  22.3474640  43.4749782
  97.0335226  21.2537415  43.6355749  95.8134959  20.4865353  57.3827065
  95.1833619  21.1681634  57.6162462  95.7071047  20.3748435  56.4380204
  91.1079931  20.1537149  48.3092989  90.3178985  20.4094678  47.8333100
  91.5991178  20.9685487  48.4145030 105.1243741  27.4942388  51.0598270
 105.9461184  27.0922576  50.7780952 105.1206144  27.3910623  52.0114386
  93.0594676  20.5181729  45.2676466  92.2625840  20.6300423  45.7859962
  92.8320269  20.8568381  44.4017357  98.8900344  27.0426432  53.2158981
  98.9544777  27.5046839  54.0517153  98.1811268  26.4123797  53.3441291
  89.3917634  20.4067640  50.7407980  89.6425672  21.2914650  51.0065556
  89.9277182  20.2272241  49.9683072 113.2149734  23.8381137  47.4083242
 112.4613442  23.2688535  47.2527246 113.3497275  23.8043801  48.3553876
  98.6048362  28.7094539  43.0837961  98.4694037  29.5546075  43.5122809
  99.1458174  28.9113817  42.3203895  95.0915701  14.7886119  59.7452316
  94.6982647  14.2352318  60.4199961  95.9081842  15.0996698  60.1358834
  92.0577759  26.2269977  43.6565886  92.5702280  27.0213228  43.8071451
  92.7100472  25.5296268  43.5899488  93.8672644  29.3435734  45.7388639
  94.0439272  30.2653698  45.5509623  94.6629477  29.0294153  46.1683019
  98.0083662  16.2043998  57.3372573  98.7493376  16.8051151  57.2577035
  98.2401585  15.4621636  56.7790615  93.1525000  21.3900365  55.6150803
  93.0378516  20.4885623  55.9157901  92.2969518  21.6364062  55.2635619
 100.2316838  29.3318106  57.2138303  99.7880692  28.5454484  56.8959208
 100.8934052  29.5197256  56.5482194  94.9903959  30.8613907  51.7398982
  95.5411384  30.7330971  50.9675976  94.1515435  31.1608796  51.3893874
 102.3298076  29.6120906  55.2419704 102.3116552  30.4329787  54.7499974
 103.2517996  29.4874981  55.4669846  98.7871130  27.1265035  56.0843213
  99.3199467  26.3653323  55.8542521  98.2585211  26.8338687  56.8267367
 101.9540825  12.2325101  51.6136855 101.6105095  13.1226743  51.5375965
 102.3219788  12.0426759  50.7506440  90.0226676  24.5558632  44.4325457
  90.8601898  24.9655640  44.2159164  90.2004944  23.6158074  44.4025651
 101.9191108  22.2233712  40.1209290 101.4037731  22.9938317  40.3597677
 101.6468416  21.5498848  40.7442351  99.5038219  17.0683413  45.1794528
  98.6479815  16.6790263  45.0000167  99.9165171  17.1475374  44.3194314
 101.0337366  14.6029756  49.5786088 100.5302161  14.5659891  48.7653893
 101.3267973  15.5122499  49.6382744  97.2780252  14.6868486  48.5852270
  98.1433248  14.4911295  48.2258159  97.3457760  14.4578838  49.5121626
 106.8925382  24.9766067  42.0562463 106.1154825  24.6377226  41.6117625
 107.5716863  24.9818690  41.3817428 101.7077411  20.0960804  41.9469071
 101.4027547  20.4106954  42.7979214 102.6607853  20.1742224  41.9896404
 100.1523843  26.2551028  43.5962025  99.6245205  25.5203787  43.2835262
  99.6511346  27.0325704  43.3501993 105.1316689  24.4500048  48.7129071
 104.4740364  25.1399310  48.8009200 105.9357088  24.8396480  49.0563057
  94.8842571  16.9170694  45.9568636  95.4586323  16.6945875  45.2241829
  95.4713553  16.9859388  46.7097238 103.9422148  22.8044421  46.7633013
 104.4554030  23.4374413  47.2654723 104.5923372  22.2045616  46.3976373
  95.2112158  18.9475155  39.9764522  94.3749470  19.2849841  40.2973796
  95.0716927  18.8124135  39.0391659  97.1865238  13.7911943  44.6843706
  96.5329651  13.4760960  44.0600321  97.1445713  13.1687683  45.4103529
  98.2976443  24.0731238  36.5996998  97.3903505  23.8420491  36.7988147
  98.7947475  23.2768857  36.7870979 101.2044522  32.7828745  39.5193684
 100.5306221  33.0860442  40.1278642 101.5910344  33.5857825  39.1699141
 100.4202979  20.2793876  49.0091353  99.5025540  20.5008823  48.8513041
 100.8363122  20.3540187  48.1503061 101.2038026  21.6785292  44.1394034
 101.9509845  22.1906689  43.8301156 101.4729616  21.3569345  44.9998427
  99.4764677  24.1743833  41.1220988  98.5675896  23.8902866  41.2193458
  99.5059760  24.5942911  40.2624295 104.7083944  27.7850422  44.8912156
 104.2546271  26.9441332  44.9477346 104.0777911  28.4211821  45.2286936
 103.6516864  18.7142408  46.1212823 102.9139620  18.2019795  46.4523066
 103.9043637  18.2742790  45.3096100 103.1516883  29.6226919  45.8261974
 103.4439858  30.1831976  45.1074339 103.6615504  29.9155480  46.5815133
  90.0452847  21.8949347  45.1036190  89.8477247  21.3018708  44.3787257
  89.4899511  21.5901557  45.8212129  98.0249571  21.7872453  47.2230783
  98.0798180  20.8346290  47.1473260  97.2140773  21.9431892  47.7072082
  99.1740764  25.7152576  38.4609067  98.7360194  24.9988435  38.0014704
  99.9151205  25.9428691  37.8994158  95.9641931  20.4049513  44.9821162
  95.1509796  20.7043684  45.3886354  96.4600925  20.0105202  45.6995644
  98.1150509  30.4007270  46.9155427  98.0726687  30.6268116  45.9863959
  99.0313207  30.1670645  47.0641228 101.5616142  20.8691338  53.8136056
 101.9165530  21.0962811  54.6730522 102.2088274  21.2009714  53.1913311
 107.2913879  23.9909773  44.5185385 107.1531778  24.1811369  43.5906574
 106.9350098  24.7529156  44.9753436  95.4556005  17.9767869  50.5982397
  96.0955385  17.8356628  49.9005360  94.6233536  17.6902382  50.2220999
 107.3183259  26.0586300  49.5296657 107.7519766  25.9661590  50.3779711
 108.0314840  26.0343801  48.8916673  96.2316309  27.2770299  46.7117390
  97.0256908  26.7820619  46.5099965  95.5208002  26.7488162  46.3485095
 101.0511154  29.6588395  51.0629757 101.1048176  30.2279331  51.8307473
 100.1825935  29.8290280  50.6983794  92.5399073  21.4213381  42.7877142
  91.6096661  21.3597836  43.0047104  92.6356545  20.8989334  41.9913784
  92.4584622  17.9468194  45.3755384  92.7191439  18.8613527  45.2664544
  93.2801794  17.4792636  45.5251997  93.9309547  19.3605951  52.5454208
  94.6032601  19.1523313  51.8966857  93.1039334  19.1628037  52.1059441
 108.1798808  26.1010001  52.0629542 108.3734699  27.0055812  52.3088817
 108.0799427  25.6417420  52.8968127  99.8335119  15.9867892  54.5619869
  99.1863034  16.6857841  54.4684346 100.6036135  16.4204036  54.9296118
 103.2413917  26.2516744  57.6370423 103.0899424  26.0227296  56.7200506
 103.2318597  27.2087345  57.6501768 100.0099254  23.8248657  52.6216689
 100.9391314  23.9759816  52.4485656  99.5890284  23.9132677  51.7665336
  98.8087585  27.8499321  50.3915227  98.6698671  27.4818105  51.2641165
  98.0202182  28.3646960  50.2199184  99.4035737  32.9508418  41.7340763
  99.5787493  32.4796461  42.5486386  98.7168525  33.5774184  41.9622024
 100.3592800  27.2280924  47.7804064 100.0242633  27.1881694  48.6761714
  99.8596746  26.5625640  47.3074475  94.3337044  22.6348554  53.3056646
  94.1956842  21.9028793  53.9068185  95.2441968  22.5457454  53.0240833
 103.2951992  24.5736958  38.0541124 102.6781163  23.8483786  37.9574177
 102.8268481  25.3346318  37.7108198  96.9619345  22.3468513  52.7940325
  97.6718964  21.7061705  52.7526944  96.9188653  22.5981408  53.7166506
 104.9506124  29.2835866  55.7146904 104.8918670  28.5995087  55.0477487
 105.3525642  30.0254856  55.2627530  95.6748279  19.3333731  54.6135965
  95.1385636  18.8824469  55.2657561  95.0864987  19.4679640  53.8706429
  95.0850538  18.7922382  37.1762428  94.2080004  18.6711183  36.8124675
  95.5608291  18.0008461  36.9241317 104.9523531  27.2475450  53.9460884
 104.0650310  26.9101372  54.0687283 105.5222082  26.5158482  54.1829650
  86.6052678  23.5799542  47.2703936  87.2923718  23.2661272  46.6824951
  86.4500807  24.4840907  46.9971187  91.4087400  18.4689739  51.6988959
  91.3245589  17.8615408  50.9639369  90.5870107  18.9598757  51.6998456
  98.4824684  31.9076903  50.9122127  98.4094856  32.7131874  51.4241432
  98.0402078  32.1068869  50.0870149  98.2714464  31.1448673  44.4224949
  97.4881986  31.6870353  44.5163173  98.9707209  31.6622652  44.8219190
 101.5811114  16.9543302  47.0659154 102.0779814  16.2013265  46.7460225
 100.8098096  16.9907619  46.5002364 109.4340872  22.6583668  48.7077446
 109.4230748  23.5408383  48.3371379 108.5658251  22.3055219  48.5131983
 100.9423368  31.8063737  53.0680286 101.6551340  32.4411202  52.9956187
 100.4513397  31.9027603  52.2520288 102.6640895  25.7114989  44.6397578
 101.7297174  25.8316452  44.4702282 102.8417563  24.8087456  44.3757588
  98.1646083  19.0960685  46.7930839  97.7943870  18.5431726  47.4811744
  98.6605175  18.4918819  46.2405839 106.0513446  21.5532309  45.1747612
 106.5173898  22.3860300  45.1007914 106.5020947  21.0877290  45.8792870
  95.9935281  29.5558180  53.8885857  96.6944741  30.1894663  54.0415251
  95.5230396  29.8972912  53.1281496 104.1189677  27.8976130  42.1733764
 104.3949521  27.7832725  43.0827638 103.2494176  27.4993615  42.1345937
 104.0230109  13.9212896  49.2138513 103.1093189  14.1517123  49.3820720
 104.4523210  14.0051340  50.0652546 103.7936567  22.1102788  51.7138407
 103.1408018  22.3578695  51.0590860 104.1716947  21.2966926  51.3800884
 100.7543741  32.1462481  45.8166577 100.9366136  31.3284137  46.2794330
 101.5776727  32.3630173  45.3791467 101.0885907  31.0730666  43.0781626
 101.6173673  30.5623121  42.4651788 101.3514126  30.7573196  43.9427159
  99.8424140  22.8522599  58.2004444  99.1664777  22.7516728  58.8706819
 100.6651774  22.6961812  58.6640441  91.5903000  29.0894535  50.8216960
  92.1756436  28.3438223  50.9544864  91.3927838  29.3998492  51.7053623
  86.1820654  21.6600135  49.5421403  86.2204754  21.1263726  50.3358521
  85.6760947  21.1335341  48.9232380  98.5846923  34.1589526  52.4362060
  99.1365231  34.3221148  53.2011145  98.9253117  34.7493964  51.7642085
  93.5611417  16.5064676  53.0383945  93.6252743  17.3679507  52.6261343
  93.4978537  15.8938678  52.3056303  93.0363689  18.5787809  56.6856979
  93.6635728  18.1964886  57.2994504  92.1791608  18.3602010  57.0512672
 103.4357798  28.9850784  58.2910715 103.9797702  29.5980742  57.7965669
 102.8544643  29.5430362  58.8077728  89.8129232  20.3864238  42.6175334
  90.1082673  19.4774916  42.5642388  88.9117268  20.3651977  42.2956336
 101.7215311  32.1071502  49.4225742 101.5966450  31.3061242  48.9136688
 102.3794402  32.6017695  48.9339712  93.3423479  18.4620234  48.6002883
  92.6210065  19.0756202  48.4610356  94.1316735  18.9977999  48.5219529
 103.7850219  29.9080522  51.0505293 102.8380555  29.7885873  50.9783619
 104.1332992  29.0203020  51.1331554  96.1449792  15.7974661  54.8743534
  96.6684194  16.0436957  55.6369844  95.9262126  16.6294696  54.4546672
  91.5417073  18.0678335  42.7414659  91.2129780  17.1875714  42.5589765
  91.8956444  18.0126004  43.6291048 100.7896652  29.7033238  47.2509645
 100.6421615  28.7749945  47.4317215 101.6150146  29.7253329  46.7666720
  94.6558897  18.3551305  43.1090137  94.9954969  18.8837226  42.3868745
  95.1031017  18.6931711  43.8848703 104.3930774  30.5261797  48.3374517
 105.3177322  30.3204658  48.1998969 104.2246078  30.2778198  49.2463859
  97.3502337  16.7388356  52.5593205  97.0099158  15.9396169  52.9613885
  96.6441344  17.0390067  51.9870038  98.0018809  13.8237668  51.0120528
  98.8244879  13.3498146  50.8899418  98.2456873  14.6028152  51.5119214
  96.6427044  16.8525927  41.3083430  97.3635406  17.2307179  40.8047146
  96.0192348  17.5714803  41.4118408 100.7858167  17.5571076  42.2441762
 101.0021781  18.4395714  41.9430590 100.3052234  17.1657289  41.5147404
  95.5257388  20.5156789  48.8212507  95.3801969  20.8297092  49.7136788
  95.0482592  21.1341689  48.2683405  97.3853771  17.5059337  48.8693396
  97.3715340  16.6100430  48.5325694  98.1026199  17.5130001  49.5031682
  99.2379902  17.9396677  50.9146524  98.9797679  18.8613748  50.9130854
  98.7064942  17.5427112  51.6046988 104.1826090  31.0447464  43.6936609
 104.3562968  30.4793887  42.9410461 104.6754982  31.8448359  43.5116099
  90.0003050  23.0562133  51.7600168  89.4556518  23.8321941  51.8920442
  90.8782400  23.4032938  51.6019289  96.7890667  16.3873717  44.1380966
  96.9106578  15.4590363  44.3371854  96.4992709  16.4012403  43.2259282
  99.6581857  14.0728628  47.2747686  99.6803554  14.1367961  46.3199666
 100.0749916  13.2333136  47.4688192 110.0365482  23.8083887  45.3126909
 110.4796628  23.0591212  44.9146032 109.1591992  23.7994023  44.9300641
 105.1701263  30.3614229  40.7933507 105.8652167  30.9820921  41.0120822
 105.5124413  29.5109580  41.0685885  90.7869072  22.1832030  54.6530325
  90.0450808  22.3314665  55.2394955  90.4661816  22.4440295  53.7897074
 107.0692686  27.8113934  42.3220838 107.5944010  28.1501207  41.5970158
 106.9815039  26.8760949  42.1383973  98.7312735  31.7248008  54.4510715
  99.0399861  31.4797155  55.3233414  99.5288217  31.9294646  53.9629585
  98.7533347  33.8785917  46.6816091  98.3138337  33.3862296  47.3748948
  99.5041464  33.3358885  46.4408166  96.2007219  29.4223926  48.7538393
  95.5787228  28.7594632  48.4540621  96.8712086  29.4485058  48.0712041
  89.4334291  27.9883785  47.6429653  88.5966199  27.5605959  47.4613654
  89.4057936  28.1816228  48.5800444  96.2731746  17.9005715  58.3470899
  96.3219902  18.7767837  57.9648668  96.8154261  17.3583108  57.7742542
 106.7586592  28.4446838  57.6272036 105.9682136  28.4270977  57.0876535
 106.5219947  28.9835131  58.3821073 106.8784467  25.2939304  54.9404764
 106.9282472  25.1289312  55.8820287 106.7698390  24.4266563  54.5502645
  95.7620726  27.9727850  42.2296853  95.9108846  28.6563314  41.5763526
  96.5687169  27.9532940  42.7446309 104.1688229  21.2770232  56.2564071
 105.0698092  21.1376697  55.9648069 104.2436204  21.4424687  57.1962249
  98.5031035  18.6537087  55.1017258  97.6334344  18.9470653  54.8299846
  98.7390515  19.2377532  55.8224521 108.3802664  27.7136246  55.1846786
 108.0887472  28.0766226  56.0210247 107.7674795  27.0003254  55.0060118
 109.5798346  25.2789125  47.7049356 110.4145238  25.7178930  47.8686917
 109.7157475  24.8027779  46.8857602 106.6289852  22.8368860  53.6526844
 107.1043974  23.0296507  52.8445695 105.7055418  22.8928046  53.4070228
  93.5173359  23.9993027  43.2357922  93.2719401  23.0955357  43.4338132
  93.6869273  24.0010178  42.2937400 101.2070069  14.8716704  52.6182678
 101.7252012  15.6077731  52.2929166 100.8525201  15.1780697  53.4529437
  92.7869006  19.7321385  40.7344084  92.0938251  19.8065740  40.0784120
  92.5420758  18.9681729  41.2565601  99.2616131  30.4675980  39.7008601
  98.6890098  31.0866167  39.2479073  99.8348925  31.0175342  40.2348523
 105.3291521  19.7134620  51.8855150 106.2808944  19.8132718  51.9067374
 105.1594972  18.9212889  52.3953234 103.3505901  16.7990204  52.0714551
 102.7555833  17.0795216  51.3761039 103.0655597  17.2884105  52.8431292
 102.4813391  30.7513130  40.8317183 103.4144064  30.6858692  41.0350059
 102.3936604  31.5869397  40.3731716 105.1101408  30.0679001  37.7921131
 105.0315039  29.7338864  38.6856889 105.9311075  30.5600769  37.7912603
 107.8079599  22.9340740  50.9997449 107.7755919  21.9956741  51.1857133
 108.4180223  23.0124777  50.2663274  99.6462930  21.8036793  37.0424653
 100.5922035  21.6743001  37.1113071  99.2677175  21.0651455  37.5194081
 107.9574087  19.7251783  51.0455732 107.4413136  18.9410240  50.8585661
 108.8414036  19.3970500  51.2102252 105.6184814  13.4692799  47.0051545
 105.4209635  13.1607887  47.8894877 106.2284520  14.1954438  47.1349475
 113.6256149  23.9956747  50.1403486 114.3559537  23.7342035  50.7011189
 113.0163094  23.2585469  50.1805554 111.7071446  22.1364609  50.7377937
 110.9804609  22.0020574  50.1294429 111.2918733  22.4441438  51.5434655
  99.5301622  25.8554539  58.5025310 100.4504632  26.0333138  58.6965357
  99.4951205  24.9110585  58.3505010  97.8305847  19.7286769  36.9779539
  96.9237302  19.4319882  37.0542252  98.1081828  19.4316588  36.1113825
  88.7483787  21.0493133  47.4278585  88.4286572  20.1958441  47.1352959
  88.2017216  21.2641711  48.1836552  92.5263695  23.7655574  51.1448091
  92.7449705  24.6972682  51.1636125  92.9389469  23.4063548  51.9302895
  99.4467913  14.2723659  43.1323780  98.6368641  13.9270744  43.5079026
 100.1352330  13.9631203  43.7211391 101.3758461  13.3501706  44.7548076
 101.9289500  13.7697159  45.4138100 101.6128547  12.4237454  44.7971032
  97.3991560  19.3388780  60.5350840  97.2988287  20.2883137  60.4662931
  97.1813102  19.0107018  59.6626910  96.6004632  16.5873705  37.1191518
  97.4623796  16.9128603  37.3787335  96.7854976  15.8005201  36.6064584
  88.6172047  24.6696044  49.3971707  87.9235519  24.2549997  48.8841661
  89.3645038  24.7116581  48.8005125 104.7537268  15.4602231  44.2626741
 104.1735937  16.1187035  43.8804793 104.4873201  14.6379576  43.8514158
 103.2040834  14.8607289  46.4648061 103.7040613  14.9723823  45.6562380
 103.8476442  14.5568342  47.1048869  97.2622830  22.7685918  59.3515902
  96.7789912  23.5686279  59.5579791  97.3483769  22.7793863  58.3983346
  90.5308790  24.6014298  47.2737721  90.5079478  24.7001985  46.3219604
  90.8409426  25.4479449  47.5954888  93.1896168  26.6590453  51.3884336
  94.1439421  26.6274395  51.3214267  92.9908691  26.1981077  52.2034562
  93.7795550  25.2291569  53.9555133  94.5988439  25.7235648  53.9789971
  94.0532358  24.3123537  53.9272701 103.5362146  17.6202321  43.3183089
 102.6488001  17.9051972  43.1003284 103.9516135  17.4596085  42.4710366
 106.8876682  17.6448842  47.0337428 107.6637072  18.1345295  47.3062045
 106.1624816  18.0706897  47.4909298 109.3249241  18.3576462  48.0911369
 109.9193732  18.1172198  47.3804677 109.3975825  17.6383592  48.7184905
 102.6805360  27.3846996  37.4131109 103.3841210  27.5896999  38.0288765
 101.9568008  27.9523758  37.6780192 103.5103170  23.1356857  43.5333379
 103.4538371  23.5925409  42.6941012 104.0631512  22.3747542  43.3556222
 107.3207976  18.9246589  44.3583499 107.0644910  18.5243225  45.1891706
 106.6960844  19.6390383  44.2333638 111.6320314  21.6642663  46.8654790
 111.0719872  21.7335852  47.6386352 111.0263817  21.4883647  46.1454286
 104.5892057  27.8229525  39.4629569 105.4237661  27.3910724  39.2807044
 104.4276400  27.6511539  40.3906464 104.2437949  24.3261639  40.8285908
 104.1886753  24.1605910  39.8874352 103.6184004  25.0337672  40.9848098
  89.0330464  19.5629703  54.6547331  89.6789328  19.0528657  55.1434556
  88.8247615  20.2998385  55.2290756 101.5583856  26.6310551  60.1539471
 102.4275016  26.8051203  59.7926106 101.0790608  27.4504967  60.0315200
  97.5534075  13.8269748  40.4071227  97.5412744  14.7711588  40.5639498
  98.4457496  13.6439893  40.1130688  97.4823639  32.5038638  48.4938983
  96.5319270  32.5040500  48.3803356  97.7856125  31.7571373  47.9775018
  93.3727955  16.7097320  58.7522345  94.2359417  16.3534125  58.9625669
  92.7993366  16.3711215  59.4397749 113.2176332  38.3399176  49.5584746
 113.8554742  38.2205924  48.8548086 113.0997175  39.2880020  49.6172698
 110.0266038  38.2926605  49.4946270 109.6884550  38.1767669  48.6066805
 110.8955806  37.8917770  49.4747277 105.8852854  40.1462081  45.4843161
 105.3217719  40.0552018  44.7159449 105.7705249  39.3261985  45.9645654
 110.5085821  39.4461456  55.4532476 110.4974462  39.0514255  54.5812980
 110.6706461  38.7127529  56.0466247 103.4317286  41.6413273  48.3227382
 104.2238578  41.3004097  47.9073681 103.6713936  41.7508248  49.2429535
 111.4652413  43.8133049  40.7957626 110.8140392  44.3987129  40.4091640
 112.2596776  44.3439244  40.8552664 105.3908040  40.9022186  41.1944761
 106.1638916  40.3551173  41.0557636 105.7433439  41.7666435  41.4059222
 107.2293082  42.2298568  54.4011660 106.9382948  43.1344199  54.2858326
 107.8650067  42.2715096  55.1155730 108.1549289  39.6075417  50.9913020
 108.7512862  39.3831439  50.2769983 108.2124261  38.8660162  51.5938467
 107.7274318  37.0614852  38.8263211 107.9799838  36.5396373  38.0646674
 106.7898877  36.8980997  38.9289894 112.7717601  36.0650630  46.6337954
 113.5580690  35.6470053  46.2828371 113.0356305  36.9696722  46.8019602
 112.9427678  41.5023481  41.3326611 112.3073511  41.5758107  42.0447515
 112.6125084  42.0917079  40.6545690 118.1726028  36.0025864  47.5370932
 118.9051200  35.4325080  47.7708762 117.4165383  35.6147464  47.9777438
 107.4470606  38.9642958  41.0287586 107.3306865  38.2887861  41.6968670
 107.5572866  38.4775332  40.2119739 109.7902147  38.4253105  44.7334275
 109.4260355  37.8983726  45.4447196 110.6469263  38.0351574  44.5600760
 115.6951448  29.7147438  51.9965541 115.3634773  30.5842849  51.7726756
 115.0997061  29.3983722  52.6759571 109.4307634  33.4543005  39.7295623
 109.5982037  34.3223241  40.0966094 109.2404803  33.6170286  38.8056913
 112.1882968  41.9159984  51.3961454 111.8883691  42.8185022  51.2877261
 111.8434027  41.6492167  52.2482607 105.6395449  38.3673780  47.4298158
 104.7145945  38.2349995  47.6375850 105.8879862  39.1468000  47.9268100
 115.5880111  34.4342524  49.0758891 114.6796989  34.3657932  48.7817652
 115.5367707  34.9114469  49.9040716 109.4096855  35.9100662  40.7142290
 109.2896480  36.3557713  41.5527770 108.7149444  36.2585980  40.1555828
 103.0004260  38.0107054  48.2641947 103.1296641  38.2641533  49.1781359
 102.3201711  38.6034762  47.9446602 107.1703747  48.6804304  44.3632421
 107.0927777  49.6312129  44.4420902 106.5665391  48.3350176  45.0207348
 109.6620977  35.8532169  57.0193788 108.8854311  36.4126090  57.0096653
 110.3011540  36.3388952  57.5408658 117.4541758  32.6358962  50.8536765
 116.8116138  32.9291495  50.2076559 116.9496686  32.5211883  51.6589962
 115.1081921  36.3822135  41.5422624 116.0199777  36.6149522  41.3670322
 114.5991568  36.9659180  40.9797703 107.9167349  38.6617623  56.5811755
 108.6582034  39.2002667  56.3046579 107.2104335  39.2883912  56.7383307
 113.3922689  40.8046763  55.1783917 113.8006045  40.3629174  54.4338549
 112.6699951  40.2299391  55.4318110 109.7453759  35.7419370  52.5517474
 110.5914954  36.1658784  52.6952123 109.6852397  35.0852994  53.2456037
 113.7151504  41.3647954  48.9336206 113.0860366  41.5293668  48.2312273
 113.3277166  41.7789563  49.7047170 117.5940736  42.3002392  46.2880569
 116.9091774  42.6801293  45.7377603 117.6784585  42.9097718  47.0212517
 112.8953204  33.4023738  54.2098647 112.6514136  34.1565799  53.6732923
 113.1713135  33.7809086  55.0445894 114.8491667  39.9462351  52.8875913
 115.0608562  40.5894111  52.2110294 114.8021415  39.1124667  52.4197843
 112.4517896  32.5580171  49.7912485 111.5902375  32.8561425  50.0829223
 112.4780331  32.7750570  48.8593518 109.2679466  41.1022362  46.1986291
 109.7317811  41.3810065  45.4090913 109.0036264  40.2005807  46.0159381
 106.1603547  40.6493843  49.1366054 106.7304904  41.0781112  48.4983538
 106.7511658  40.3676428  49.8350240 108.2048352  37.2245514  43.0075856
 108.9072395  37.6766558  43.4749782 107.8728980  36.5829333  43.6355749
 106.6528713  35.8157271  57.3827065 106.0227374  36.4973552  57.6162462
 106.5464801  35.7040353  56.4380204 101.9473686  35.4829067  48.3092989
 101.1572740  35.7386595  47.8333100 102.4384933  36.2977405  48.4145030
 115.9637495  42.8234306  51.0598270 116.7854939  42.4214493  50.7780952
 115.9599898  42.7202540  52.0114386 103.8988431  35.8473646  45.2676466
 103.1019594  35.9592340  45.7859962 103.6714023  36.1860298  44.4017357
 109.7294099  42.3718349  53.2158981 109.7938531  42.8338757  54.0517153
 109.0205022  41.7415714  53.3441291 100.2311389  35.7359557  50.7407980
 100.4819427  36.6206567  51.0065556 100.7670937  35.5564159  49.9683072
 109.4442116  44.0386457  43.0837961 109.3087791  44.8837993  43.5122809
 109.9851929  44.2405735  42.3203895 105.9309456  30.1178037  59.7452316
 105.5376401  29.5644235  60.4199961 106.7475596  30.4288615  60.1358834
 102.8971514  41.5561895  43.6565886 103.4096034  42.3505145  43.8071451
 103.5494226  40.8588185  43.5899488 104.7066398  44.6727651  45.7388639
 104.8833027  45.5945616  45.5509623 105.5023232  44.3586070  46.1683019
 108.8477417  31.5335916  57.3372573 109.5887130  32.1343069  57.2577035
 109.0795340  30.7913554  56.7790615 103.9918755  36.7192283  55.6150803
 103.8772270  35.8177540  55.9157901 103.1363273  36.9655980  55.2635619
 111.0710593  44.6610023  57.2138303 110.6274447  43.8746402  56.8959208
 111.7327806  44.8489174  56.5482194 105.8297714  46.1905825  51.7398982
 106.3805139  46.0622888  50.9675976 104.9909190  46.4900714  51.3893874
 113.1691831  44.9412823  55.2419704 113.1510306  45.7621704  54.7499974
 114.0911751  44.8166899  55.4669846 109.6264885  42.4556953  56.0843213
 110.1593222  41.6945241  55.8542521 109.0978966  42.1630605  56.8267367
 112.7934580  27.5617019  51.6136855 112.4498849  28.4518660  51.5375965
 113.1613542  27.3718676  50.7506440 100.8620430  39.8850549  44.4325457
 101.6995652  40.2947558  44.2159164 101.0398698  38.9449991  44.4025651
 112.7584863  37.5525630  40.1209290 112.2431486  38.3230235  40.3597677
 112.4862171  36.8790766  40.7442351 110.3431974  32.3975331  45.1794528
 109.4873570  32.0082181  45.0000167 110.7558925  32.4767291  44.3194314
 111.8731120  29.9321674  49.5786088 111.3695916  29.8951809  48.7653893
 112.1661727  30.8414417  49.6382744 108.1174006  30.0160404  48.5852270
 108.9827003  29.8203212  48.2258159 108.1851515  29.7870755  49.5121626
 117.7319137  40.3057985  42.0562463 116.9548579  39.9669144  41.6117625
 118.4110618  40.3110608  41.3817428 112.5471166  35.4252722  41.9469071
 112.2421301  35.7398871  42.7979214 113.5001608  35.5034142  41.9896404
 110.9917598  41.5842945  43.5962025 110.4638959  40.8495705  43.2835262
 110.4905100  42.3617622  43.3501993 115.9710444  39.7791966  48.7129071
 115.3134118  40.4691227  48.8009200 116.7750843  40.1688398  49.0563057
 105.7236325  32.2462612  45.9568636 106.2980077  32.0237793  45.2241829
 106.3107308  32.3151306  46.7097238 114.7815902  38.1336338  46.7633013
 115.2947784  38.7666330  47.2654723 115.4317126  37.5337534  46.3976373
 106.0505912  34.2767073  39.9764522 105.2143225  34.6141759  40.2973796
 105.9110682  34.1416052  39.0391659 108.0258993  29.1203860  44.6843706
 107.3723405  28.8052878  44.0600321 107.9839467  28.4979601  45.4103529
 109.1370198  39.4023156  36.5996998 108.2297259  39.1712409  36.7988147
 109.6341230  38.6060775  36.7870979 112.0438277  48.1120663  39.5193684
 111.3699975  48.4152360  40.1278642 112.4304099  48.9149743  39.1699141
 111.2596733  35.6085794  49.0091353 110.3419295  35.8300741  48.8513041
 111.6756877  35.6832105  48.1503061 112.0431781  37.0077210  44.1394034
 112.7903600  37.5198607  43.8301156 112.3123371  36.6861262  44.9998427
 110.3158431  39.5035750  41.1220988 109.4069650  39.2194783  41.2193458
 110.3453515  39.9234829  40.2624295 115.5477699  43.1142340  44.8912156
 115.0940026  42.2733250  44.9477346 114.9171665  43.7503738  45.2286936
 114.4910618  34.0434326  46.1212823 113.7533375  33.5311712  46.4523066
 114.7437392  33.6034708  45.3096100 113.9910638  44.9518837  45.8261974
 114.2833612  45.5123894  45.1074339 114.5009258  45.2447398  46.5815133
 114.5922245  26.8210578  46.7154592 114.8981122  25.9607941  46.4280507
 115.3174850  27.4128198  46.5153586 100.8846602  37.2241265  45.1036190
 100.6871001  36.6310625  44.3787257 100.3293266  36.9193475  45.8212129
 108.8643325  37.1164371  47.2230783 108.9191935  36.1638207  47.1473260
 108.0534527  37.2723810  47.7072082 110.0134519  41.0444494  38.4609067
 109.5753949  40.3280353  38.0014704 110.7544960  41.2720609  37.8994158
 106.8035685  35.7341431  44.9821162 105.9903551  36.0335601  45.3886354
 107.2994679  35.3397120  45.6995644 108.9544263  45.7299188  46.9155427
 108.9120442  45.9560034  45.9863959 109.8706962  45.4962562  47.0641228
 112.4009897  36.1983255  53.8136056 112.7559285  36.4254728  54.6730522
 113.0482028  36.5301632  53.1913311 118.1307634  39.3201691  44.5185385
 117.9925532  39.5103287  43.5906574 117.7743853  40.0821074  44.9753436
 106.2949760  33.3059786  50.5982397 106.9349139  33.1648545  49.9005360
 105.4627290  33.0194300  50.2220999 118.1577013  41.3878218  49.5296657
 118.5913520  41.2953507  50.3779711 118.8708594  41.3635719  48.8916673
 107.0710064  42.6062217  46.7117390 107.8650662  42.1112537  46.5099965
 106.3601756  42.0780080  46.3485095 111.8904908  44.9880312  51.0629757
 111.9441931  45.5571249  51.8307473 111.0219690  45.1582197  50.6983794
 103.3792827  36.7505298  42.7877142 102.4490415  36.6889754  43.0047104
 103.4750299  36.2281251  41.9913784 103.2978376  33.2760111  45.3755384
 103.5585194  34.1905445  45.2664544 104.1195549  32.8084554  45.5251997
 104.7703302  34.6897868  52.5454208 105.4426355  34.4815231  51.8966857
 103.9433088  34.4919954  52.1059441 119.0192563  41.4301919  52.0629542
 119.2128453  42.3347729  52.3088817 118.9193181  40.9709338  52.8968127
 110.6728874  31.3159809  54.5619869 110.0256789  32.0149759  54.4684346
 111.4429889  31.7495953  54.9296118 114.0807672  41.5808662  57.6370423
 113.9293178  41.3519213  56.7200506 114.0712351  42.5379263  57.6501768
 110.8493008  39.1540574  52.6216689 111.7785068  39.3051734  52.4485656
 110.4284038  39.2424595  51.7665336 109.6481340  43.1791239  50.3915227
 109.5092425  42.8110023  51.2641165 108.8595936  43.6938878  50.2199184
 110.2429492  48.2800335  41.7340763 110.4181247  47.8088378  42.5486386
 109.5562280  48.9066101  41.9622024 111.1986555  42.5572841  47.7804064
 110.8636388  42.5173611  48.6761714 110.6990501  41.8917557  47.3074475
 105.1730799  37.9640471  53.3056646 105.0350597  37.2320710  53.9068185
 106.0835722  37.8749372  53.0240833 114.1345747  39.9028876  38.0541124
 113.5174917  39.1775704  37.9574177 113.6662235  40.6638236  37.7108198
 107.8013100  37.6760431  52.7940325 108.5112718  37.0353623  52.7526944
 107.7582408  37.9273326  53.7166506 115.7899878  44.6127784  55.7146904
 115.7312424  43.9287004  55.0477487 116.1919397  45.3546774  55.2627530
 106.5142034  34.6625649  54.6135965 105.9779391  34.2116387  55.2657561
 105.9258742  34.7971557  53.8706429 104.8090577  51.4289698  48.5080623
 105.0487175  52.0608222  49.1859642 103.9659774  51.0777738  48.7945983
 105.9244292  34.1214300  37.1762428 105.0473759  34.0003101  36.8124675
 106.4002046  33.3300378  36.9241317 115.7917286  42.5767368  53.9460884
 114.9044064  42.2393290  54.0687283 116.3615837  41.8450399  54.1829650
  97.4446433  38.9091460  47.2703936  98.1317472  38.5953190  46.6824951
  97.2894561  39.8132824  46.9971187 102.2481155  33.7981656  51.6988959
 102.1639344  33.1907326  50.9639369 101.4263861  34.2890675  51.6998456
 109.3218439  47.2368820  50.9122127 109.2488610  48.0423792  51.4241432
 108.8795832  47.4360786  50.0870149 109.1108219  46.4740590  44.4224949
 108.3275740  47.0162271  44.5163173 109.8100964  46.9914570  44.8219190
 112.4204869  32.2835220  47.0659154 112.9173568  31.5305182  46.7460225
 111.6491850  32.3199537  46.5002364 120.2734626  37.9875585  48.7077446
 120.2624502  38.8700301  48.3371379 119.4052005  37.6347136  48.5131983
 111.7817122  47.1355654  53.0680286 112.4945095  47.7703119  52.9956187
 111.2907151  47.2319520  52.2520288 113.5034649  41.0406907  44.6397578
 112.5690928  41.1608370  44.4702282 113.6811318  40.1379374  44.3757588
 109.0039837  34.4252603  46.7930839 108.6337625  33.8723643  47.4811744
 109.4998930  33.8210736  46.2405839 116.8907201  36.8824226  45.1747612
 117.3567653  37.7152218  45.1007914 117.3414701  36.4169208  45.8792870
 106.8329036  44.8850098  53.8885857 107.5338495  45.5186581  54.0415251
 106.3624151  45.2264829  53.1281496 114.9583432  43.2268048  42.1733764
 115.2343276  43.1124642  43.0827638 114.0887931  42.8285533  42.1345937
 114.8623863  29.2504813  49.2138513 113.9486943  29.4809040  49.3820720
 115.2916965  29.3343257  50.0652546 114.6330322  37.4394705  51.7138407
 113.9801772  37.6870613  51.0590860 115.0110702  36.6258844  51.3800884
 111.5937496  47.4754399  45.8166577 111.7759890  46.6576054  46.2794330
 112.4170482  47.6922091  45.3791467 111.9279661  46.4022584  43.0781626
 112.4567428  45.8915038  42.4651788 112.1907881  46.0865114  43.9427159
 110.6817895  38.1814516  58.2004444 110.0058532  38.0808646  58.8706819
 111.5045529  38.0253730  58.6640441 102.4296754  44.4186453  50.8216960
 103.0150191  43.6730141  50.9544864 102.2321592  44.7290410  51.7053623
 105.2835409  47.4537700  45.8379402 104.6145785  47.9383828  45.3543442
 105.1448279  47.7006921  46.7522780 109.4240678  49.4881444  52.4362060
 109.9758986  49.6513065  53.2011145 109.7646871  50.0785882  51.7642085
 104.4005171  31.8356594  53.0383945 104.4646498  32.6971425  52.6261343
 104.3372291  31.2230595  52.3056303 103.8757444  33.9079726  56.6856979
 104.5029482  33.5256804  57.2994504 103.0185362  33.6893928  57.0512672
 114.2751552  44.3142701  58.2910715 114.8191456  44.9272660  57.7965669
 113.6938397  44.8722280  58.8077728 100.6522986  35.7156155  42.6175334
 100.9476427  34.8066834  42.5642388  99.7511022  35.6943895  42.2956336
 112.5609065  47.4363419  49.4225742 112.4360205  46.6353159  48.9136688
 113.2188156  47.9309613  48.9339712 104.1817233  33.7912152  48.6002883
 103.4603819  34.4048120  48.4610356 104.9710489  34.3269917  48.5219529
 114.6243973  45.2372439  51.0505293 113.6774309  45.1177791  50.9783619
 114.9726747  44.3494938  51.1331554 106.9843547  31.1266578  54.8743534
 107.5077949  31.3728875  55.6369844 106.7655880  31.9586613  54.4546672
 102.3810828  33.3970253  42.7414659 102.0523534  32.5167632  42.5589765
 102.7350199  33.3417922  43.6291048 111.6290407  45.0325156  47.2509645
 111.4815369  44.1041863  47.4317215 112.4543900  45.0545246  46.7666720
 105.4952651  33.6843223  43.1090137 105.8348724  34.2129144  42.3868745
 105.9424772  34.0223629  43.8848703 115.2324529  45.8553714  48.3374517
 116.1571076  45.6496576  48.1998969 115.0639832  45.6070116  49.2463859
 108.1896092  32.0680273  52.5593205 107.8492912  31.2688087  52.9613885
 107.4835098  32.3681984  51.9870038 108.8412564  29.1529586  51.0120528
 109.6638633  28.6790064  50.8899418 109.0850627  29.9320070  51.5119214
 107.4820798  32.1817844  41.3083430 108.2029161  32.5599097  40.8047146
 106.8586102  32.9006721  41.4118408 111.6251921  32.8862993  42.2441762
 111.8415535  33.7687631  41.9430590 111.1445988  32.4949207  41.5147404
 106.3651142  35.8448707  48.8212507 106.2195723  36.1589010  49.7136788
 105.8876346  36.4633607  48.2683405 108.2247525  32.8351255  48.8693396
 108.2109094  31.9392348  48.5325694 108.9419953  32.8421918  49.5031682
 110.0773656  33.2688595  50.9146524 109.8191434  34.1905665  50.9130854
 109.5458696  32.8719029  51.6046988 115.0219845  46.3739382  43.6936609
 115.1956722  45.8085804  42.9410461 115.5148736  47.1740277  43.5116099
 100.8396805  38.3854051  51.7600168 100.2950273  39.1613859  51.8920442
 101.7176155  38.7324855  51.6019289 107.6284421  31.7165635  44.1380966
 107.7500332  30.7882281  44.3371854 107.3386464  31.7304321  43.2259282
 110.4975612  29.4020545  47.2747686 110.5197309  29.4659878  46.3199666
 110.9143671  28.5625054  47.4688192 120.8759236  39.1375805  45.3126909
 121.3190382  38.3883130  44.9146032 119.9985746  39.1285941  44.9300641
 116.0095017  45.6906146  40.7933507 116.7045922  46.3112839  41.0120822
 116.3518167  44.8401497  41.0685885 101.6262827  37.5123947  54.6530325
 100.8844563  37.6606583  55.2394955 101.3055571  37.7732213  53.7897074
 117.9086440  43.1405852  42.3220838 118.4337765  43.4793125  41.5970158
 117.8208793  42.2052867  42.1383973 109.5706489  47.0539925  54.4510715
 109.8793616  46.8089072  55.3233414 110.3681971  47.2586564  53.9629585
 109.5927101  49.2077835  46.6816091 109.1532091  48.7154214  47.3748948
 110.3435218  48.6650803  46.4408166 102.0719440  45.3989376  46.6840719
 102.8977460  45.0993148  46.3039363 101.7213492  44.6296998  47.1330508
 107.0400973  44.7515844  48.7538393 106.4180983  44.0886549  48.4540621
 107.7105840  44.7776976  48.0712041 100.2728045  43.3175702  47.6429653
  99.4359954  42.8897877  47.4613654 100.2451691  43.5108146  48.5800444
 107.1125501  33.2297632  58.3470899 107.1613656  34.1059755  57.9648668
 107.6548015  32.6875025  57.7742542 117.5980347  43.7738755  57.6272036
 116.8075890  43.7562894  57.0876535 117.3613701  44.3127049  58.3821073
 117.7178222  40.6231222  54.9404764 117.7676226  40.4581229  55.8820287
 117.6092145  39.7558481  54.5502645 106.6014480  43.3019768  42.2296853
 106.7502601  43.9855232  41.5763526 107.4080924  43.2824858  42.7446309
 115.0081984  36.6062150  56.2564071 115.9091847  36.4668615  55.9648069
 115.0829958  36.7716605  57.1962249 109.3424789  33.9829005  55.1017258
 108.4728099  34.2762571  54.8299846 109.5784270  34.5669450  55.8224521
 119.2196418  43.0428163  55.1846786 118.9281227  43.4058144  56.0210247
 118.6068550  42.3295172  55.0060118 120.4192101  40.6081043  47.7049356
 121.2538992  41.0470847  47.8686917 120.5551230  40.1319696  46.8857602
 117.4683607  38.1660778  53.6526844 117.9437728  38.3588424  52.8445695
 116.5449172  38.2219964  53.4070228 104.3567113  39.3284945  43.2357922
 104.1113155  38.4247275  43.4338132 104.5263028  39.3302096  42.2937400
 112.0463823  30.2008622  52.6182678 112.5645767  30.9369648  52.2929166
 111.6918956  30.5072615  53.4529437 103.6262761  35.0613303  40.7344084
 102.9332006  35.1357658  40.0784120 103.3814513  34.2973646  41.2565601
 112.2976417  26.6208904  48.1383575 112.5778171  25.9532093  48.7644001
 113.0827024  26.8138000  47.6258238 110.1009886  45.7967898  39.7008601
 109.5283853  46.4158085  39.2479073 110.6742679  46.3467260  40.2348523
 116.1685276  35.0426538  51.8855150 117.1202699  35.1424636  51.9067374
 115.9988726  34.2504807  52.3953234 114.1899655  32.1282121  52.0714551
 113.5949587  32.4087134  51.3761039 113.9049352  32.6176022  52.8431292
 113.3207146  46.0805048  40.8317183 114.2537819  46.0150610  41.0350059
 113.2330358  46.9161315  40.3731716 115.9495162  45.3970918  37.7921131
 115.8708794  45.0630782  38.6856889 116.7704829  45.8892686  37.7912603
 118.6473353  38.2632658  50.9997449 118.6149674  37.3248658  51.1857133
 119.2573977  38.3416694  50.2663274 110.4856684  37.1328711  37.0424653
 111.4315789  37.0034919  37.1113071 110.1070929  36.3943373  37.5194081
 118.7967842  35.0543701  51.0455732 118.2806891  34.2702158  50.8585661
 119.6807790  34.7262418  51.2102252 116.4578569  28.7984717  47.0051545
 116.2603390  28.4899805  47.8894877 117.0678274  29.5246356  47.1349475
 110.3695377  41.1846457  58.5025310 111.2898386  41.3625056  58.6965357
 110.3344960  40.2402502  58.3505010 108.6699601  35.0578687  36.9779539
 107.7631057  34.7611800  37.0542252 108.9475582  34.7608505  36.1113825
  99.5877542  36.3785051  47.4278585  99.2680326  35.5250359  47.1352959
  99.0410970  36.5933629  48.1836552 103.3657449  39.0947492  51.1448091
 103.5843459  40.0264599  51.1636125 103.7783223  38.7355466  51.9302895
 110.2861667  29.6015577  43.1323780 109.4762395  29.2562662  43.5079026
 110.9746084  29.2923121  43.7211391 112.2152215  28.6793624  44.7548076
 112.7683254  29.0989077  45.4138100 112.4522302  27.7529372  44.7971032
 108.2385315  34.6680697  60.5350840 108.1382042  35.6175054  60.4662931
 108.0206857  34.3398936  59.6626910 107.4398386  31.9165622  37.1191518
 108.3017550  32.2420521  37.3787335 107.6248730  31.1297118  36.6064584
  99.4565802  39.9987962  49.3971707  98.7629273  39.5841915  48.8841661
 100.2038793  40.0408499  48.8005125 115.5931023  30.7894149  44.2626741
 115.0129692  31.4478953  43.8804793 115.3266955  29.9671493  43.8514158
 114.0434589  30.1899206  46.4648061 114.5434367  30.3015741  45.6562380
 114.6870197  29.8860259  47.1048869 108.1016585  38.0977836  59.3515902
 107.6183666  38.8978196  59.5579791 108.1877524  38.1085781  58.3983346
 101.3702544  39.9306216  47.2737721 101.3473232  40.0293903  46.3219604
 101.6803181  40.7771367  47.5954888 104.0289922  41.9882371  51.3884336
 104.9833176  41.9566313  51.3214267 103.8302446  41.5272995  52.2034562
 104.6189304  40.5583487  53.9555133 105.4382193  41.0527566  53.9789971
 104.8926112  39.6415455  53.9272701 114.3755901  32.9494239  43.3183089
 113.4881756  33.2343890  43.1003284 114.7909890  32.7888003  42.4710366
 117.7270437  32.9740760  47.0337428 118.5030827  33.4637213  47.3062045
 117.0018571  33.3998814  47.4909298 120.1642995  33.6868379  48.0911369
 120.7587486  33.4464115  47.3804677 120.2369579  32.9675510  48.7184905
 102.3840151  47.5301990  48.4054534 102.2494619  46.7702391  47.8392532
 101.9672213  48.2542890  47.9383323 113.5199114  42.7138914  37.4131109
 114.2234964  42.9188916  38.0288765 112.7961763  43.2815676  37.6780192
 114.3496924  38.4648775  43.5333379 114.2932126  38.9217327  42.6941012
 114.9025267  37.7039460  43.3556222 118.1601730  34.2538507  44.3583499
 117.9038664  33.8535143  45.1891706 117.5354598  34.9682301  44.2333638
 122.4714068  36.9934580  46.8654790 121.9113626  37.0627770  47.6386352
 121.8657571  36.8175565  46.1454286 105.5409277  48.4271307  48.6172976
 105.4241661  49.3716740  48.5151667 104.7201723  48.1244869  49.0058776
 115.4285811  43.1521443  39.4629569 116.2631415  42.7202642  39.2807044
 115.2670154  42.9803457  40.3906464 115.0831704  39.6553556  40.8285908
 115.0280507  39.4897828  39.8874352 114.4577759  40.3629589  40.9848098
  99.8724219  34.8921621  54.6547331 100.5183082  34.3820575  55.1434556
  99.6641370  35.6290302  55.2290756 112.3977611  41.9602468  60.1539471
 113.2668770  42.1343120  59.7926106 111.9184362  42.7796885  60.0315200
 108.3927829  29.1561665  40.4071227 108.3806499  30.1003505  40.5639498
 109.2851251  28.9731811  40.1130688 106.5663791  49.0799569  51.8328905
 107.4691038  49.1123179  52.1495400 106.3401161  48.1500020  51.8475241
 108.3217393  47.8330556  48.4938983 107.3713024  47.8332417  48.3803356
 108.6249879  47.0863290  47.9775018 112.2079949  25.7504442  44.6617164
 111.4412344  25.1962929  44.8073846 112.6190653  25.8226311  45.5231315
 104.2121710  32.0389238  58.7522345 105.0753171  31.6826043  58.9625669
 103.6387120  31.7003133  59.4397749 120.8659793  53.6218522  49.4946270
 120.5278304  53.5059587  48.6066805 121.7349561  53.2209687  49.4747277
 116.7246608  55.4753999  45.4843161 116.1611474  55.3843936  44.7159449
 116.6099004  54.6553903  45.9645654 121.3479576  54.7753374  55.4532476
 121.3368217  54.3806172  54.5812980 121.5100215  54.0419447  56.0466247
 114.2711040  56.9705190  48.3227382 115.0632332  56.6296015  47.9073681
 114.5107691  57.0800165  49.2429535 116.2301794  56.2314104  41.1944761
 117.0032670  55.6843091  41.0557636 116.5827193  57.0958353  41.4059222
 118.0686837  57.5590486  54.4011660 117.7776703  58.4636117  54.2858326
 118.7043821  57.6007013  55.1155730 118.9943044  54.9367334  50.9913020
 119.5906616  54.7123357  50.2769983 119.0518015  54.1952080  51.5938467
 118.5668072  52.3906770  38.8263211 118.8193593  51.8688291  38.0646674
 117.6292631  52.2272915  38.9289894 118.2864361  54.2934876  41.0287586
 118.1700619  53.6179779  41.6968670 118.3966621  53.8067250  40.2119739
 120.6295902  53.7545023  44.7334275 120.2654109  53.2275644  45.4447196
 121.4863018  53.3643492  44.5600760 120.2701389  48.7834922  39.7295623
 120.4375791  49.6515159  40.0966094 120.0798558  48.9462204  38.8056913
 116.4789203  53.6965698  47.4298158 115.5539700  53.5641912  47.6375850
 116.7273617  54.4759917  47.9268100 120.2490610  51.2392580  40.7142290
 120.1290235  51.6849631  41.5527770 119.5543198  51.5877898  40.1555828
 113.8398015  53.3398972  48.2641947 113.9690396  53.5933451  49.1781359
 113.1595466  53.9326680  47.9446602 118.0097502  64.0096222  44.3632421
 117.9321532  64.9604047  44.4420902 117.4059145  63.6642094  45.0207348
 120.5014732  51.1824087  57.0193788 119.7248066  51.7418007  57.0096653
 121.1405295  51.6680870  57.5408658 118.7561104  53.9909540  56.5811755
 119.4975788  54.5294584  56.3046579 118.0498089  54.6175829  56.7383307
 120.5847514  51.0711288  52.5517474 121.4308709  51.4950701  52.6952123
 120.5246151  50.4144912  53.2456037 120.1073220  56.4314280  46.1986291
 120.5711566  56.7101983  45.4090913 119.8430018  55.5297724  46.0159381
 116.9997301  55.9785761  49.1366054 117.5698658  56.4073030  48.4983538
 117.5905413  55.6968346  49.8350240 119.0442106  52.5537432  43.0075856
 119.7466149  53.0058476  43.4749782 118.7122735  51.9121251  43.6355749
 117.4922468  51.1449189  57.3827065 116.8621128  51.8265469  57.6162462
 117.3858556  51.0332270  56.4380204 112.7867440  50.8120985  48.3092989
 111.9966494  51.0678513  47.8333100 113.2778687  51.6269322  48.4145030
 114.7382185  51.1765564  45.2676466 113.9413349  51.2884258  45.7859962
 114.5107778  51.5152216  44.4017357 120.5687853  57.7010267  53.2158981
 120.6332286  58.1630674  54.0517153 119.8598777  57.0707632  53.3441291
 111.0705143  51.0651475  50.7407980 111.3213181  51.9498485  51.0065556
 111.6064691  50.8856077  49.9683072 120.2835871  59.3678375  43.0837961
 120.1481546  60.2129910  43.5122809 120.8245683  59.5697652  42.3203895
 116.7703210  45.4469954  59.7452316 116.3770156  44.8936153  60.4199961
 117.5869351  45.7580533  60.1358834 113.7365268  56.8853813  43.6565886
 114.2489789  57.6797063  43.8071451 114.3887981  56.1880103  43.5899488
 115.5460153  60.0019569  45.7388639 115.7226781  60.9237534  45.5509623
 116.3416986  59.6877988  46.1683019 119.6871171  46.8627834  57.3372573
 120.4280885  47.4634987  57.2577035 119.9189094  46.1205471  56.7790615
 114.8312509  52.0484201  55.6150803 114.7166024  51.1469458  55.9157901
 113.9757027  52.2947898  55.2635619 116.6691468  61.5197743  51.7398982
 117.2198893  61.3914806  50.9675976 115.8302944  61.8192632  51.3893874
 120.4658639  57.7848871  56.0843213 120.9986976  57.0237159  55.8542521
 119.9372720  57.4922522  56.8267367 111.7014185  55.2142467  44.4325457
 112.5389407  55.6239475  44.2159164 111.8792453  54.2741909  44.4025651
 121.1825728  47.7267248  45.1794528 120.3267324  47.3374099  45.0000167
 121.5952680  47.8059209  44.3194314 118.9567761  45.3452321  48.5852270
 119.8220757  45.1495130  48.2258159 119.0245269  45.1162673  49.5121626
 121.8311352  56.9134863  43.5962025 121.3032714  56.1787623  43.2835262
 121.3298855  57.6909539  43.3501993 116.5630080  47.5754529  45.9568636
 117.1373832  47.3529711  45.2241829 117.1501062  47.6443224  46.7097238
 116.8899667  49.6058990  39.9764522 116.0536979  49.9433677  40.2973796
 116.7504436  49.4707970  39.0391659 118.8652747  44.4495778  44.6843706
 118.2117160  44.1344795  44.0600321 118.8233221  43.8271519  45.4103529
 119.9763952  54.7315073  36.5996998 119.0691014  54.5004327  36.7988147
 120.4734984  53.9352693  36.7870979 121.1552186  54.8327668  41.1220988
 120.2463405  54.5486701  41.2193458 121.1847269  55.2526747  40.2624295
 111.7240356  52.5533182  45.1036190 111.5264756  51.9602543  44.3787257
 111.1687020  52.2485392  45.8212129 119.7037080  52.4456289  47.2230783
 119.7585689  51.4930125  47.1473260 118.8928282  52.6015728  47.7072082
 120.8528273  56.3736412  38.4609067 120.4147703  55.6572271  38.0014704
 121.5938714  56.6012527  37.8994158 117.6429440  51.0633348  44.9821162
 116.8297305  51.3627519  45.3886354 118.1388434  50.6689037  45.6995644
 119.7938017  61.0591105  46.9155427 119.7514196  61.2851952  45.9863959
 120.7100716  60.8254480  47.0641228 117.1343514  48.6351704  50.5982397
 117.7742894  48.4940463  49.9005360 116.3021045  48.3486217  50.2220999
 117.9103818  57.9354134  46.7117390 118.7044417  57.4404455  46.5099965
 117.1995511  57.4071998  46.3485095 114.2186582  52.0797216  42.7877142
 113.2884170  52.0181672  43.0047104 114.3144054  51.5573169  41.9913784
 114.1372131  48.6052029  45.3755384 114.3978948  49.5197362  45.2664544
 114.9589303  48.1376472  45.5251997 115.6097056  50.0189786  52.5454208
 116.2820110  49.8107148  51.8966857 114.7826843  49.8211872  52.1059441
 121.5122628  46.6451727  54.5619869 120.8650543  47.3441677  54.4684346
 122.2823644  47.0787871  54.9296118 120.4875094  58.5083156  50.3915227
 120.3486180  58.1401941  51.2641165 119.6989690  59.0230796  50.2199184
 121.0823246  63.6092253  41.7340763 121.2575002  63.1380296  42.5486386
 120.3956034  64.2358019  41.9622024 122.0380309  57.8864759  47.7804064
 121.7030142  57.8465529  48.6761714 121.5384255  57.2209475  47.3074475
 116.0124553  53.2932389  53.3056646 115.8744351  52.5612628  53.9068185
 116.9229477  53.2041289  53.0240833 118.6406854  53.0052348  52.7940325
 119.3506473  52.3645541  52.7526944 118.5976162  53.2565243  53.7166506
 117.3535788  49.9917566  54.6135965 116.8173145  49.5408305  55.2657561
 116.7652496  50.1263475  53.8706429 115.6484332  66.7581616  48.5080623
 115.8880930  67.3900140  49.1859642 114.8053528  66.4069656  48.7945983
 116.7638047  49.4506218  37.1762428 115.8867513  49.3295019  36.8124675
 117.2395800  48.6592296  36.9241317 108.2840187  54.2383377  47.2703936
 108.9711227  53.9245108  46.6824951 108.1288316  55.1424742  46.9971187
 113.0874909  49.1273574  51.6988959 113.0033098  48.5199244  50.9639369
 112.2657616  49.6182592  51.6998456 120.1612193  62.5660738  50.9122127
 120.0882365  63.3715710  51.4241432 119.7189586  62.7652704  50.0870149
 119.9501973  61.8032508  44.4224949 119.1669495  62.3454188  44.5163173
 120.6494718  62.3206488  44.8219190 119.8433592  49.7544521  46.7930839
 119.4731379  49.2015561  47.4811744 120.3392684  49.1502654  46.2405839
 117.6722790  60.2142016  53.8885857 118.3732250  60.8478499  54.0415251
 117.2017905  60.5556747  53.1281496 121.5211649  53.5106434  58.2004444
 120.8452286  53.4100563  58.8706819 122.3439283  53.3545648  58.6640441
 113.2690509  59.7478371  50.8216960 113.8543945  59.0022059  50.9544864
 113.0715347  60.0582327  51.7053623 116.1229164  62.7829618  45.8379402
 115.4539539  63.2675746  45.3543442 115.9842033  63.0298838  46.7522780
 107.8608163  52.3183971  49.5421403 107.8992263  51.7847562  50.3358521
 107.3548456  51.7919176  48.9232380 120.2634432  64.8173362  52.4362060
 120.8152740  64.9804983  53.2011145 120.6040626  65.4077799  51.7642085
 115.2398926  47.1648511  53.0383945 115.3040252  48.0263342  52.6261343
 115.1766046  46.5522513  52.3056303 114.7151198  49.2371644  56.6856979
 115.3423237  48.8548721  57.2994504 113.8579117  49.0185846  57.0512672
 111.4916741  51.0448073  42.6175334 111.7870182  50.1358751  42.5642388
 110.5904777  51.0235812  42.2956336 115.0210988  49.1204070  48.6002883
 114.2997574  49.7340037  48.4610356 115.8104244  49.6561834  48.5219529
 117.8237301  46.4558496  54.8743534 118.3471703  46.7020793  55.6369844
 117.6049635  47.2878531  54.4546672 113.2204582  48.7262171  42.7414659
 112.8917289  47.8459550  42.5589765 113.5743953  48.6709839  43.6291048
 116.3346406  49.0135140  43.1090137 116.6742478  49.5421062  42.3868745
 116.7818526  49.3515547  43.8848703 119.0289846  47.3972191  52.5593205
 118.6886667  46.5980004  52.9613885 118.3228853  47.6973902  51.9870038
 119.6806318  44.4821504  51.0120528 120.5032388  44.0081982  50.8899418
 119.9244382  45.2611987  51.5119214 118.3214553  47.5109762  41.3083430
 119.0422915  47.8891015  40.8047146 117.6979857  48.2298639  41.4118408
 117.2044897  51.1740624  48.8212507 117.0589478  51.4880927  49.7136788
 116.7270101  51.7925525  48.2683405 119.0641280  48.1643172  48.8693396
 119.0502849  47.2684266  48.5325694 119.7813708  48.1713836  49.5031682
 120.9167411  48.5980512  50.9146524 120.6585188  49.5197583  50.9130854
 120.3852451  48.2010947  51.6046988 111.6790559  53.7145969  51.7600168
 111.1344027  54.4905777  51.8920442 112.5569909  54.0616773  51.6019289
 118.4678176  47.0457552  44.1380966 118.5894087  46.1174199  44.3371854
 118.1780218  47.0596238  43.2259282 121.3369366  44.7312463  47.2747686
 121.3591063  44.7951796  46.3199666 121.7537425  43.8916972  47.4688192
 112.4656581  52.8415865  54.6530325 111.7238317  52.9898500  55.2394955
 112.1449325  53.1024131  53.7897074 120.4100244  62.3831843  54.4510715
 120.7187370  62.1380990  55.3233414 121.2075726  62.5878482  53.9629585
 120.4320856  64.5369753  46.6816091 119.9925846  64.0446131  47.3748948
 121.1828973  63.9942720  46.4408166 112.9113195  60.7281294  46.6840719
 113.7371215  60.4285065  46.3039363 112.5607247  59.9588916  47.1330508
 117.8794728  60.0807762  48.7538393 117.2574737  59.4178467  48.4540621
 118.5499595  60.1068894  48.0712041 111.1121800  58.6467620  47.6429653
 110.2753708  58.2189794  47.4613654 111.0845445  58.8400063  48.5800444
 117.9519255  48.5589550  58.3470899 118.0007411  49.4351673  57.9648668
 118.4941770  48.0166943  57.7742542 117.4408235  58.6311685  42.2296853
 117.5896355  59.3147150  41.5763526 118.2474678  58.6116775  42.7446309
 120.1818544  49.3120922  55.1017258 119.3121853  49.6054488  54.8299846
 120.4178024  49.8961367  55.8224521 115.1960868  54.6576863  43.2357922
 114.9506910  53.7539193  43.4338132 115.3656782  54.6594013  42.2937400
 114.4656515  50.3905220  40.7344084 113.7725760  50.4649575  40.0784120
 114.2208267  49.6265564  41.2565601 120.9403640  61.1259816  39.7008601
 120.3677607  61.7450003  39.2479073 121.5136434  61.6759177  40.2348523
 121.3250439  52.4620628  37.0424653 122.2709543  52.3326836  37.1113071
 120.9464684  51.7235290  37.5194081 121.2089131  56.5138375  58.5025310
 122.1292141  56.6916974  58.6965357 121.1738714  55.5694420  58.3505010
 119.5093356  50.3870605  36.9779539 118.6024811  50.0903717  37.0542252
 119.7869337  50.0900423  36.1113825 110.4271296  51.7076968  47.4278585
 110.1074081  50.8542276  47.1352959 109.8804724  51.9225546  48.1836552
 114.2051204  54.4239409  51.1448091 114.4237214  55.3556517  51.1636125
 114.6176978  54.0647384  51.9302895 121.1255422  44.9307494  43.1323780
 120.3156150  44.5854579  43.5079026 121.8139839  44.6215038  43.7211391
 119.0779069  49.9972615  60.5350840 118.9775796  50.9466972  60.4662931
 118.8600611  49.6690854  59.6626910 118.2792141  47.2457540  37.1191518
 119.1411305  47.5712438  37.3787335 118.4642485  46.4589036  36.6064584
 110.2959556  55.3279880  49.3971707 109.6023028  54.9133832  48.8841661
 111.0432547  55.3700416  48.8005125 118.9410339  53.4269754  59.3515902
 118.4577421  54.2270114  59.5579791 119.0271278  53.4377699  58.3983346
 112.2096299  55.2598133  47.2737721 112.1866987  55.3585821  46.3219604
 112.5196935  56.1063284  47.5954888 114.8683677  57.3174288  51.3884336
 115.8226930  57.2858231  51.3214267 114.6696200  56.8564912  52.2034562
 115.4583059  55.8875405  53.9555133 116.2775948  56.3819483  53.9789971
 115.7319867  54.9707373  53.9272701 113.2233906  62.8593908  48.4054534
 113.0888373  62.0994309  47.8392532 112.8065968  63.5834808  47.9383323
 116.3803031  63.7563225  48.6172976 116.2635416  64.7008657  48.5151667
 115.5595478  63.4536787  49.0058776 110.7117973  50.2213538  54.6547331
 111.3576837  49.7112492  55.1434556 110.5035124  50.9582220  55.2290756
 119.2321584  44.4853583  40.4071227 119.2200253  45.4295423  40.5639498
 120.1245005  44.3023728  40.1130688 117.4057546  64.4091487  51.8328905
 118.3084792  64.4415097  52.1495400 117.1794916  63.4791938  51.8475241
 119.1611148  63.1622473  48.4938983 118.2106779  63.1624335  48.3803356
 119.4643634  62.4155208  47.9775018 115.0515464  47.3681155  58.7522345
 115.9146926  47.0117960  58.9625669 114.4780875  47.0295050  59.4397749
 121.9098898  66.3943393  50.7407980 122.1606936  67.2790403  51.0065556
 122.4458446  66.2147994  49.9683072 119.1233942  69.5675295  47.2703936
 119.8104981  69.2537025  46.6824951 118.9682070  70.4716660  46.9971187
 118.7001918  67.6475889  49.5421403 118.7386017  67.1139479  50.3358521
 118.1942211  67.1211094  48.9232380 121.9515554  73.9759538  47.6429653
 121.1147463  73.5481712  47.4613654 121.9239200  74.1691981  48.5800444
 121.2665051  67.0368886  47.4278585 120.9467835  66.1834194  47.1352959
 120.7198479  67.2517464  48.1836552 121.1353311  70.6571797  49.3971707
 120.4416782  70.2425750  48.8841661 121.8826302  70.6992334  48.8005125
 121.5511728  65.5505456  54.6547331 122.1970591  65.0404410  55.1434556
 121.3428879  66.2874138  55.2290756  96.3309994  10.3574509  31.0877728
  96.2534024  11.3082334  31.1666209  95.7271638  10.0120381  31.7452654
  93.9696824  13.1059903  35.2325930  94.2093422  13.7378427  35.9104949
  93.1266020  12.7547943  35.5191289  94.4441656   9.1307905  32.5624709
  93.7752031   9.6154033  32.0788749  94.3054526   9.3777126  33.4768087
  98.5846925  11.1651649  39.1607367  99.1365233  11.3283270  39.9256452
  98.9253118  11.7556087  38.4887392  98.7533348  10.8848040  33.4061398
  98.3138338  10.3924419  34.0994255  99.5041465  10.3421008  33.1653473
  91.5446398   9.2072195  35.1299840  91.4100866   8.4472596  34.5637838
  91.1278460   9.9313095  34.6628629  94.7015524  10.1041512  35.3418283
  94.5847908  11.0486945  35.2396973  93.8807970   9.8015074  35.7304082
  95.7270038  10.7569774  38.5574211  96.6297284  10.7893384  38.8740706
  95.5007408   9.8270225  38.5720547 110.0266040  15.2988727  36.2191577
 109.6884551  15.1829792  35.3312112 110.8955808  14.8979892  36.1992583
 105.8852855  17.1524204  32.2088468 105.3217720  17.0614141  31.4404756
 105.7705250  16.3324108  32.6890961 110.5085823  16.4523579  42.1777783
 110.4974463  16.0576377  41.3058286 110.6706462  15.7189652  42.7711554
 103.4317287  18.6475395  35.0472689 104.2238579  18.3066220  34.6318988
 103.6713937  18.7570370  35.9674842 111.4652414  20.8195171  27.5202933
 110.8140394  21.4049252  27.1336947 112.2596777  21.3501366  27.5797970
 105.3908041  17.9084308  27.9190067 106.1638917  17.3613296  27.7802943
 105.7433440  18.7728558  28.1304529 107.2293084  19.2360691  41.1256967
 106.9382950  20.1406322  41.0103633 107.8650068  19.2777218  41.8401036
 108.1549291  16.6137539  37.7158326 108.7512863  16.3893562  37.0015289
 108.2124262  15.8722285  38.3183774 107.4470608  15.9705081  27.7532892
 107.3306866  15.2949984  28.4213976 107.5572868  15.4837454  26.9365045
 109.7902149  15.4315228  31.4579581 109.4260356  14.9045849  32.1692503
 110.6469265  15.0413697  31.2846067 112.1882969  18.9222106  38.1206760
 111.8883692  19.8247145  38.0122568 111.8434028  18.6554289  38.9727913
 105.6395450  15.3735903  34.1543465 104.7145947  15.2412117  34.3621156
 105.8879863  16.1530122  34.6513407 103.0004261  15.0169177  34.9887254
 103.1296642  15.2703656  35.9026666 102.3201713  15.6096885  34.6691909
 107.1703749  25.6866427  31.0877728 107.0927778  26.6374252  31.1666209
 106.5665392  25.3412299  31.7452654 107.9167351  15.6679745  43.3057062
 108.6582035  16.2064789  43.0291886 107.2104336  16.2946034  43.4628614
 113.3922690  17.8108886  41.9029223 113.8006046  17.3691296  41.1583856
 112.6699952  17.2361513  42.1563416 113.7151505  18.3710076  35.6581512
 113.0860367  18.5355791  34.9557580 113.3277167  18.7851686  36.4292476
 117.5940737  19.3064514  33.0125876 116.9091775  19.6863416  32.4622909
 117.6784586  19.9159841  33.7457824 114.8491668  16.9524473  39.6121220
 115.0608564  17.5956233  38.9355601 114.8021417  16.1186790  39.1443150
 109.2679467  18.1084485  32.9231597 109.7317812  18.3872188  32.1336220
 109.0036265  17.2067929  32.7404688 106.1603548  17.6555966  35.8611361
 106.7304905  18.0843234  35.2228845 106.7511660  17.3738551  36.5595546
 108.2048353  14.2307637  29.7321163 108.9072396  14.6828681  30.1995089
 107.8728981  13.5891456  30.3601056 106.6528714  12.8219394  44.1072372
 106.0227375  13.5035674  44.3407769 106.5464802  12.7102475  43.1625510
 101.9473687  12.4891190  35.0338296 101.1572741  12.7448718  34.5578407
 102.4384934  13.3039527  35.1390337 115.9637496  19.8296429  37.7843577
 116.7854940  19.4276616  37.5026259 115.9599899  19.7264663  38.7359693
 103.8988432  12.8535769  31.9921773 103.1019595  12.9654463  32.5105268
 103.6714024  13.1922421  31.1262663 109.7294100  19.3780472  39.9404287
 109.7938532  19.8400879  40.7762459 109.0205024  18.7477837  40.0686597
 100.2311390  12.7421680  37.4653287 100.4819428  13.6268690  37.7310863
 100.7670938  12.5626282  36.6928379 109.4442117  21.0448580  29.8083268
 109.3087792  21.8900115  30.2368116 109.9851930  21.2467857  29.0449202
 102.8971515  18.5624018  30.3811193 103.4096035  19.3567268  30.5316757
 103.5494228  17.8650308  30.3144794 104.7066400  21.6789774  32.4633946
 104.8833028  22.6007739  32.2754930 105.5023233  21.3648193  32.8928326
 103.9918756  13.7254406  42.3396109 103.8772271  12.8239663  42.6403208
 103.1363274  13.9718102  41.9880926 111.0710594  21.6672146  43.9383610
 110.6274448  20.8808525  43.6204514 111.7327807  21.8551297  43.2727501
 105.8297715  23.1967948  38.4644288 106.3805140  23.0685011  37.6921282
 104.9909191  23.4962837  38.1139181 113.1691832  21.9474946  41.9665011
 113.1510307  22.7683827  41.4745280 114.0911752  21.8229021  42.1915152
 109.6264886  19.4619075  42.8088519 110.1593223  18.7007364  42.5787827
 109.0978967  19.1692727  43.5512674 100.8620432  16.8912672  31.1570763
 101.6995654  17.3009680  30.9404471 101.0398699  15.9512114  31.1270957
 110.9917599  18.5905068  30.3207331 110.4638960  17.8557827  30.0080569
 110.4905102  19.3679744  30.0747300 115.9710445  16.7854088  35.4374378
 115.3134119  17.4753350  35.5254506 116.7750844  17.1750520  35.7808364
 112.0438278  25.1182785  26.2438991 111.3699977  25.4214482  26.8523948
 112.4304100  25.9211866  25.8944448 115.5477700  20.1204463  31.6157462
 115.0940027  19.2795372  31.6722653 114.9171667  20.7565861  31.9532242
 113.9910639  21.9580959  32.5507280 114.2833613  22.5186016  31.8319646
 114.5009260  22.2509520  33.3060439 100.8846603  14.2303387  31.8281497
 100.6871003  13.6372748  31.1032563 100.3293267  13.9255597  32.5457436
 108.9544264  22.7361310  33.6400733 108.9120443  22.9622157  32.7109266
 109.8706963  22.5024685  33.7886535 118.1577015  18.3940341  36.2541963
 118.5913521  18.3015630  37.1025017 118.8708595  18.3697841  35.6161979
 107.0710065  19.6124339  33.4362696 107.8650664  19.1174659  33.2345271
 106.3601757  19.0842202  33.0730402 111.8904910  21.9942435  37.7875064
 111.9441932  22.5633371  38.5552780 111.0219691  22.1644320  37.4229101
 103.3792829  13.7567421  29.5122449 102.4490417  13.6951877  29.7292411
 103.4750300  13.2343374  28.7159090 119.0192564  18.4364041  38.7874849
 119.2128454  19.3409852  39.0334124 118.9193182  17.9771460  39.6213434
 114.0807673  18.5870784  44.3615729 113.9293179  18.3581336  43.4445813
 114.0712352  19.5441386  44.3747074 110.8493009  16.1602697  39.3461996
 111.7785069  16.3113857  39.1730963 110.4284039  16.2486718  38.4910642
 109.6481341  20.1853361  37.1160533 109.5092427  19.8172146  37.9886471
 108.8595937  20.7001001  36.9444491 110.2429493  25.2862458  28.4586070
 110.4181249  24.8150501  29.2731693 109.5562281  25.9128224  28.6867331
 111.1986556  19.5634964  34.5049371 110.8636389  19.5235734  35.4007021
 110.6990502  18.8979680  34.0319781 105.1730800  14.9702594  40.0301952
 105.0350598  14.2382833  40.6313491 106.0835724  14.8811494  39.7486140
 107.8013101  14.6822553  39.5185632 108.5112719  14.0415746  39.4772250
 107.7582409  14.9335448  40.4411813 115.7899879  21.6189907  42.4392211
 115.7312426  20.9349127  41.7722794 116.1919398  22.3608897  41.9872837
 104.8090578  28.4351821  35.2325930 105.0487177  29.0670345  35.9104949
 103.9659775  28.0839861  35.5191289 115.7917287  19.5829491  40.6706191
 114.9044066  19.2455412  40.7932590 116.3615838  18.8512522  40.9074956
  97.4446434  15.9153582  33.9949242  98.1317474  15.6015312  33.4070257
  97.2894563  16.8194947  33.7216494 109.3218440  24.2430943  37.6367434
 109.2488612  25.0485914  38.1486739 108.8795833  24.4422909  36.8115455
 109.1108220  23.4802713  31.1470256 108.3275742  24.0224393  31.2408480
 109.8100965  23.9976693  31.5464497 111.7817124  24.1417777  39.7925593
 112.4945096  24.7765242  39.7201494 111.2907152  24.2381643  38.9765594
 113.5034651  18.0469030  31.3642884 112.5690929  18.1670492  31.1947589
 113.6811319  17.1441496  31.1002894 106.8329037  21.8912220  40.6131163
 107.5338497  22.5248703  40.7660558 106.3624152  22.2326952  39.8526803
 111.5937497  24.4816521  32.5411884 111.7759892  23.6638177  33.0039636
 112.4170483  24.6984213  32.1036774 111.9279663  23.4084706  29.8026933
 112.4567429  22.8977161  29.1897095 112.1907882  23.0927236  30.6672466
 110.6817896  15.1876639  44.9249751 110.0058533  15.0870768  45.5952126
 111.5045530  15.0315853  45.3885748 102.4296755  21.4248576  37.5462266
 103.0150192  20.6792263  37.6790170 102.2321594  21.7352532  38.4298930
 105.2835410  24.4599823  32.5624709 104.6145786  24.9445951  32.0788749
 105.1448280  24.7069043  33.4768087  97.0214410  13.9954176  36.2666709
  97.0598510  13.4617766  37.0603827  96.5154703  13.4689381  35.6477686
 109.4240679  26.4943566  39.1607367 109.9758987  26.6575188  39.9256452
 109.7646873  27.0848004  38.4887392 114.2751553  21.3204824  45.0156021
 114.8191457  21.9334782  44.5210976 113.6938398  21.8784402  45.5323034
 100.6522988  12.7218278  29.3420641 100.9476429  11.8128956  29.2887694
  99.7511023  12.7006017  29.0201643 112.5609066  24.4425542  36.1471049
 112.4360206  23.6415282  35.6381995 113.2188157  24.9371735  35.6585019
 114.6243975  22.2434562  37.7750599 113.6774310  22.1239913  37.7028926
 114.9726748  21.3557060  37.8576861 111.6290408  22.0387278  33.9754951
 111.4815370  21.1103986  34.1562521 112.4543902  22.0607369  33.4912027
 115.2324530  22.8615837  35.0619824 116.1571077  22.6558698  34.9244275
 115.0639833  22.6132238  35.9709166 106.3651144  12.8510829  35.5457813
 106.2195724  13.1651132  36.4382095 105.8876347  13.4695729  34.9928712
 115.0219846  23.3801504  30.4181916 115.1956724  22.8147927  29.6655768
 115.5148737  24.1802399  30.2361406 100.8396806  15.3916174  38.4845474
 100.2950274  16.1675982  38.6165749 101.7176156  15.7386978  38.3264596
 101.6262828  14.5186070  41.3775631 100.8844564  14.6668705  41.9640262
 101.3055572  14.7794335  40.5142381 109.5706490  24.0602048  41.1756021
 109.8793617  23.8151195  42.0478721 110.3681972  24.2648687  40.6874891
 109.5927102  26.2139958  33.4061398 109.1532093  25.7216336  34.0994255
 110.3435219  25.6712925  33.1653473 102.0719441  22.4051499  33.4086026
 102.8977461  22.1055270  33.0284669 101.7213493  21.6359121  33.8575815
 107.0400975  21.7577967  35.4783699 106.4180984  21.0948672  35.1785927
 107.7105842  21.7839099  34.7957347 100.2728046  20.3237825  34.3674959
  99.4359955  19.8959999  34.1858961 100.2451692  20.5170268  35.3045751
 117.5980348  20.7800878  44.3517343 116.8075891  20.7625017  43.8121842
 117.3613702  21.3189172  45.1066379 117.7178223  17.6293344  41.6650071
 117.7676228  17.4643352  42.6065594 117.6092146  16.7620603  41.2747952
 106.6014482  20.3081890  28.9542160 106.7502602  20.9917354  28.3008833
 107.4080925  20.2886980  29.4691616 119.2196420  20.0490286  41.9092093
 118.9281228  20.4120266  42.7455554 118.6068551  19.3357294  41.7305425
 104.3567114  16.3347068  29.9603229 104.1113156  15.4309398  30.1583439
 104.5263029  16.3364218  29.0182707 110.1009887  22.8030021  26.4253907
 109.5283854  23.4220208  25.9724379 110.6742681  23.3529382  26.9593829
 113.3207147  23.0867171  27.5562490 114.2537820  23.0212732  27.7595365
 113.2330360  23.9223438  27.0977022 110.3695378  18.1908579  45.2270617
 111.2898388  18.3687178  45.4210663 110.3344961  17.2464625  45.0750316
  99.5877543  13.3847173  34.1523892  99.2680327  12.5312481  33.8598266
  99.0410971  13.5995751  34.9081859 103.3657451  16.1009614  37.8693398
 103.5843460  17.0326722  37.8881432 103.7783224  15.7417588  38.6548202
  99.4565803  17.0050085  36.1217013  98.7629275  16.5904037  35.6086968
 100.2038794  17.0470621  35.5250432 108.1016586  15.1039959  46.0761209
 107.6183668  15.9040319  46.2825098 108.1877525  15.1147904  45.1228653
 101.3702546  16.9368338  33.9983028 101.3473234  17.0356026  33.0464911
 101.6803182  17.7833489  34.3200194 104.0289923  18.9944493  38.1129642
 104.9833177  18.9628436  38.0459574 103.8302447  18.5335117  38.9279868
 104.6189306  17.5645609  40.6800440 105.4382195  18.0589688  40.7035277
 104.8926113  16.6477578  40.6518008 102.3840152  24.5364113  35.1299840
 102.2494620  23.7764514  34.5637838 101.9672215  25.2605013  34.6628629
 105.5409278  25.4333430  35.3418283 105.4241662  26.3778862  35.2396973
 104.7201724  25.1306991  35.7304082  99.8724220  11.8983743  41.3792637
 100.5183083  11.3882697  41.8679862  99.6641371  12.6352425  41.9536062
 112.3977612  18.9664591  46.8784778 113.2668772  19.1405243  46.5171413
 111.9184364  19.7859008  46.7560507 106.5663792  26.0861692  38.5574211
 107.4691039  26.1185302  38.8740706 106.3401162  25.1562143  38.5720547
 108.3217394  24.8392678  35.2184290 107.3713025  24.8394540  35.1048662
 108.6249880  24.0925413  34.7020325 120.8659794  30.6280645  36.2191577
 120.5278306  30.5121710  35.3312112 121.7349562  30.2271810  36.1992583
 116.7246610  32.4816121  32.2088468 116.1611475  32.3906058  31.4404756
 116.6099005  31.6616026  32.6890961 121.3479577  31.7815497  42.1777783
 121.3368218  31.3868295  41.3058286 121.5100217  31.0481569  42.7711554
 114.2711042  33.9767313  35.0472689 115.0632334  33.6358137  34.6318988
 114.5107692  34.0862288  35.9674842 116.2301796  33.2376226  27.9190067
 117.0032672  32.6905213  27.7802943 116.5827194  34.1020475  28.1304529
 118.0686838  34.5652608  41.1256967 117.7776704  35.4698239  41.0103633
 118.7043823  34.6069136  41.8401036 118.9943045  31.9429457  37.7158326
 119.5906617  31.7185479  37.0015289 119.0518017  31.2014202  38.3183774
 118.2864362  31.2996998  27.7532892 118.1700620  30.6241902  28.4213976
 118.3966622  30.8129372  26.9365045 120.6295903  30.7607145  31.4579581
 120.2654110  30.2337766  32.1692503 121.4863019  30.3705614  31.2846067
 116.4789205  30.7027821  34.1543465 115.5539701  30.5704035  34.3621156
 116.7273618  31.4822040  34.6513407 113.8398016  30.3461094  34.9887254
 113.9690397  30.5995573  35.9026666 113.1595467  30.9388802  34.6691909
 118.0097503  41.0158344  31.0877728 117.9321533  41.9666169  31.1666209
 117.4059147  40.6704217  31.7452654 120.5014733  28.1886210  43.7439095
 119.7248067  28.7480130  43.7341960 121.1405296  28.6742993  44.2653965
 118.7561105  30.9971663  43.3057062 119.4975790  31.5356707  43.0291886
 118.0498091  31.6237952  43.4628614 120.5847515  28.0773410  39.2762780
 121.4308710  28.5012824  39.4197429 120.5246153  27.4207035  39.9701343
 120.1073221  33.4376402  32.9231597 120.5711567  33.7164105  32.1336220
 119.8430019  32.5359847  32.7404688 116.9997302  32.9847884  35.8611361
 117.5698659  33.4135152  35.2228845 117.5905414  32.7030468  36.5595546
 119.0442107  29.5599555  29.7321163 119.7466151  30.0120598  30.1995089
 118.7122736  28.9183373  30.3601056 117.4922469  28.1511311  44.1072372
 116.8621129  28.8327592  44.3407769 117.3858557  28.0394393  43.1625510
 112.7867441  27.8183107  35.0338296 111.9966495  28.0740636  34.5578407
 113.2778689  28.6331445  35.1390337 114.7382187  28.1827686  31.9921773
 113.9413350  28.2946381  32.5105268 114.5107779  28.5214339  31.1262663
 120.5687854  34.7072390  39.9404287 120.6332287  35.1692797  40.7762459
 119.8598778  34.0769755  40.0686597 111.0705144  28.0713598  37.4653287
 111.3213183  28.9560608  37.7310863 111.6064693  27.8918199  36.6928379
 120.2835872  36.3740497  29.8083268 120.1481547  37.2192033  30.2368116
 120.8245684  36.5759775  29.0449202 116.7703212  22.4532077  46.4697623
 116.3770157  21.8998276  47.1445267 117.5869352  22.7642656  46.8604140
 113.7365269  33.8915935  30.3811193 114.2489790  34.6859185  30.5316757
 114.3887982  33.1942226  30.3144794 115.5460154  37.0081692  32.4633946
 115.7226782  37.9299656  32.2754930 116.3416988  36.6940111  32.8928326
 119.6871173  23.8689956  44.0617880 120.4280886  24.4697109  43.9822342
 119.9189095  23.1267594  43.5035922 114.8312511  29.0546323  42.3396109
 114.7166026  28.1531581  42.6403208 113.9757028  29.3010020  41.9880926
 116.6691470  38.5259865  38.4644288 117.2198895  38.3976929  37.6921282
 115.8302945  38.8254754  38.1139181 120.4658641  34.7910993  42.8088519
 120.9986977  34.0299281  42.5787827 119.9372722  34.4984645  43.5512674
 111.7014186  32.2204590  31.1570763 112.5389408  32.6301598  30.9404471
 111.8792454  31.2804032  31.1270957 118.9567762  22.3514444  35.3097576
 119.8220759  22.1557253  34.9503466 119.0245271  22.1224796  36.2366933
 121.8311353  33.9196986  30.3207331 121.3032715  33.1849745  30.0080569
 121.3298856  34.6971662  30.0747300 116.5630081  24.5816652  32.6813943
 117.1373833  24.3591833  31.9487136 117.1501063  24.6505346  33.4342544
 111.7240357  29.5595305  31.8281497 111.5264757  28.9664666  31.1032563
 111.1687021  29.2547515  32.5457436 119.7037081  29.4518411  33.9476090
 119.7585691  28.4992248  33.8718567 118.8928283  29.6077850  34.4317388
 117.6429441  28.0695471  31.7066469 116.8297306  28.3689642  32.1131661
 118.1388435  27.6751160  32.4240951 119.7938019  38.0653228  33.6400733
 119.7514198  38.2914074  32.7109266 120.7100718  37.8316603  33.7886535
 117.1343516  25.6413827  37.3227704 117.7742895  25.5002586  36.6250667
 116.3021046  25.3548340  36.9466306 117.9103820  34.9416257  33.4362696
 118.7044418  34.4466577  33.2345271 117.1995512  34.4134120  33.0730402
 114.2186583  29.0859339  29.5122449 113.2884171  29.0243794  29.7292411
 114.3144055  28.5635292  28.7159090 114.1372132  25.6114152  32.1000691
 114.3978949  26.5259485  31.9909851 114.9589304  25.1438594  32.2497303
 115.6097057  27.0251909  39.2699515 116.2820111  26.8169271  38.6212164
 114.7826844  26.8273995  38.8304747 121.5122629  23.6513850  41.2865176
 120.8650544  24.3503799  41.1929652 122.2823645  24.0849994  41.6541424
 120.4875096  35.5145279  37.1160533 120.3486181  35.1464063  37.9886471
 119.6989692  36.0292918  36.9444491 121.0823247  40.6154375  28.4586070
 121.2575003  40.1442419  29.2731693 120.3956036  41.2420142  28.6867331
 122.0380311  34.8926882  34.5049371 121.7030143  34.8527652  35.4007021
 121.5384256  34.2271598  34.0319781 116.0124555  30.2994512  40.0301952
 115.8744353  29.5674751  40.6313491 116.9229478  30.2103412  39.7486140
 118.6406855  30.0114471  39.5185632 119.3506474  29.3707663  39.4772250
 118.5976163  30.2627366  40.4411813 117.3535789  26.9979689  41.3381271
 116.8173146  26.5470427  41.9902868 116.7652498  27.1325598  40.5951736
 115.6484333  43.7643738  35.2325930 115.8880931  44.3962262  35.9104949
 114.8053529  43.4131778  35.5191289 108.2840188  31.2445500  33.9949242
 108.9711228  30.9307230  33.4070257 108.1288317  32.1486865  33.7216494
 113.0874911  26.1335697  38.4234266 113.0033099  25.5261366  37.6884676
 112.2657617  26.6244715  38.4243762 120.1612195  39.5722861  37.6367434
 120.0882366  40.3777832  38.1486739 119.7189588  39.7714826  36.8115455
 119.9501974  38.8094631  31.1470256 119.1669496  39.3516311  31.2408480
 120.6494719  39.3268610  31.5464497 119.8433593  26.7606643  33.5176146
 119.4731381  26.2077684  34.2057051 120.3392686  26.1564777  32.9651146
 117.6722792  37.2204138  40.6131163 118.3732251  37.8540621  40.7660558
 117.2017907  37.5618870  39.8526803 121.5211651  30.5168557  44.9249751
 120.8452288  30.4162686  45.5952126 122.3439285  30.3607770  45.3885748
 113.2690510  36.7540493  37.5462266 113.8543947  36.0084181  37.6790170
 113.0715348  37.0644450  38.4298930 116.1229165  39.7891741  32.5624709
 115.4539540  40.2737868  32.0788749 115.9842035  40.0360961  33.4768087
 107.8608164  29.3246093  36.2666709 107.8992264  28.7909684  37.0603827
 107.3548457  28.7981299  35.6477686 120.2634434  41.8235484  39.1607367
 120.8152742  41.9867106  39.9256452 120.6040627  42.4139922  38.4887392
 115.2398927  24.1710634  39.7629252 115.3040253  25.0325465  39.3506649
 115.1766047  23.5584636  39.0301610 114.7151199  26.2433766  43.4102286
 115.3423238  25.8610844  44.0239810 113.8579118  26.0247968  43.7757978
 111.4916742  28.0510196  29.3420641 111.7870183  27.1420874  29.2887694
 110.5904778  28.0297935  29.0201643 115.0210989  26.1266192  35.3248189
 114.2997575  26.7402160  35.1855663 115.8104245  26.6623957  35.2464835
 117.8237303  23.4620619  41.5988841 118.3471704  23.7082915  42.3615150
 117.6049636  24.2940653  41.1791978 113.2204584  25.7324293  29.4659966
 112.8917290  24.8521672  29.2835072 113.5743954  25.6771962  30.3536355
 116.3346407  26.0197263  29.8335444 116.6742479  26.5483184  29.1114052
 116.7818527  26.3577669  30.6094010 119.0289848  24.4034314  39.2838512
 118.6886668  23.6042127  39.6859191 118.3228854  24.7036025  38.7115345
 119.6806319  21.4883626  37.7365835 120.5032389  21.0144104  37.6144725
 119.9244383  22.2674110  38.2364521 117.2044898  28.1802747  35.5457813
 117.0589479  28.4943050  36.4382095 116.7270102  28.7987647  34.9928712
 119.0641281  25.1705295  35.5938703 119.0502850  24.2746388  35.2571001
 119.7813709  25.1775959  36.2276989 120.9167412  25.6042635  37.6391830
 120.6585190  26.5259706  37.6376161 120.3852452  25.2073070  38.3292294
 111.6790560  30.7208091  38.4845474 111.1344028  31.4967899  38.6165749
 112.5569910  31.0678896  38.3264596 118.4678177  24.0519675  30.8626273
 118.5894088  23.1236321  31.0617160 118.1780219  24.0658361  29.9504588
 112.4656582  29.8477987  41.3775631 111.7238318  29.9960623  41.9640262
 112.1449327  30.1086253  40.5142381 120.4100245  39.3893966  41.1756021
 120.7187371  39.1443112  42.0478721 121.2075727  39.5940604  40.6874891
 120.4320857  41.5431875  33.4061398 119.9925847  41.0508254  34.0994255
 121.1828974  41.0004843  33.1653473 112.9113196  37.7343416  33.4086026
 113.7371216  37.4347188  33.0284669 112.5607248  36.9651039  33.8575815
 117.8794729  37.0869884  35.4783699 117.2574738  36.4240589  35.1785927
 118.5499596  37.1131016  34.7957347 111.1121801  35.6529743  34.3674959
 110.2753709  35.2251917  34.1858961 111.0845446  35.8462186  35.3045751
 117.9519257  25.5651672  45.0716206 118.0007412  26.4413795  44.6893975
 118.4941771  25.0229066  44.4987849 117.4408236  35.6373808  28.9542160
 117.5896356  36.3209272  28.3008833 118.2474679  35.6178898  29.4691616
 120.1818545  26.3183045  41.8262564 119.3121854  26.6116611  41.5545153
 120.4178025  26.9023490  42.5469828 115.1960869  31.6638985  29.9603229
 114.9506911  30.7601315  30.1583439 115.3656784  31.6656136  29.0182707
 114.4656517  27.3967343  27.4589390 113.7725761  27.4711698  26.8029426
 114.2208268  26.6327687  27.9810907 120.9403642  38.1321938  26.4253907
 120.3677609  38.7512125  25.9724379 121.5136435  38.6821300  26.9593829
 121.2089133  33.5200497  45.2270617 122.1292142  33.6979096  45.4210663
 121.1738716  32.5756542  45.0750316 110.4271298  28.7139091  34.1523892
 110.1074082  27.8604399  33.8598266 109.8804726  28.9287669  34.9081859
 114.2051205  31.4301532  37.8693398 114.4237215  32.3618640  37.8881432
 114.6176979  31.0709506  38.6548202 119.0779070  27.0034738  47.2596147
 118.9775797  27.9529094  47.1908238 118.8600612  26.6752976  46.3872217
 110.2959558  32.3342002  36.1217013 109.6023029  31.9195955  35.6086968
 111.0432549  32.3762539  35.5250432 118.9410340  30.4331876  46.0761209
 118.4577422  31.2332236  46.2825098 119.0271280  30.4439821  45.1228653
 112.2096300  32.2660256  33.9983028 112.1866988  32.3647943  33.0464911
 112.5196937  33.1125407  34.3200194 114.8683678  34.3236411  38.1129642
 115.8226932  34.2920353  38.0459574 114.6696202  33.8627035  38.9279868
 115.4583060  32.8937527  40.6800440 116.2775949  33.3881606  40.7035277
 115.7319868  31.9769495  40.6518008 113.2233907  39.8656031  35.1299840
 113.0888375  39.1056431  34.5637838 112.8065969  40.5896930  34.6628629
 116.3803033  40.7625348  35.3418283 116.2635417  41.7070780  35.2396973
 115.5595479  40.4598909  35.7304082 110.7117974  27.2275661  41.3792637
 111.3576838  26.7174615  41.8679862 110.5035125  27.9644343  41.9536062
 117.4057547  41.4153609  38.5574211 118.3084793  41.4477220  38.8740706
 117.1794917  40.4854060  38.5720547 119.1611149  40.1684596  35.2184290
 118.2106780  40.1686458  35.1048662 119.4643635  39.4217331  34.7020325
 115.0515465  24.3743278  45.4767651 115.9146927  24.0180083  45.6870976
 114.4780876  24.0357173  46.1643056 121.9098899  43.4005515  37.4653287
 122.1606937  44.2852525  37.7310863 122.4458447  43.2210117  36.6928379
 119.1233943  46.5737418  33.9949242 119.8104983  46.2599148  33.4070257
 118.9682072  47.4778782  33.7216494 118.7001919  44.6538011  36.2666709
 118.7386019  44.1201602  37.0603827 118.1942212  44.1273217  35.6477686
 121.9515555  50.9821660  34.3674959 121.1147464  50.5543835  34.1858961
 121.9239201  51.1754104  35.3045751 121.2665052  44.0431008  34.1523892
 120.9467836  43.1896317  33.8598266 120.7198480  44.2579587  34.9081859
 121.1353312  47.6633920  36.1217013 120.4416783  47.2487873  35.6086968
 121.8826303  47.7054456  35.5250432 121.5511729  42.5567579  41.3792637
 122.1970592  42.0466533  41.8679862 121.3428880  43.2936260  41.9536062
   3.6500725  55.7766626 105.8967148   2.9762424  56.0798323 106.5052106
   4.0366547  56.5795706 105.5472605   5.7408195  47.5674839 104.4314588
   5.1237366  46.8421667 104.3347641   5.2724684  48.3284199 104.0881662
   7.6157466  53.3552110 107.1706971   8.3108371  53.9758802 107.3894286
   7.9580616  52.5047461 107.4459349   1.7072335  53.4613861 106.0782065
   1.1346302  54.0804048 105.6252536   2.2805128  54.0113223 106.6121986
   4.9269594  53.7451011 107.2090647   5.8600268  53.6796573 107.4123522
   4.8392807  54.5807278 106.7505179   7.5557611  53.0616882 104.1694594
   7.4771243  52.7276745 105.0630352   8.3767278  53.5538650 104.1686067
   5.1261563  50.3784877 103.7904573   5.8297413  50.5834880 104.4062228
   4.4024212  50.9461639 104.0553656   7.0348260  50.8167406 105.8403033
   7.8693864  50.3848605 105.6580508   6.8732603  50.6449420 106.7679927
  15.6632535  61.3337057 115.9358210  16.3010945  61.2143805 115.2321550
  15.5453378  62.2817901 115.9946162  12.4722242  61.2864486 115.8719734
  12.1340753  61.1705550 114.9840269  13.3412010  60.8855651 115.8520740
   8.3309057  63.1399962 111.8616625   7.7673922  63.0489899 111.0932913
   8.2161452  62.3199866 112.3419118  13.9108616  66.8070930 107.1731090
  13.2596596  67.3925010 106.7865104  14.7052979  67.3377125 107.2326128
   7.8364243  63.8960067 107.5718224   8.6095119  63.3489054 107.4331100
   8.1889642  64.7604316 107.7832686  10.1730521  60.0552733 105.2036674
  10.4256042  59.5334254 104.4420137   9.2355080  59.8918878 105.3063358
  15.2173804  59.0588511 113.0111418  16.0036893  58.6407934 112.6601835
  15.4812508  59.9634603 113.1793066  15.3883881  64.4961362 107.7100074
  14.7529714  64.5695988 108.4220979  15.0581288  65.0854960 107.0319154
  20.6182231  58.9963744 113.9144396  21.3507403  58.4262961 114.1482226
  19.8621587  58.6085345 114.3550902   9.8926810  61.9580839 107.4061049
   9.7763068  61.2825742 108.0742134  10.0029070  61.4713213 106.5893202
  12.2358351  61.4190986 111.1107739  11.8716558  60.8921607 111.8220660
  13.0925467  61.0289455 110.9374224  11.8763838  56.4480886 106.1069087
  12.0438240  57.3161122 106.4739558  11.6861007  56.6108167 105.1830376
  14.6339171  64.9097865 117.7734917  14.3339894  65.8122903 117.6650725
  14.2890230  64.6430048 118.6256070  18.0336315  57.4280405 115.4532355
  17.1253192  57.3595813 115.1591116  17.9823910  57.9052350 116.2814180
  11.8553059  58.9038543 107.0915754  11.7352684  59.3495594 107.9301234
  11.1605647  59.2523861 106.5329292   9.6159951  71.6742185 110.7405885
   9.5383980  72.6250010 110.8194366   9.0121594  71.3288057 111.3980811
  17.5538125  59.3760016 107.9196088  18.4655981  59.6087403 107.7443785
  17.0447772  59.9597061 107.3571167  16.1607707  64.3585835 115.3109669
  15.5316569  64.5231549 114.6085737  15.7733369  64.7727444 116.0820633
  20.0396939  65.2940273 112.6654033  19.3547977  65.6739174 112.1151066
  20.1240788  65.9035599 113.3985981  11.7135669  64.0960243 112.5759754
  12.1774014  64.3747946 111.7864377  11.4492467  63.1943687 112.3932845
  10.6504555  60.2183395 109.3849320  11.3528598  60.6704439 109.8523246
  10.3185183  59.5767214 110.0129213  18.4093698  65.8172187 117.4371734
  19.2311142  65.4152374 117.1554416  18.4056101  65.7140421 118.3887850
  26.4999691  62.1610936 113.7856705  25.7463400  61.5918334 113.6300710
  26.6347233  62.1273600 114.7327340  11.8898320  67.0324338 109.4611425
  11.7543994  67.8775874 109.8896273  12.4308132  67.2343616 108.6977359
   5.3427717  64.5499776 110.0339350   5.8552237  65.3443026 110.1844915
   5.9950430  63.8526066 109.9672951   7.1522602  67.6665532 112.1162103
   7.3289230  68.5883497 111.9283087   7.9479435  67.3523951 112.5456483
   3.3076634  62.8788430 110.8098920   4.1451856  63.2885439 110.5932628
   3.4854901  61.9387872 110.7799114  15.2041066  60.5463511 106.4982753
  14.6887689  61.3168116 106.7371141  14.9318374  59.8728647 107.1215815
  12.7888177  55.3913212 111.5567992  11.9329773  55.0020062 111.3773630
  13.2015129  55.4705172 110.6967777  20.1775340  63.2995866 108.4335927
  19.4004783  62.9607025 107.9891089  20.8566821  63.3048489 107.7590892
  14.9927369  58.4190603 108.3242535  14.6877505  58.7336752 109.1752678
  15.9457811  58.4972023 108.3669868  13.4373801  64.5780826 109.9735489
  12.9095162  63.8433586 109.6608726  12.9361304  65.3555503 109.7275457
  18.4166647  62.7729847 115.0902535  17.7590321  63.4629108 115.1782663
  19.2207046  63.1626279 115.4336521  17.2272106  61.1274219 113.1406477
  17.7403987  61.7604211 113.6428186  17.8773330  60.5275415 112.7749837
   8.4962116  57.2704954 106.3537985   7.6599428  57.6079640 106.6747260
   8.3566885  57.1353933 105.4165122  11.5826401  62.3961037 102.9770462
  10.6753463  62.1650290 103.1761611  12.0797433  61.5998656 103.1644443
  14.4894480  71.1058544 105.8967148  13.8156179  71.4090240 106.5052106
  14.8760302  71.9087624 105.5472605  14.4887984  60.0015091 110.5167497
  15.2359803  60.5136488 110.2074619  14.7579574  59.6799143 111.3771891
  12.7614634  62.4973631 107.4994452  11.8525854  62.2132664 107.5966921
  12.7909718  62.9172710 106.6397759  17.9933902  66.1080221 111.2685619
  17.5396229  65.2671131 111.3250810  17.3627869  66.7441619 111.6060399
  16.9366821  57.0372207 112.4986287  16.1989578  56.5249593 112.8296529
  17.1893595  56.5972589 111.6869564  16.4366841  67.9456718 112.2035437
  16.7289815  68.5061775 111.4847803  16.9465462  68.2385279 112.9588596
  11.3099529  60.1102252 113.6004247  11.3648138  59.1576088 113.5246724
  10.4990731  60.2661691 114.0845545  12.4590722  64.0382375 104.8382530
  12.0210152  63.3218234 104.3788168  13.2001163  64.2658490 104.2767622
   9.2491888  58.7279312 111.3594626   8.4359754  59.0273482 111.7659818
   9.7450883  58.3335001 112.0769108  11.4000466  68.7237069 113.2928891
  11.3576645  68.9497915 112.3637423  12.3163165  68.4900443 113.4414692
  20.5763837  62.3139572 110.8958849  20.4381736  62.5041168 109.9680038
  20.2200056  63.0758955 111.3526900  20.6033217  64.3816099 115.9070120
  21.0369723  64.2891388 116.7553174  21.3164797  64.3573600 115.2690136
   9.5166267  65.6000098 113.0890853  10.3106866  65.1050418 112.8873428
   8.8057959  65.0717961 112.7258559  14.3361112  67.9818193 117.4403221
  14.3898134  68.5509130 118.2080937  13.4675893  68.1520078 117.0757258
   5.8249031  59.7443179 109.1650606   4.8946619  59.6827635 109.3820568
   5.9206503  59.2219132 108.3687247  21.4648766  64.4239800 118.4403006
  21.6584656  65.3285610 118.6862281  21.3649384  63.9647219 119.2741591
  12.0937543  66.1729120 116.7688690  11.9548629  65.8047904 117.6414629
  11.3052139  66.6876759 116.5972648  12.6885695  71.2738216 108.1114227
  12.8637451  70.8026259 108.9259850  12.0018483  71.9003982 108.3395488
  13.6442758  65.5510722 114.1577528  13.3092591  65.5111492 115.0535178
  13.1446704  64.8855438 113.6847938  16.5801950  62.8966757 104.4314588
  15.9631121  62.1713585 104.3347641  16.1118438  63.6576117 104.0881662
   8.3700496  57.1152181 103.5535892   7.4929962  56.9940982 103.1898139
   8.8458249  56.3238259 103.3014781  11.5564422  69.4678471 110.7998413
  10.7731944  70.0100152 110.8936637  12.2557167  69.9852451 111.1992654
  14.8661072  55.2773101 113.4432618  15.3629771  54.5243063 113.1233688
  14.0948053  55.3137418 112.8775827  22.7190829  60.9813466 115.0850910
  22.7080706  61.8638182 114.7144843  21.8508209  60.6285017 114.8905447
  15.9490853  64.0344788 111.0171041  15.0147131  64.1546251 110.8475746
  16.1267521  63.1317255 110.7531051  19.3363404  59.8762107 111.5521076
  19.8023856  60.7090099 111.4781378  19.7870904  59.4107089 112.2566334
  17.4039635  66.2205929 108.5507228  17.6799479  66.1062523 109.4601102
  16.5344134  65.8223413 108.5119401  14.0393699  70.4692279 112.1940041
  14.2216094  69.6513935 112.6567794  14.8626685  70.6859972 111.7564931
  14.3735865  69.3960465 109.4555090  14.9023631  68.8852919 108.8425252
  14.6364084  69.0802995 110.3200623   3.0979190  58.7094036 108.9948798
   3.3932631  57.8004715 108.9415851   2.1967225  58.6881776 108.6729800
  15.0065268  70.4301300 115.7999206  14.8816408  69.6291040 115.2910152
  15.6644360  70.9247494 115.3113176  17.0700177  68.2310320 117.4278756
  16.1230512  68.1115672 117.3557083  17.4182950  67.3432818 117.5105018
   4.8267031  56.3908134 109.1188123   4.4979737  55.5105513 108.9363229
   5.1806402  56.3355803 110.0064512  14.0746610  68.0263037 113.6283108
  13.9271573  67.0979744 113.8090679  14.9000104  68.0483127 113.1440184
   7.9408854  56.6781104 109.4863601   8.2804927  57.2067025 108.7642209
   8.3880975  57.0161510 110.2622167  17.6780732  68.8491595 114.7147981
  18.6027279  68.6434457 114.5772432  17.5096035  68.6007997 115.6237323
   9.9277002  55.1755725 107.6856893  10.6485364  55.5536978 107.1820610
   9.3042306  55.8944602 107.7891871  14.0708124  55.8800874 108.6215226
  14.2871739  56.7625512 108.3204054  13.5902192  55.4887088 107.8920868
  17.4676048  69.3677263 110.0710073  17.6412926  68.8023685 109.3183925
  17.9604939  70.1678158 109.8889563  10.0740625  54.7103516 110.5154430
  10.1956536  53.7820162 110.7145317   9.7842667  54.7242202 109.6032745
  23.3215439  62.1313686 111.6900372  23.7646585  61.3821011 111.2919496
  22.4441950  62.1223822 111.3074104  18.4551221  68.6844027 107.1706971
  19.1502125  69.3050720 107.3894286  18.7974371  67.8339378 107.4459349
  20.3542644  66.1343733 108.6994302  20.8793968  66.4731006 107.9743622
  20.2664996  65.1990748 108.5157436  12.0383304  72.2015716 113.0589555
  11.5988295  71.7092095 113.7522412  12.7891421  71.6588684 112.8181630
   9.0470684  66.2957648 108.6070317   9.1958804  66.9793113 107.9536990
   9.8537127  66.2762739 109.1219773  21.6652622  66.0366044 121.5620250
  21.3737430  66.3996025 122.3983711  21.0524753  65.3233053 121.3833582
  22.8648304  63.6018924 114.0822820  23.6995195  64.0408728 114.2460380
  23.0007433  63.1257577 113.2631066   6.8023317  62.3222826 109.6131386
   6.5569358  61.4185156 109.8111596   6.9719231  62.3239977 108.6710864
   6.0718964  58.0551184 107.1117547   5.3788209  58.1295539 106.4557583
   5.8270716  57.2911527 107.6339064  12.5466089  68.7905779 106.0782065
  11.9740056  69.4095966 105.6252536  13.1198883  69.3405141 106.6121986
  15.7663349  69.0742929 107.2090647  16.6994022  69.0088491 107.4123522
  15.6786562  69.9099196 106.7505179  18.3951366  68.3908799 104.1694594
  18.3164997  68.0568663 105.0630352  19.2161032  68.8830567 104.1686067
  21.0929557  61.2570539 117.3770913  21.0605877  60.3186539 117.5630597
  21.7030180  61.3354575 116.6436738  12.9312888  60.1266592 103.4198117
  13.8771992  59.9972800 103.4886535  12.5527133  59.3881254 103.8967545
  26.9106107  62.3186546 116.5176950  27.6409495  62.0571834 117.0784653
  26.3013052  61.5815267 116.5579018  24.9921404  60.4594408 117.1151401
  24.2654567  60.3250373 116.5067893  24.5768691  60.7671237 117.9208119
  11.1155805  58.0516568 103.3553002  10.2087260  57.7549681 103.4315716
  11.3931786  57.7546386 102.4887289  12.7317870  52.5953458 109.5097244
  11.9218599  52.2500543 109.8852490  13.4202287  52.2861002 110.0984855
   9.8854589  54.9103503 103.4964981  10.7473753  55.2358402 103.7560799
  10.0704934  54.1234999 102.9838047  18.0387226  53.7832030 110.6400204
  17.4585895  54.4416834 110.2578257  17.7723159  52.9609374 110.2287622
  16.8212104  55.9432120 109.6956553  15.9337959  56.2281771 109.4776747
  17.2366093  55.7825883 108.8483830  20.1726640  55.9678641 113.4110892
  20.9487030  56.4575094 113.6835509  19.4474774  56.3936695 113.8682761
  22.6099199  56.6806260 114.4684833  23.2043689  56.4401996 113.7578141
  22.6825782  55.9613391 115.0958369  15.9655317  65.7076795 103.7904573
  16.6691167  65.9126797 104.4062228  15.2417966  66.2753557 104.0553656
  16.7953128  61.4586656 109.9106843  16.7388329  61.9155207 109.0714475
  17.3481470  60.6977341 109.7329686  20.6057934  57.2476388 110.7356962
  20.3494868  56.8473024 111.5665170  19.9810802  57.9620182 110.6107102
  24.9170271  59.9872461 113.2428254  24.3569829  60.0565650 114.0159816
  24.3113775  59.8113446 112.5227750  17.8742015  66.1459324 105.8403033
  18.7087619  65.7140522 105.6580508  17.7126358  65.9741338 106.7679927
  17.5287907  62.6491437 107.2059372  17.4736711  62.4835709 106.2647816
  16.9033962  63.3567470 107.3621562  10.8384032  52.1499546 106.7844690
  10.8262702  53.0941386 106.9412961  11.7307454  51.9669692 106.4904152
  26.5026290  76.6628975 115.9358210  27.1404700  76.5435722 115.2321550
  26.3847133  77.6109819 115.9946162  23.3115996  76.6156403 115.8719734
  22.9734508  76.4997468 114.9840269  24.1805764  76.2147568 115.8520740
  19.1702812  78.4691880 111.8616625  18.6067677  78.3781817 111.0932913
  19.0555207  77.6491784 112.3419118  24.7502371  82.1362847 107.1731090
  24.0990350  82.7216928 106.7865104  25.5446733  82.6669042 107.2326128
  18.6757998  79.2251984 107.5718224  19.4488874  78.6780972 107.4331100
  19.0283397  80.0896234 107.7832686  21.4399247  77.9305215 117.3686483
  22.0362819  77.7061238 116.6543446  21.4974219  77.1889961 117.9711931
  21.0124275  75.3844651 105.2036674  21.2649796  74.8626172 104.4420137
  20.0748835  75.2210796 105.3063358  26.0567558  74.3880429 113.0111418
  26.8430648  73.9699852 112.6601835  26.3206263  75.2926521 113.1793066
  26.2277636  79.8253279 107.7100074  25.5923469  79.8987906 108.4220979
  25.8975042  80.4146878 107.0319154  31.4575985  74.3255662 113.9144396
  32.1901157  73.7554879 114.1482226  30.7015341  73.9377263 114.3550902
  20.7320564  77.2872757 107.4061049  20.6156822  76.6117660 108.0742134
  20.8422824  76.8005130 106.5893202  23.0752105  76.7482904 111.1107739
  22.7110312  76.2213525 111.8220660  23.9319221  76.3581373 110.9374224
  28.9801406  68.0377236 118.3739005  28.6484731  68.9072647 118.1500220
  28.3847019  67.7213520 119.0533035  22.7157592  71.7772803 106.1069087
  22.8831994  72.6453040 106.4739558  22.5254761  71.9400085 105.1830376
  25.4732925  80.2389782 117.7734917  25.1733648  81.1414821 117.6650725
  25.1283985  79.9721965 118.6256070  18.9245407  76.6903579 113.8071622
  17.9995903  76.5579793 114.0149314  19.1729820  77.4697798 114.3041564
  28.8730069  72.7572322 115.4532355  27.9646946  72.6887731 115.1591116
  28.8217665  73.2344267 116.2814180  22.6946813  74.2330461 107.0915754
  22.5746438  74.6787512 107.9301234  21.9999401  74.5815779 106.5329292
  20.4553705  87.0034103 110.7405885  20.3777735  87.9541928 110.8194366
  19.8515349  86.6579975 111.3980811  30.7391716  70.9588761 117.2310229
  30.0966096  71.2521294 116.5850023  30.2346644  70.8441681 118.0363425
  28.3931879  74.7051934 107.9196088  29.3049735  74.9379321 107.7443785
  27.8841526  75.2888978 107.3571167  26.6772647  79.1276562 121.5557380
  27.0856003  78.6858972 120.8112013  25.9549908  78.5529189 121.8091573
  23.0303717  74.0649169 118.9290937  23.8764912  74.4888582 119.0725586
  22.9702355  73.4082793 119.6229501  27.0001461  79.6877752 115.3109669
  26.3710324  79.8523467 114.6085737  26.6127124  80.1019362 116.0820633
  30.8790693  80.6232190 112.6654033  30.1941732  81.0031092 112.1151066
  30.9634543  81.2327517 113.3985981  26.1803162  71.7253537 120.5872111
  25.9364094  72.4795598 120.0506387  26.4563093  72.1038885 121.4219358
  28.1341625  78.2692149 119.2649377  28.3458520  78.9123909 118.5883758
  28.0871373  77.4354466 118.7971307  25.7367854  70.8809970 116.1685949
  24.8752333  71.1791224 116.4602686  25.7630289  71.0980369 115.2366981
  22.5529423  79.4252161 112.5759754  23.0167769  79.7039864 111.7864377
  22.2886221  78.5235605 112.3932845  19.4453504  78.9723642 115.5139518
  20.0154861  79.4010910 114.8757002  20.0361616  78.6906227 116.2123703
  21.4898309  75.5475313 109.3849320  22.1922353  75.9996357 109.8523246
  21.1578938  74.9059132 110.0129213  15.2323643  73.8058866 114.6866453
  14.4422697  74.0616394 114.2106564  15.7234891  74.6207203 114.7918494
  29.2487453  81.1464105 117.4371734  30.0704897  80.7444292 117.1554416
  29.2449856  81.0432339 118.3887850  17.1838389  74.1703445 111.6449930
  16.3869552  74.2822139 112.1633426  16.9563981  74.5090097 110.7790820
  37.3393446  77.4902853 113.7856705  36.5857154  76.9210251 113.6300710
  37.4740987  77.4565518 114.7327340  22.7292074  82.3616256 109.4611425
  22.5937749  83.2067791 109.8896273  23.2701887  82.5635533 108.6977359
  16.1821471  79.8791694 110.0339350  16.6945992  80.6734944 110.1844915
  16.8344184  79.1817984 109.9672951  17.9916356  82.9957450 112.1162103
  18.1682984  83.9175415 111.9283087  18.7873190  82.6815869 112.5456483
  22.1327375  69.8565714 123.7146037  22.8737088  70.4572868 123.6350499
  22.3645297  69.1143352 123.1564079  26.0784538  65.8846817 117.9910318
  25.7348807  66.7748459 117.9149429  26.4463500  65.6948475 117.1279903
  14.1470388  78.2080348 110.8098920  14.9845610  78.6177356 110.5932628
  14.3248656  77.2679790 110.7799114  26.0434820  75.8755429 106.4982753
  25.5281444  76.6460033 106.7371141  25.7712129  75.2020565 107.1215815
  23.6281931  70.7205129 111.5567992  22.7723528  70.3311980 111.3773630
  24.0408883  70.7997090 110.6967777  25.1581078  68.2551473 115.9559552
  24.6545874  68.2181608 115.1427357  25.4511685  69.1644215 116.0156208
  21.4023964  68.3390202 114.9625733  22.2676961  68.1433011 114.6031623
  21.4701473  68.1100554 115.8895090  31.0169094  78.6287783 108.4335927
  30.2398537  78.2898943 107.9891089  31.6960575  78.6340406 107.7590892
  25.8321123  73.7482521 108.3242535  25.5271259  74.0628670 109.1752678
  26.7851566  73.8263941 108.3669868  24.2767555  79.9072744 109.9735489
  23.7488917  79.1725504 109.6608726  23.7755058  80.6847420 109.7275457
  29.2560401  78.1021764 115.0902535  28.5984076  78.7921026 115.1782663
  30.0600801  78.4918196 115.4336521  19.0086283  70.5692410 112.3342100
  19.5830035  70.3467592 111.6015293  19.5957265  70.6381105 113.0870701
  28.0665860  76.4566137 113.1406477  28.5797742  77.0896129 113.6428186
  28.7167084  75.8567333 112.7749837  19.3355870  72.5996871 106.3537985
  18.4993182  72.9371558 106.6747260  19.1960640  72.4645851 105.4165122
  21.3108951  67.4433659 111.0617170  20.6573363  67.1282676 110.4373784
  21.2689425  66.8209400 111.7876992  22.4220156  77.7252954 102.9770462
  21.5147217  77.4942208 103.1761611  22.9191187  76.9290573 103.1644443
  25.3288234  86.4350461 105.8967148  24.6549933  86.7382158 106.5052106
  25.7154056  87.2379542 105.5472605  24.5446691  73.9315593 115.3864817
  23.6269252  74.1530540 115.2286505  24.9606835  74.0061903 114.5276524
  25.3281739  75.3307008 110.5167497  26.0753558  75.8428406 110.2074619
  25.5973328  75.0091061 111.3771891  23.6008389  77.8265549 107.4994452
  22.6919608  77.5424582 107.5966921  23.6303473  78.2464628 106.6397759
  28.8327656  81.4372139 111.2685619  28.3789983  80.5963048 111.3250810
  28.2021623  82.0733537 111.6060399  27.7760576  72.3664125 112.4986287
  27.0383333  71.8541511 112.8296529  28.0287349  71.9264506 111.6869564
  27.2760596  83.2748635 112.2035437  27.5683570  83.8353692 111.4847803
  27.7859216  83.5677196 112.9588596  27.8772203  65.1440377 113.0928056
  28.1831080  64.2837740 112.8053971  28.6024808  65.7357997 112.8927050
  14.1696559  75.5471063 111.4809654  13.9720959  74.9540424 110.7560720
  13.6143223  75.2423273 112.1985593  22.1493283  75.4394170 113.6004247
  22.2041893  74.4868006 113.5246724  21.3384485  75.5953609 114.0845545
  23.2984477  79.3674293 104.8382530  22.8603907  78.6510152 104.3788168
  24.0394918  79.5950408 104.2767622  20.0885643  74.0571229 111.3594626
  19.2753508  74.3565400 111.7659818  20.5844637  73.6626918 112.0769108
  22.2394221  84.0528986 113.2928891  22.1970400  84.2789833 112.3637423
  23.1556920  83.8192361 113.4414692  25.6859855  74.5213054 120.1909520
  26.0409242  74.7484527 121.0503986  26.3331986  74.8531431 119.5686775
  31.4157592  77.6431490 110.8958849  31.2775490  77.8333086 109.9680038
  31.0593810  78.4050873 111.3526900  19.5799718  71.6289585 116.9755861
  20.2199097  71.4878344 116.2778824  18.7477248  71.3424098 116.5994463
  31.4426971  79.7108017 115.9070120  31.8763478  79.6183306 116.7553174
  32.1558552  79.6865517 115.2690136  20.3560022  80.9292015 113.0890853
  21.1500620  80.4342336 112.8873428  19.6451714  80.4009879 112.7258559
  25.1754866  83.3110111 117.4403221  25.2291888  83.8801047 118.2080937
  24.3069647  83.4811996 117.0757258  16.6642785  75.0735097 109.1650606
  15.7340373  75.0119553 109.3820568  16.7600257  74.5511050 108.3687247
  16.5828334  71.5989910 111.7528848  16.8435151  72.5135243 111.6438008
  17.4045506  71.1314353 111.9025460  32.3042521  79.7531717 118.4403006
  32.4978411  80.6577528 118.6862281  32.2043139  79.2939137 119.2741591
  23.9578831  69.6389608 120.9393333  23.3106746  70.3379558 120.8457809
  24.7279847  70.0725752 121.3069581  24.1342966  77.4770373 118.9990153
  25.0635026  77.6281533 118.8259120  23.7133996  77.5654394 118.1438799
  22.9331298  81.5021037 116.7688690  22.7942383  81.1339822 117.6414629
  22.1445894  82.0168677 116.5972648  23.5279450  86.6030134 108.1114227
  23.7031205  86.1318177 108.9259850  22.8412238  87.2295900 108.3395488
  24.4836513  80.8802640 114.1577528  24.1486345  80.8403410 115.0535178
  23.9840458  80.2147356 113.6847938  27.4195704  78.2258674 104.4314588
  26.8024875  77.5005503 104.3347641  26.9512193  78.9868035 104.0881662
  29.0749836  82.9357583 122.0920368  29.0162382  82.2516803 121.4250951
  29.4769354  83.6776573 121.6400994  19.2094250  72.4444099 103.5535892
  18.3323717  72.3232899 103.1898139  19.6852003  71.6530177 103.3014781
  29.0767243  80.8997167 120.3234348  28.1894022  80.5623088 120.4460747
  29.6465794  80.1680198 120.5603113  22.3958176  84.7970389 110.7998413
  21.6125698  85.3392069 110.8936637  23.0950921  85.3144369 111.1992654
  25.7054826  70.6065019 113.4432618  26.2023526  69.8534981 113.1233688
  24.9341808  70.6429335 112.8775827  33.5584584  76.3105384 115.0850910
  33.5474460  77.1930099 114.7144843  32.6901963  75.9576935 114.8905447
  26.7884607  79.3636706 111.0171041  25.8540886  79.4838168 110.8475746
  26.9661276  78.4609173 110.7531051  22.2889795  72.7482402 113.1704303
  21.9187583  72.1953442 113.8585208  22.7848888  72.1440535 112.6179303
  30.1757158  75.2054025 111.5521076  30.6417611  76.0382017 111.4781378
  30.6264659  74.7399007 112.2566334  28.2433390  81.5497846 108.5507228
  28.5193233  81.4354441 109.4601102  27.3737888  81.1515331 108.5119401
  28.1473821  67.5734612 115.5911977  27.2336901  67.8038839 115.7594184
  28.5766923  67.6573056 116.4426009  27.9180280  75.7624504 118.0911871
  27.2651730  76.0100411 117.4364324  28.2960660  74.9488642 117.7574348
  24.8787454  85.7984197 112.1940041  25.0609848  84.9805853 112.6567794
  25.7020440  86.0151889 111.7564931  25.2129619  84.7252382 109.4555090
  25.7417386  84.2144837 108.8425252  25.4757839  84.4094913 110.3200623
  17.6855129  70.1586392 119.4157409  17.7496455  71.0201223 119.0034806
  17.6222249  69.5460394 118.6829767  13.9372944  74.0385954 108.9948798
  14.2326385  73.1296632 108.9415851  13.0360980  74.0173693 108.6729800
  25.8459023  85.7593218 115.7999206  25.7210162  84.9582958 115.2910152
  26.5038114  86.2539411 115.3113176  17.4667191  72.1141951 114.9776346
  16.7453777  72.7277918 114.8383820  18.2560447  72.6499715 114.8992992
  27.9093931  83.5602238 117.4278756  26.9624267  83.4407589 117.3557083
  28.2576704  82.6724736 117.5105018  20.2693505  69.4496377 121.2516998
  20.7927906  69.6958674 122.0143307  20.0505838  70.2816412 120.8320135
  15.6660786  71.7200052 109.1188123  15.3373492  70.8397431 108.9363229
  16.0200156  71.6647720 110.0064512  24.9140365  83.3554954 113.6283108
  24.7665327  82.4271662 113.8090679  25.7393858  83.3775045 113.1440184
  18.7802609  72.0073021 109.4863601  19.1198681  72.5358943 108.7642209
  19.2274729  72.3453428 110.2622167  28.5174486  84.1783513 114.7147981
  29.4421034  83.9726374 114.5772432  28.3489790  83.9299914 115.6237323
  21.4746050  70.3910072 118.9366669  21.1342870  69.5917885 119.3387349
  20.7685056  70.6911783 118.3643502  22.1262522  67.4759385 117.3893992
  22.9488591  67.0019863 117.2672882  22.3700585  68.2549868 117.8892678
  20.7670756  70.5047643 107.6856893  21.4879119  70.8828896 107.1820610
  20.1436060  71.2236520 107.7891871  24.9101879  71.2092792 108.6215226
  25.1265493  72.0917430 108.3204054  24.4295946  70.8179005 107.8920868
  19.6501100  74.1678505 115.1985970  19.5045681  74.4818808 116.0910252
  19.1726304  74.7863406 114.6456869  21.5097483  71.1581053 115.2466860
  21.4959052  70.2622146 114.9099158  22.2269911  71.1651717 115.8805146
  23.3623614  71.5918393 117.2919987  23.1041392  72.5135464 117.2904318
  22.8308654  71.1948828 117.9820451  28.3069803  84.6969180 110.0710073
  28.4806680  84.1315603 109.3183925  28.7998694  85.4970075 109.8889563
  20.9134379  70.0395433 110.5154430  21.0350290  69.1112080 110.7145317
  20.6236421  70.0534119 109.6032745  23.7825569  67.7250344 113.6521150
  23.8047266  67.7889677 112.6973129  24.1993628  66.8854853 113.8461656
  34.1609194  77.4605603 111.6900372  34.6040340  76.7112929 111.2919496
  33.2835704  77.4515740 111.3074104  29.2944975  84.0135945 107.1706971
  29.9895880  84.6342638 107.3894286  29.6368125  83.1631296 107.4459349
  31.1936398  81.4635650 108.6994302  31.7187722  81.8022923 107.9743622
  31.1058751  80.5282666 108.5157436  22.8777059  87.5307634 113.0589555
  22.4382049  87.0384012 113.7522412  23.6285176  86.9880601 112.8181630
  31.0028179  78.9461020 121.3178228  31.0526184  78.7811028 122.2593751
  30.8942103  78.0788279 120.9276109  19.8864438  81.6249566 108.6070317
  20.0352558  82.3085031 107.9536990  20.6930882  81.6054656 109.1219773
  28.2931942  74.9291948 122.6337535  29.1941805  74.7898413 122.3421533
  28.3679916  75.0946403 123.5735712  22.6274747  72.3058803 121.4790721
  21.7578056  72.5992369 121.2073310  22.8634227  72.8899248 122.1997985
  32.5046376  81.3657962 121.5620250  32.2131184  81.7287943 122.3983711
  31.8918507  80.6524970 121.3833582  33.7042058  78.9310842 114.0822820
  34.5388950  79.3700646 114.2460380  33.8401187  78.4549495 113.2631066
  30.7533564  76.4890577 120.0300308  31.2287686  76.6818223 119.2219159
  29.8299130  76.5449762 119.7843691  17.6417071  77.6514744 109.6131386
  17.3963113  76.7477074 109.8111596  17.8112986  77.6531894 108.6710864
  25.3313781  68.5238420 118.9956142  25.8495725  69.2599447 118.6702630
  24.9768914  68.8302413 119.8302901  16.9112719  73.3843101 107.1117547
  16.2181964  73.4587456 106.4557583  16.6664470  72.6203445 107.6339064
  25.5826375  64.9438703 114.5157038  25.8628129  64.2761892 115.1417465
  26.3676982  65.1367798 114.0031702  23.3859844  84.1197697 106.0782065
  22.8133811  84.7387884 105.6252536  23.9592637  84.6697058 106.6121986
  29.4535233  73.3656337 118.2628613  30.4052656  73.4654434 118.2840837
  29.2838684  72.5734605 118.7726698  27.4749613  70.4511920 118.4488014
  26.8799545  70.7316933 117.7534503  27.1899310  70.9405821 119.2204755
  26.6057103  84.4034847 107.2090647  27.5387777  84.3380408 107.4123522
  26.5180316  85.2391114 106.7505179  29.2345120  83.7200717 104.1694594
  29.1558752  83.3860581 105.0630352  30.0554787  84.2122485 104.1686067
  31.9323311  76.5862456 117.3770913  31.8999631  75.6478457 117.5630597
  32.5423935  76.6646493 116.6436738  23.7706642  75.4558509 103.4198117
  24.7165747  75.3264717 103.4886535  23.3920887  74.7173171 103.8967545
  32.0817800  73.3773500 117.4229196  31.5656848  72.5931956 117.2359125
  32.9657748  73.0492216 117.5875716  29.7428527  67.1214515 113.3825009
  29.5453348  66.8129604 114.2668341  30.3528232  67.8476154 113.5122939
  37.7499861  77.6478463 116.5176950  38.4803250  77.3863751 117.0784653
  37.1406807  76.9107185 116.5579018  35.8315158  75.7886326 117.1151401
  35.1048322  75.6542291 116.5067893  35.4162445  76.0963154 117.9208119
  21.9549559  73.3808486 103.3553002  21.0481015  73.0841598 103.4315716
  22.2325540  73.0838304 102.4887289  23.5711625  67.9245375 109.5097244
  22.7612353  67.5792460 109.8852490  24.2596042  67.6152919 110.0984855
  25.5002173  67.0023422 111.1321540  26.0533212  67.4218876 111.7911563
  25.7372260  66.0759170 111.1744496  20.7248344  70.2395421 103.4964981
  21.5867508  70.5650319 103.7560799  20.9098688  69.4526917 102.9838047
  28.8780980  69.1123947 110.6400204  28.2979649  69.7708751 110.2578257
  28.6116913  68.2901292 110.2287622  27.3284547  68.5129005 112.8421525
  27.8284325  68.6245540 112.0335844  27.9720155  68.2090058 113.4822333
  27.6605858  71.2724038 109.6956553  26.7731713  71.5573688 109.4776747
  28.0759847  71.1117801 108.8483830  31.0120394  71.2970559 113.4110892
  31.7880785  71.7867011 113.6835509  30.2868529  71.7228613 113.8682761
  33.4492953  72.0098178 114.4684833  34.0437444  71.7693914 113.7578141
  33.5219537  71.2905309 115.0958369  26.8049072  81.0368712 103.7904573
  27.5084922  81.2418715 104.4062228  26.0811721  81.6045474 104.0553656
  27.6346882  76.7878574 109.9106843  27.5782083  77.2447125 109.0714475
  28.1875225  76.0269258 109.7329686  31.4451688  72.5768306 110.7356962
  31.1888622  72.1764941 111.5665170  30.8204556  73.2912100 110.6107102
  35.7564026  75.3164379 113.2428254  35.1963584  75.3857568 114.0159816
  35.1507529  75.1405363 112.5227750  28.7135769  81.4751242 105.8403033
  29.5481373  81.0432440 105.6580508  28.5520112  81.3033255 106.7679927
  28.3681661  77.9783355 107.2059372  28.3130465  77.8127626 106.2647816
  27.7427717  78.6859388 107.3621562  21.6777787  67.4791464 106.7844690
  21.6656457  68.4233304 106.9412961  22.5701209  67.2961609 106.4904152
  25.4929906  64.0734241 111.0390627  24.7262302  63.5192727 111.1847310
  25.9040611  64.1456109 111.9004779  37.3420044  91.9920893 115.9358210
  37.9798454  91.8727640 115.2321550  37.2240887  92.9401737 115.9946162
  34.1509751  91.9448321 115.8719734  33.8128262  91.8289386 114.9840269
  35.0199519  91.5439486 115.8520740  30.0096566  93.7983797 111.8616625
  29.4461431  93.7073734 111.0932913  29.8948961  92.9783702 112.3419118
  35.5896125  97.4654765 107.1731090  34.9384105  98.0508845 106.7865104
  36.3840488  97.9960960 107.2326128  29.5151752  94.5543902 107.5718224
  30.2882628  94.0072889 107.4331100  29.8677151  95.4188151 107.7832686
  32.2793002  93.2597133 117.3686483  32.8756574  93.0353155 116.6543446
  32.3367973  92.5181878 117.9711931  31.8518030  90.7136568 105.2036674
  32.1043551  90.1918090 104.4420137  30.9142589  90.5502714 105.3063358
  36.8961313  89.7172347 113.0111418  37.6824402  89.2991770 112.6601835
  37.1600017  90.6218439 113.1793066  37.0671390  95.1545197 107.7100074
  36.4317223  95.2279823 108.4220979  36.7368797  95.7438796 107.0319154
  42.2969740  89.6547580 113.9144396  43.0294912  89.0846797 114.1482226
  41.5409096  89.2669180 114.3550902  31.5714319  92.6164674 107.4061049
  31.4550577  91.9409578 108.0742134  31.6816579  92.1297048 106.5893202
  33.9145860  92.0774821 111.1107739  33.5504067  91.5505442 111.8220660
  34.7712976  91.6873290 110.9374224  39.8195160  83.3669154 118.3739005
  39.4878485  84.2364565 118.1500220  39.2240774  83.0505438 119.0533035
  33.5551347  87.1064721 106.1069087  33.7225749  87.9744957 106.4739558
  33.3648516  87.2692003 105.1830376  36.3126680  95.5681700 117.7734917
  36.0127403  96.4706739 117.6650725  35.9677739  95.3013883 118.6256070
  29.7639161  92.0195497 113.8071622  28.8389658  91.8871711 114.0149314
  30.0123574  92.7989716 114.3041564  39.7123824  88.0864240 115.4532355
  38.8040701  88.0179649 115.1591116  39.6611419  88.5636185 116.2814180
  33.5340568  89.5622379 107.0915754  33.4140193  90.0079429 107.9301234
  32.8393156  89.9107696 106.5329292  31.2947460 102.3326020 110.7405885
  31.2171489 103.2833845 110.8194366  30.6909103 101.9871893 111.3980811
  41.5785470  86.2880679 117.2310229  40.9359850  86.5813212 116.5850023
  41.0740399  86.1733599 118.0363425  39.2325634  90.0343852 107.9196088
  40.1443490  90.2671238 107.7443785  38.7235281  90.6180896 107.3571167
  37.5166401  94.4568480 121.5557380  37.9249757  94.0150890 120.8112013
  36.7943663  93.8821107 121.8091573  33.8697471  89.3941086 118.9290937
  34.7158667  89.8180500 119.0725586  33.8096109  88.7374711 119.6229501
  37.8395216  95.0169670 115.3109669  37.2104078  95.1815384 114.6085737
  37.4520878  95.4311280 116.0820633  41.7184448  95.9524108 112.6654033
  41.0335486  96.3323009 112.1151066  41.8028297  96.5619435 113.3985981
  37.0196917  87.0545455 120.5872111  36.7757849  87.8087515 120.0506387
  37.2956847  87.4330802 121.4219358  38.9735379  93.5984067 119.2649377
  39.1852275  94.2415827 118.5883758  38.9265128  92.7646384 118.7971307
  36.5761608  86.2101888 116.1685949  35.7146087  86.5083141 116.4602686
  36.6024043  86.4272287 115.2366981  33.3923178  94.7544078 112.5759754
  33.8561523  95.0331781 111.7864377  33.1279976  93.8527523 112.3932845
  30.2847259  94.3015560 115.5139518  30.8548616  94.7302828 114.8757002
  30.8755371  94.0198144 116.2123703  32.3292064  90.8767231 109.3849320
  33.0316107  91.3288274 109.8523246  31.9972692  90.2351049 110.0129213
  26.0717398  89.1350783 114.6866453  25.2816452  89.3908312 114.2106564
  26.5628645  89.9499121 114.7918494  40.0881207  96.4756022 117.4371734
  40.9098651  96.0736210 117.1554416  40.0843610  96.3724257 118.3887850
  28.0232143  89.4995363 111.6449930  27.2263307  89.6114057 112.1633426
  27.7957735  89.8382015 110.7790820  48.1787200  92.8194771 113.7856705
  47.4250909  92.2502169 113.6300710  48.3134742  92.7857435 114.7327340
  33.5685829  97.6908173 109.4611425  33.4331503  98.5359709 109.8896273
  34.1095641  97.8927451 108.6977359  27.0215226  95.2083611 110.0339350
  27.5339746  96.0026862 110.1844915  27.6737939  94.5109902 109.9672951
  28.8310111  98.3249368 112.1162103  29.0076739  99.2467332 111.9283087
  29.6266944  98.0107787 112.5456483  32.9721129  85.1857632 123.7146037
  33.7130843  85.7864785 123.6350499  33.2039052  84.4435270 123.1564079
  36.9178292  81.2138735 117.9910318  36.5742561  82.1040377 117.9149429
  37.2857255  81.0240393 117.1279903  24.9864143  93.5372266 110.8098920
  25.8239365  93.9469274 110.5932628  25.1642410  92.5971708 110.7799114
  36.8828575  91.2047346 106.4982753  36.3675198  91.9751951 106.7371141
  36.6105883  90.5312482 107.1215815  34.4675686  86.0497047 111.5567992
  33.6117282  85.6603897 111.3773630  34.8802638  86.1289008 110.6967777
  35.9974832  83.5843390 115.9559552  35.4939628  83.5473525 115.1427357
  36.2905439  84.4936133 116.0156208  32.2417718  83.6682120 114.9625733
  33.1070715  83.4724929 114.6031623  32.3095227  83.4392472 115.8895090
  41.8562849  93.9579701 108.4335927  41.0792292  93.6190860 107.9891089
  42.5354330  93.9632324 107.7590892  36.6714878  89.0774438 108.3242535
  36.3665014  89.3920587 109.1752678  37.6245320  89.1555858 108.3669868
  35.1161310  95.2364662 109.9735489  34.5882671  94.5017421 109.6608726
  34.6148813  96.0139338 109.7275457  40.0954156  93.4313682 115.0902535
  39.4377830  94.1212944 115.1782663  40.8994555  93.8210114 115.4336521
  29.8480037  85.8984328 112.3342100  30.4223789  85.6759509 111.6015293
  30.4351020  85.9673022 113.0870701  38.9059615  91.7858055 113.1406477
  39.4191496  92.4188047 113.6428186  39.5560839  91.1859250 112.7749837
  30.1749625  87.9288789 106.3537985  29.3386937  88.2663475 106.6747260
  30.0354394  87.7937769 105.4165122  32.1502705  82.7725577 111.0617170
  31.4967117  82.4574594 110.4373784  32.1083179  82.1501317 111.7876992
  33.2613910  93.0544872 102.9770462  32.3540972  92.8234125 103.1761611
  33.7584942  92.2582491 103.1644443  36.1681989 101.7642379 105.8967148
  35.4943688 102.0674076 106.5052106  36.5547811 102.5671459 105.5472605
  35.3840446  89.2607510 115.3864817  34.4663007  89.4822457 115.2286505
  35.8000589  89.3353821 114.5276524  36.1675493  90.6598926 110.5167497
  36.9147312  91.1720323 110.2074619  36.4367083  90.3382979 111.3771891
  34.4402143  93.1557467 107.4994452  33.5313363  92.8716500 107.5966921
  34.4697227  93.5756545 106.6397759  39.6721411  96.7664056 111.2685619
  39.2183738  95.9254966 111.3250810  39.0415378  97.4025455 111.6060399
  38.6154330  87.6956042 112.4986287  37.8777087  87.1833429 112.8296529
  38.8681104  87.2556424 111.6869564  38.1154350  98.6040553 112.2035437
  38.4077324  99.1645610 111.4847803  38.6252971  98.8969114 112.9588596
  38.7165958  80.4732294 113.0928056  39.0224835  79.6129658 112.8053971
  39.4418563  81.0649914 112.8927050  25.0090314  90.8762981 111.4809654
  24.8114714  90.2832342 110.7560720  24.4536978  90.5715191 112.1985593
  32.9887037  90.7686087 113.6004247  33.0435647  89.8159924 113.5246724
  32.1778240  90.9245526 114.0845545  34.1378231  94.6966210 104.8382530
  33.6997661  93.9802069 104.3788168  34.8788672  94.9242325 104.2767622
  30.9279397  89.3863147 111.3594626  30.1147263  89.6857318 111.7659818
  31.4238392  88.9918836 112.0769108  33.0787975  99.3820904 113.2928891
  33.0364154  99.6081750 112.3637423  33.9950674  99.1484279 113.4414692
  36.5253609  89.8504972 120.1909520  36.8802997  90.0776445 121.0503986
  37.1725740  90.1823348 119.5686775  42.2551346  92.9723407 110.8958849
  42.1169245  93.1625003 109.9680038  41.8987565  93.7342790 111.3526900
  30.4193472  86.9581503 116.9755861  31.0592851  86.8170262 116.2778824
  29.5871003  86.6716016 116.5994463  42.2820726  95.0399934 115.9070120
  42.7157232  94.9475224 116.7553174  42.9952306  95.0157435 115.2690136
  31.1953776  96.2583933 113.0890853  31.9894375  95.7634253 112.8873428
  30.4845468  95.7301796 112.7258559  36.0148621  98.6402029 117.4403221
  36.0685643  99.2092965 118.2080937  35.1463402  98.8103914 117.0757258
  27.5036540  90.4027015 109.1650606  26.5734128  90.3411470 109.3820568
  27.5994012  89.8802968 108.3687247  27.4222089  86.9281828 111.7528848
  27.6828906  87.8427161 111.6438008  28.2439261  86.4606270 111.9025460
  43.1436275  95.0823635 118.4403006  43.3372165  95.9869446 118.6862281
  43.0436893  94.6231054 119.2741591  34.7972586  84.9681526 120.9393333
  34.1500501  85.6671475 120.8457809  35.5673601  85.4017670 121.3069581
  34.9736720  92.8062291 118.9990153  35.9028780  92.9573450 118.8259120
  34.5527750  92.8946311 118.1438799  33.7725052  96.8312955 116.7688690
  33.6336138  96.4631739 117.6414629  32.9839648  97.3460594 116.5972648
  34.3673204 101.9322052 108.1114227  34.5424960 101.4610095 108.9259850
  33.6805992 102.5587818 108.3395488  35.3230267  96.2094558 114.1577528
  34.9880100  96.1695328 115.0535178  34.8234213  95.5439274 113.6847938
  38.2589459  93.5550592 104.4314588  37.6418629  92.8297420 104.3347641
  37.7905947  94.3159952 104.0881662  39.9143591  98.2649500 122.0920368
  39.8556137  97.5808721 121.4250951  40.3163109  99.0068490 121.6400994
  30.0488005  87.7736016 103.5535892  29.1717471  87.6524817 103.1898139
  30.5245758  86.9822095 103.3014781  39.9160998  96.2289084 120.3234348
  39.0287777  95.8915006 120.4460747  40.4859549  95.4972116 120.5603113
  33.2351931 100.1262307 110.7998413  32.4519453 100.6683987 110.8936637
  33.9344676 100.6436286 111.1992654  36.5448581  85.9356936 113.4432618
  37.0417280  85.1826899 113.1233688  35.7735562  85.9721253 112.8775827
  44.3978338  91.6397302 115.0850910  44.3868215  92.5222017 114.7144843
  43.5295718  91.2868853 114.8905447  37.6278362  94.6928623 111.0171041
  36.6934640  94.8130086 110.8475746  37.8055030  93.7901090 110.7531051
  33.1283550  88.0774319 113.1704303  32.7581337  87.5245360 113.8585208
  33.6242642  87.4732453 112.6179303  41.0150913  90.5345943 111.5521076
  41.4811365  91.3673934 111.4781378  41.4658413  90.0690924 112.2566334
  39.0827144  96.8789764 108.5507228  39.3586988  96.7646359 109.4601102
  38.2131643  96.4807249 108.5119401  38.9867576  82.9026530 115.5911977
  38.0730656  83.1330757 115.7594184  39.4160677  82.9864974 116.4426009
  38.7574034  91.0916422 118.0911871  38.1045484  91.3392329 117.4364324
  39.1354414  90.2780560 117.7574348  35.7181208 101.1276115 112.1940041
  35.9003603 100.3097771 112.6567794  36.5414194 101.3443807 111.7564931
  36.0523374 100.0544300 109.4555090  36.5811140  99.5436755 108.8425252
  36.3151593  99.7386830 110.3200623  28.5248883  85.4878310 119.4157409
  28.5890210  86.3493141 119.0034806  28.4616004  84.8752312 118.6829767
  24.7766699  89.3677872 108.9948798  25.0720140  88.4588550 108.9415851
  23.8754734  89.3465611 108.6729800  36.6852777 101.0885136 115.7999206
  36.5603917 100.2874876 115.2910152  37.3431868 101.5831329 115.3113176
  28.3060946  87.4433868 114.9776346  27.5847531  88.0569836 114.8383820
  29.0954201  87.9791633 114.8992992  38.7487686  98.8894156 117.4278756
  37.8018021  98.7699507 117.3557083  39.0970459  98.0016654 117.5105018
  31.1087259  84.7788295 121.2516998  31.6321661  85.0250591 122.0143307
  30.8899592  85.6108330 120.8320135  26.5054540  87.0491969 109.1188123
  26.1767246  86.1689348 108.9363229  26.8593911  86.9939638 110.0064512
  35.7534119  98.6846872 113.6283108  35.6059081  97.7563579 113.8090679
  36.5787613  98.7066963 113.1440184  29.6196363  87.3364939 109.4863601
  29.9592436  87.8650860 108.7642209  30.0668484  87.6745345 110.2622167
  39.3568241  99.5075431 114.7147981  40.2814788  99.3018292 114.5772432
  39.1883544  99.2591832 115.6237323  32.3139804  85.7201990 118.9366669
  31.9736625  84.9209803 119.3387349  31.6078810  86.0203701 118.3643502
  32.9656276  82.8051302 117.3893992  33.7882345  82.3311780 117.2672882
  33.2094340  83.5841786 117.8892678  31.6064510  85.8339561 107.6856893
  32.3272873  86.2120813 107.1820610  30.9829815  86.5528437 107.7891871
  35.7495633  86.5384710 108.6215226  35.9659248  87.4209348 108.3204054
  35.2689701  86.1470923 107.8920868  30.4894855  89.4970423 115.1985970
  30.3439435  89.8110726 116.0910252  30.0120058  90.1155323 114.6456869
  32.3491238  86.4872971 115.2466860  32.3352806  85.5914064 114.9099158
  33.0663666  86.4943635 115.8805146  34.2017368  86.9210311 117.2919987
  33.9435146  87.8427382 117.2904318  33.6702409  86.5240746 117.9820451
  39.1463557 100.0261098 110.0710073  39.3200435  99.4607521 109.3183925
  39.6392448 100.8261993 109.8889563  31.7528134  85.3687351 110.5154430
  31.8744045  84.4403997 110.7145317  31.4630176  85.3826037 109.6032745
  34.6219324  83.0542262 113.6521150  34.6441021  83.1181595 112.6973129
  35.0387383  82.2146770 113.8461656  45.0002948  92.7897521 111.6900372
  45.4434094  92.0404846 111.2919496  44.1229459  92.7807657 111.3074104
  40.1338730  99.3427863 107.1706971  40.8289634  99.9634555 107.3894286
  40.4761880  98.4923214 107.4459349  42.0330153  96.7927568 108.6994302
  42.5581477  97.1314841 107.9743622  41.9452505  95.8574583 108.5157436
  33.7170813 102.8599551 113.0589555  33.2775804 102.3675930 113.7522412
  34.4678930 102.3172519 112.8181630  41.8421934  94.2752938 121.3178228
  41.8919939  94.1102946 122.2593751  41.7335857  93.4080197 120.9276109
  30.7258193  96.9541484 108.6070317  30.8746313  97.6376948 107.9536990
  31.5324636  96.9346574 109.1219773  39.1325696  90.2583866 122.6337535
  40.0335559  90.1190331 122.3421533  39.2073671  90.4238321 123.5735712
  33.4668502  87.6350721 121.4790721  32.5971811  87.9284287 121.2073310
  33.7027982  88.2191166 122.1997985  43.3440131  96.6949880 121.5620250
  43.0524939  97.0579860 122.3983711  42.7312262  95.9816888 121.3833582
  44.5435813  94.2602759 114.0822820  45.3782704  94.6992563 114.2460380
  44.6794942  93.7841413 113.2631066  41.5927319  91.8182494 120.0300308
  42.0681441  92.0110141 119.2219159  40.6692884  91.8741680 119.7843691
  28.4810826  92.9806661 109.6131386  28.2356867  92.0768991 109.8111596
  28.6506740  92.9823812 108.6710864  36.1707535  83.8530338 118.9956142
  36.6889479  84.5891365 118.6702630  35.8162668  84.1594331 119.8302901
  27.7506473  88.7135019 107.1117547  27.0575718  88.7879374 106.4557583
  27.5058225  87.9495363 107.6339064  36.4220130  80.2730620 114.5157038
  36.7021883  79.6053809 115.1417465  37.2070736  80.4659716 114.0031702
  34.2253598  99.4489614 106.0782065  33.6527565 100.0679801 105.6252536
  34.7986392  99.9988976 106.6121986  40.2928988  88.6948254 118.2628613
  41.2446411  88.7946352 118.2840837  40.1232438  87.9026523 118.7726698
  38.3143367  85.7803838 118.4488014  37.7193299  86.0608850 117.7534503
  38.0293064  86.2697739 119.2204755  37.4450858  99.7326764 107.2090647
  38.3781531  99.6672326 107.4123522  37.3574071 100.5683031 106.7505179
  40.0738875  99.0492635 104.1694594  39.9952506  98.7152498 105.0630352
  40.8948541  99.5414403 104.1686067  42.7717066  91.9154374 117.3770913
  42.7393386  90.9770375 117.5630597  43.3817689  91.9938411 116.6436738
  34.6100397  90.7850427 103.4198117  35.5559501  90.6556635 103.4886535
  34.2314642  90.0465089 103.8967545  42.9211554  88.7065417 117.4229196
  42.4050603  87.9223874 117.2359125  43.8051503  88.3784134 117.5875716
  40.5822281  82.4506433 113.3825009  40.3847102  82.1421521 114.2668341
  41.1921987  83.1768072 113.5122939  48.5893616  92.9770381 116.5176950
  49.3197004  92.7155669 117.0784653  47.9800561  92.2399103 116.5579018
  46.6708913  91.1178243 117.1151401  45.9442076  90.9834208 116.5067893
  46.2556200  91.4255072 117.9208119  32.7943314  88.7100403 103.3553002
  31.8874769  88.4133516 103.4315716  33.0719295  88.4130221 102.4887289
  34.4105379  83.2537293 109.5097244  33.6006108  82.9084378 109.8852490
  35.0989796  82.9444837 110.0984855  36.3395928  82.3315340 111.1321540
  36.8926966  82.7510793 111.7911563  36.5766014  81.4051088 111.1744496
  31.5642098  85.5687339 103.4964981  32.4261262  85.8942237 103.7560799
  31.7492442  84.7818835 102.9838047  39.7174735  84.4415865 110.6400204
  39.1373404  85.1000669 110.2578257  39.4510667  83.6193210 110.2287622
  38.1678301  83.8420923 112.8421525  38.6678080  83.9537457 112.0335844
  38.8113909  83.5381976 113.4822333  38.4999613  86.6015955 109.6956553
  37.6125468  86.8865606 109.4776747  38.9153602  86.4409719 108.8483830
  41.8514149  86.6262476 113.4110892  42.6274539  87.1158929 113.6835509
  41.1262283  87.0520531 113.8682761  44.2886708  87.3390096 114.4684833
  44.8831198  87.0985832 113.7578141  44.3613291  86.6197226 115.0958369
  37.6442826  96.3660630 103.7904573  38.3478676  96.5710633 104.4062228
  36.9205475  96.9337392 104.0553656  38.4740637  92.1170491 109.9106843
  38.4175838  92.5739043 109.0714475  39.0268979  91.3561176 109.7329686
  42.2845442  87.9060223 110.7356962  42.0282377  87.5056859 111.5665170
  41.6598311  88.6204017 110.6107102  46.5957780  90.6456297 113.2428254
  46.0357338  90.7149486 114.0159816  45.9901284  90.4697281 112.5227750
  39.5529524  96.8043159 105.8403033  40.3875128  96.3724358 105.6580508
  39.3913867  96.6325173 106.7679927  39.2075416  93.3075273 107.2059372
  39.1524220  93.1419544 106.2647816  38.5821471  94.0151306 107.3621562
  32.5171541  82.8083382 106.7844690  32.5050211  83.7525222 106.9412961
  33.4094963  82.6253527 106.4904152  36.3323661  79.4026158 111.0390627
  35.5656057  78.8484645 111.1847310  36.7434366  79.4748027 111.9004779
  44.9903505 107.2740239 115.8719734  44.6522017 107.1581303 114.9840269
  45.8593273 106.8731404 115.8520740  40.8490321 109.1275715 111.8616625
  40.2855186 109.0365652 111.0932913  40.7342716 108.3075619 112.3419118
  46.4289880 112.7946683 107.1731090  45.7777859 113.3800763 106.7865104
  47.2234242 113.3252878 107.2326128  40.3545507 109.8835820 107.5718224
  41.1276383 109.3364807 107.4331100  40.7070906 110.7480069 107.7832686
  42.6911784 106.0428486 105.2036674  42.9437305 105.5210007 104.4420137
  41.7536344 105.8794631 105.3063358  47.7355067 105.0464264 113.0111418
  48.5218157 104.6283687 112.6601835  47.9993772 105.9510356 113.1793066
  47.9065145 110.4837115 107.7100074  47.2710978 110.5571741 108.4220979
  47.5762551 111.0730713 107.0319154  53.1363494 104.9839498 113.9144396
  53.8688666 104.4138714 114.1482226  52.3802850 104.5961098 114.3550902
  42.4108073 107.9456592 107.4061049  42.2944331 107.2701495 108.0742134
  42.5210333 107.4588966 106.5893202  44.7539614 107.4066739 111.1107739
  44.3897821 106.8797360 111.8220660  45.6106730 107.0165208 110.9374224
  50.6588915  98.6961072 118.3739005  50.3272240  99.5656483 118.1500220
  50.0634528  98.3797356 119.0533035  44.3945101 102.4356639 106.1069087
  44.5619503 103.3036875 106.4739558  44.2042270 102.5983920 105.1830376
  40.6032916 107.3487414 113.8071622  39.6783412 107.2163629 114.0149314
  40.8517329 108.1281634 114.3041564  44.3734322 104.8914296 107.0915754
  44.2533947 105.3371347 107.9301234  43.6786910 105.2399614 106.5329292
  42.1341214 117.6617938 110.7405885  42.0565244 118.6125763 110.8194366
  41.5302858 117.3163810 111.3980811  50.0719388 105.3635769 107.9196088
  50.9837244 105.5963156 107.7443785  49.5629035 105.9472814 107.3571167
  47.4155363 101.5393805 116.1685949  46.5539842 101.8375059 116.4602686
  47.4417798 101.7564204 115.2366981  44.2316932 110.0835996 112.5759754
  44.6955278 110.3623699 111.7864377  43.9673730 109.1819440 112.3932845
  41.1241013 109.6307477 115.5139518  41.6942370 110.0594746 114.8757002
  41.7149125 109.3490062 116.2123703  43.1685818 106.2059148 109.3849320
  43.8709862 106.6580192 109.8523246  42.8366447 105.5642967 110.0129213
  36.9111152 104.4642701 114.6866453  36.1210206 104.7200229 114.2106564
  37.4022400 105.2791039 114.7918494  38.8625898 104.8287280 111.6449930
  38.0657061 104.9405974 112.1633426  38.6351490 105.1673932 110.7790820
  44.4079583 113.0200091 109.4611425  44.2725258 113.8651627 109.8896273
  44.9489396 113.2219369 108.6977359  37.8608980 110.5375529 110.0339350
  38.3733501 111.3318779 110.1844915  38.5131693 109.8401819 109.9672951
  39.6703865 113.6541285 112.1162103  39.8470493 114.5759250 111.9283087
  40.4660699 113.3399704 112.5456483  47.7572047  96.5430653 117.9910318
  47.4136316  97.4332294 117.9149429  48.1251009  96.3532310 117.1279903
  35.8257897 108.8664183 110.8098920  36.6633119 109.2761192 110.5932628
  36.0036165 107.9263625 110.7799114  47.7222329 106.5339264 106.4982753
  47.2068953 107.3043869 106.7371141  47.4499638 105.8604400 107.1215815
  45.3069440 101.3788965 111.5567992  44.4511037 100.9895815 111.3773630
  45.7196392 101.4580925 110.6967777  46.8368587  98.9135308 115.9559552
  46.3333383  98.8765443 115.1427357  47.1299194  99.8228051 116.0156208
  43.0811473  98.9974038 114.9625733  43.9464470  98.8016846 114.6031623
  43.1488982  98.7684389 115.8895090  52.6956603 109.2871619 108.4335927
  51.9186046 108.9482778 107.9891089  53.3748084 109.2924242 107.7590892
  47.5108632 104.4066356 108.3242535  47.2058768 104.7212505 109.1752678
  48.4639075 104.4847776 108.3669868  45.9555064 110.5656579 109.9735489
  45.4276426 109.8309339 109.6608726  45.4542567 111.3431256 109.7275457
  40.6873792 101.2276246 112.3342100  41.2617544 101.0051427 111.6015293
  41.2744774 101.2964940 113.0870701  49.7453369 107.1149972 113.1406477
  50.2585251 107.7479964 113.6428186  50.3954593 106.5151168 112.7749837
  41.0143379 103.2580707 106.3537985  40.1780691 103.5955393 106.6747260
  40.8748149 103.1229686 105.4165122  42.9896460  98.1017494 111.0617170
  42.3360872  97.7866512 110.4373784  42.9476934  97.4793235 111.7876992
  44.1007664 108.3836790 102.9770462  43.1934726 108.1526043 103.1761611
  44.5978696 107.5874409 103.1644443  47.0075743 117.0934297 105.8967148
  46.3337442 117.3965994 106.5052106  47.3941565 117.8963377 105.5472605
  46.2234200 104.5899428 115.3864817  45.3056761 104.8114375 115.2286505
  46.6394344 104.6645739 114.5276524  47.0069248 105.9890844 110.5167497
  47.7541067 106.5012241 110.2074619  47.2760837 105.6674896 111.3771891
  45.2795898 108.4849384 107.4994452  44.3707117 108.2008417 107.5966921
  45.3090982 108.9048463 106.6397759  49.4548085 103.0247960 112.4986287
  48.7170842 102.5125346 112.8296529  49.7074858 102.5848342 111.6869564
  49.5559712  95.8024212 113.0928056  49.8618589  94.9421575 112.8053971
  50.2812317  96.3941832 112.8927050  35.8484068 106.2054899 111.4809654
  35.6508468 105.6124259 110.7560720  35.2930732 105.9007109 112.1985593
  43.8280792 106.0978005 113.6004247  43.8829402 105.1451841 113.5246724
  43.0171994 106.2537444 114.0845545  44.9771986 110.0258128 104.8382530
  44.5391416 109.3093987 104.3788168  45.7182427 110.2534243 104.2767622
  41.7673152 104.7155065 111.3594626  40.9541017 105.0149235 111.7659818
  42.2632146 104.3210754 112.0769108  53.0945101 108.3015325 110.8958849
  52.9562999 108.4916921 109.9680038  52.7381319 109.0634708 111.3526900
  41.2587227 102.2873420 116.9755861  41.8986606 102.1462179 116.2778824
  40.4264757 102.0007934 116.5994463  42.0347531 111.5875851 113.0890853
  42.8288129 111.0926171 112.8873428  41.3239223 111.0593714 112.7258559
  38.3430294 105.7318932 109.1650606  37.4127882 105.6703388 109.3820568
  38.4387766 105.2094885 108.3687247  38.2615843 102.2573745 111.7528848
  38.5222660 103.1719079 111.6438008  39.0833015 101.7898188 111.9025460
  45.2066959 117.2613969 108.1114227  45.3818714 116.7902012 108.9259850
  44.5199747 117.8879735 108.3395488  49.0983213 108.8842510 104.4314588
  48.4812384 108.1589338 104.3347641  48.6299702 109.6451870 104.0881662
  40.8881759 103.1027934 103.5535892  40.0111226 102.9816735 103.1898139
  41.3639512 102.3114012 103.3014781  44.0745685 115.4554224 110.7998413
  43.2913207 115.9975905 110.8936637  44.7738430 115.9728204 111.1992654
  47.3842335 101.2648854 113.4432618  47.8811035 100.5118816 113.1233688
  46.6129317 101.3013171 112.8775827  48.4672116 110.0220541 111.0171041
  47.5328395 110.1422004 110.8475746  48.6448785 109.1193008 110.7531051
  43.9677304 103.4066237 113.1704303  43.5975092 102.8537277 113.8585208
  44.4636397 102.8024370 112.6179303  51.8544667 105.8637860 111.5521076
  52.3205120 106.6965852 111.4781378  52.3052168 105.3982842 112.2566334
  49.9220899 112.2081682 108.5507228  50.1980742 112.0938276 109.4601102
  49.0525397 111.8099167 108.5119401  49.8261330  98.2318447 115.5911977
  48.9124410  98.4622674 115.7594184  50.2554432  98.3156891 116.4426009
  46.8917128 115.3836218 109.4555090  47.4204894 114.8728672 108.8425252
  47.1545348 115.0678748 110.3200623  39.3642638 100.8170228 119.4157409
  39.4283964 101.6785059 119.0034806  39.3009758 100.2044229 118.6829767
  35.6160453 104.6969789 108.9948798  35.9113894 103.7880468 108.9415851
  34.7148489 104.6757529 108.6729800  39.1454700 102.7725786 114.9776346
  38.4241286 103.3861754 114.8383820  39.9347956 103.3083551 114.8992992
  37.3448295 102.3783887 109.1188123  37.0161001 101.4981266 108.9363229
  37.6987665 102.3231556 110.0064512  40.4590118 102.6656857 109.4863601
  40.7986190 103.1942778 108.7642209  40.9062238 103.0037263 110.2622167
  43.1533559 101.0493907 118.9366669  42.8130379 100.2501721 119.3387349
  42.4472565 101.3495618 118.3643502  43.8050030  98.1343220 117.3893992
  44.6276100  97.6603698 117.2672882  44.0488094  98.9133704 117.8892678
  42.4458265 101.1631478 107.6856893  43.1666627 101.5412731 107.1820610
  41.8223569 101.8820355 107.7891871  46.5889388 101.8676627 108.6215226
  46.8053002 102.7501265 108.3204054  46.1083455 101.4762841 107.8920868
  41.3288609 104.8262341 115.1985970  41.1833190 105.1402644 116.0910252
  40.8513813 105.4447241 114.6456869  43.1884992 101.8164889 115.2466860
  43.1746561 100.9205982 114.9099158  43.9057420 101.8235552 115.8805146
  45.0411123 102.2502229 117.2919987  44.7828901 103.1719299 117.2904318
  44.5096163 101.8532663 117.9820451  42.5921888 100.6979269 110.5154430
  42.7137799  99.7695915 110.7145317  42.3023930 100.7117955 109.6032745
  45.4613078  98.3834179 113.6521150  45.4834775  98.4473512 112.6973129
  45.8781137  97.5438688 113.8461656  50.9732484 114.6719780 107.1706971
  51.6683389 115.2926473 107.3894286  51.3155634 113.8215131 107.4459349
  52.8723907 112.1219486 108.6994302  53.3975231 112.4606759 107.9743622
  52.7846260 111.1866501 108.5157436  41.5651947 112.2833402 108.6070317
  41.7140067 112.9668866 107.9536990  42.3718390 112.2638492 109.1219773
  39.3204580 108.3098579 109.6131386  39.0750622 107.4060909 109.8111596
  39.4900495 108.3115730 108.6710864  47.0101290  99.1822256 118.9956142
  47.5283234  99.9183282 118.6702630  46.6556423  99.4886249 119.8302901
  38.5900228 104.0426937 107.1117547  37.8969472 104.1171292 106.4557583
  38.3451979 103.2787280 107.6339064  47.2613884  95.6022538 114.5157038
  47.5415638  94.9345727 115.1417465  48.0464491  95.7951634 114.0031702
  45.0647353 114.7781532 106.0782065  44.4921320 115.3971719 105.6252536
  45.6380146 115.3280894 106.6121986  48.2844612 115.0618682 107.2090647
  49.2175285 114.9964244 107.4123522  48.1967825 115.8974949 106.7505179
  50.9132629 114.3784552 104.1694594  50.8346261 114.0444416 105.0630352
  51.7342296 114.8706320 104.1686067  45.4494151 106.1142345 103.4198117
  46.3953256 105.9848553 103.4886535  45.0708396 105.3757007 103.8967545
  51.4216036  97.7798351 113.3825009  51.2240857  97.4713439 114.2668341
  52.0315741  98.5059990 113.5122939  43.6337068 104.0392321 103.3553002
  42.7268524 103.7425434 103.4315716  43.9113049 103.7422139 102.4887289
  45.2499134  98.5829211 109.5097244  44.4399862  98.2376296 109.8852490
  45.9383551  98.2736755 110.0984855  47.1789682  97.6607258 111.1321540
  47.7320721  98.0802711 111.7911563  47.4159769  96.7343006 111.1744496
  42.4035853 100.8979256 103.4964981  43.2655017 101.2234155 103.7560799
  42.5886197 100.1110752 102.9838047  50.5568489  99.7707783 110.6400204
  49.9767158 100.4292587 110.2578257  50.2904422  98.9485127 110.2287622
  49.0072056  99.1712840 112.8421525  49.5071834  99.2829375 112.0335844
  49.6507664  98.8673893 113.4822333  49.3393367 101.9307873 109.6956553
  48.4519222 102.2157524 109.4776747  49.7547356 101.7701637 108.8483830
  52.6907903 101.9554394 113.4110892  53.4668294 102.4450847 113.6835509
  51.9656038 102.3812448 113.8682761  55.1280462 102.6682013 114.4684833
  55.7224953 102.4277749 113.7578141  55.2007046 101.9489144 115.0958369
  48.4836581 111.6952548 103.7904573  49.1872431 111.9002550 104.4062228
  47.7599230 112.2629310 104.0553656  49.3134391 107.4462409 109.9106843
  49.2569592 107.9030961 109.0714475  49.8662734 106.6853094 109.7329686
  53.1239197 103.2352141 110.7356962  52.8676131 102.8348777 111.5665170
  52.4992065 103.9495935 110.6107102  50.3923278 112.1335077 105.8403033
  51.2268882 111.7016275 105.6580508  50.2307621 111.9617091 106.7679927
  50.0469170 108.6367190 107.2059372  49.9917974 108.4711462 106.2647816
  49.4215226 109.3443223 107.3621562  43.3565296  98.1375299 106.7844690
  43.3443966  99.0817139 106.9412961  44.2488718  97.9545445 106.4904152
  47.1717415  94.7318076 111.0390627  46.4049811  94.1776563 111.1847310
  47.5828120  94.8039945 111.9004779  51.8537134 118.5872624 106.3537985
  51.0174446 118.9247311 106.6747260  51.7141903 118.4521604 105.4165122
  51.7275514 118.4319852 103.5535892  50.8504980 118.3108653 103.1898139
  52.2033267 117.6405930 103.3014781  49.4293982 119.3718854 107.1117547
  48.7363227 119.4463209 106.4557583  49.1845734 118.6079198 107.6339064
  54.4730823 119.3684239 103.3553002  53.5662278 119.0717351 103.4315716
  54.7506804 119.0714057 102.4887289  53.2429607 116.2271174 103.4964981
  54.1048771 116.5526072 103.7560799  53.4279951 115.4402670 102.9838047
  54.1959050 113.4667217 106.7844690  54.1837720 114.4109057 106.9412961
  55.0882472 113.2837362 106.4904152   3.6500727  32.7828749  92.6212454
   2.9762425  33.0860445  93.2297412   4.0366549  33.5857829  92.2717911
   5.7408197  24.5736962  91.1559894   5.1237367  23.8483790  91.0592947
   5.2724685  25.3346322  90.8126969   7.6157467  30.3614232  93.8952278
   8.3108372  30.9820925  94.1139592   7.9580618  29.5109583  94.1704655
   1.7072336  30.4675984  92.8027371   1.1346303  31.0866171  92.3497843
   2.2805130  31.0175346  93.3367293   4.9269596  30.7513134  93.9335953
   5.8600269  30.6858696  94.1368829   4.8392808  31.5869401  93.4750486
   7.5557612  30.0679004  90.8939901   7.4771244  29.7338868  91.7875659
   8.3767279  30.5600772  90.8931373   5.1261564  27.3847000  90.5149879
   5.8297414  27.5897002  91.1307535   4.4024213  27.9523762  90.7798963
   7.0348261  27.8229529  92.5648339   7.8693865  27.3910727  92.3825814
   6.8732604  27.6511543  93.4925234  15.6632537  38.3399180 102.6603516
  16.3010947  38.2205927 101.9566856  15.5453379  39.2880024 102.7191468
  12.4722243  38.2926608 102.5965041  12.1340754  38.1767673 101.7085576
  13.3412011  37.8917773 102.5766047   8.3309059  40.1462085  98.5861932
   7.7673924  40.0552021  97.8178220   8.2161454  39.3261989  99.0664424
  13.9108617  43.8133052  93.8976397  13.2596597  44.3987133  93.5110410
  14.7052980  44.3439247  93.9571434   7.8364244  40.9022189  94.2963531
   8.6095120  40.3551176  94.1576407   8.1889643  41.7666439  94.5077992
  10.1730522  37.0614856  91.9281981  10.4256043  36.5396377  91.1665444
   9.2355081  36.8981001  92.0308665  15.2173805  36.0650634  99.7356724
  16.0036894  35.6470057  99.3847141  15.4812509  36.9696726  99.9038373
  15.3883882  41.5023484  94.4345381  14.7529715  41.5758111  95.1466286
  15.0581289  42.0917083  93.7564460  20.6182232  36.0025867 100.6389703
  21.3507404  35.4325084 100.8727532  19.8621588  35.6147468 101.0796208
   9.8926811  38.9642961  94.1306356   9.7763069  38.2887865  94.7987440
  10.0029071  38.4775335  93.3138509  12.2358352  38.4253109  97.8353045
  11.8716559  37.8983730  98.5465967  13.0925468  38.0351578  97.6619531
  11.8763839  33.4543008  92.8314394  12.0438241  34.3223245  93.1984865
  11.6861008  33.6170290  91.9075683  14.6339172  41.9159987 104.4980224
  14.3339895  42.8185026 104.3896031  14.2890232  41.6492170 105.3501377
  18.0336316  34.4342527 102.1777661  17.1253193  34.3657936 101.8836422
  17.9823912  34.9114472 103.0059487  11.8553060  35.9100666  93.8161060
  11.7352685  36.3557717  94.6546541  11.1605648  36.2585983  93.2574599
   9.6159952  48.6804308  97.4651192   9.5383982  49.6312133  97.5439672
   9.0121595  48.3350180  98.1226118  17.5538126  36.3822139  94.6441395
  18.4655982  36.6149526  94.4689092  17.0447773  36.9659183  94.0816473
  16.1607708  41.3647957 102.0354976  15.5316571  41.5293672 101.3331044
  15.7733370  41.7789567 102.8065940  20.0396940  42.3002395  99.3899340
  19.3547978  42.6801297  98.8396373  20.1240789  42.9097722 100.1231288
  11.7135670  41.1022365  99.3005061  12.1774016  41.3810068  98.5109684
  11.4492468  40.2005810  99.1178152  10.6504556  37.2245518  96.1094626
  11.3528600  37.6766562  96.5768553  10.3185185  36.5829337  96.7374519
  18.4093700  42.8234310 104.1617041  19.2311143  42.4214497 103.8799722
  18.4056103  42.7202544 105.1133156  26.4999693  39.1673058 100.5102012
  25.7463401  38.5980456 100.3546017  26.6347234  39.1335723 101.4572647
  11.8898321  44.0386460  96.1856731  11.7543996  44.8837996  96.6141579
  12.4308133  44.2405738  95.4222665   5.3427718  41.5561899  96.7584657
   5.8552239  42.3505149  96.9090221   5.9950431  40.8588189  96.6918258
   7.1522603  44.6727655  98.8407410   7.3289231  45.5945619  98.6528394
   7.9479436  44.3586074  99.2701790   8.2753918  46.1905829 104.8417752
   8.8261343  46.0622892 104.0694746   7.4365394  46.4900718 104.4912645
   3.3076635  39.8850553  97.5344227   4.1451857  40.2947561  97.3177935
   3.4854903  38.9449995  97.5044421  15.2041067  37.5525633  93.2228060
  14.6887691  38.3230238  93.4616447  14.9318376  36.8790770  93.8461121
  12.7888178  32.3975334  98.2813298  11.9329774  32.0082185  98.1018937
  13.2015130  32.4767295  97.4213084  20.1775341  40.3057988  95.1581234
  19.4004784  39.9669148  94.7136396  20.8566822  40.3110611  94.4836199
  14.9927370  35.4252726  95.0487841  14.6877506  35.7398875  95.8997984
  15.9457812  35.5034145  95.0915174  13.4373802  41.5842949  96.6980795
  12.9095164  40.8495708  96.3854033  12.9361305  42.3617625  96.4520764
  18.4166648  39.7791969 101.8147841  17.7590323  40.4691231 101.9027970
  19.2207047  40.1688401 102.1581828  17.2272107  38.1336342  99.8651783
  17.7403989  38.7666334 100.3673493  17.8773331  37.5337538  99.4995143
   8.4962117  34.2767076  93.0783292   7.6599429  34.6141763  93.3992567
   8.3566886  34.1416056  92.1410429  11.5826402  39.4023159  89.7015768
  10.6753464  39.1712413  89.9006917  12.0797434  38.6060778  89.8889750
  14.4894481  48.1120666  92.6212454  13.8156180  48.4152363  93.2297412
  14.8760303  48.9149747  92.2717911  14.4887986  37.0077213  97.2412804
  15.2359804  37.5198610  96.9319926  14.7579575  36.6861266  98.1017198
  12.7614636  39.5035754  94.2239758  11.8525855  39.2194787  94.3212228
  12.7909720  39.9234833  93.3643065  17.9933903  43.1142344  97.9930926
  17.5396230  42.2733253  98.0496116  17.3627870  43.7503742  98.3305706
  16.9366823  34.0434330  99.2231593  16.1989579  33.5311716  99.5541836
  17.1893596  33.6034711  98.4114870  16.4366842  44.9518840  98.9280744
  16.7289817  45.5123897  98.2093110  16.9465463  45.2447401  99.6833903
  11.3099530  37.1164375 100.3249554  11.3648140  36.1638211 100.2492030
  10.4990732  37.2723814 100.8090852  12.4590724  41.0444498  91.5627837
  12.0210153  40.3280357  91.1033474  13.2001164  41.2720612  91.0012928
   9.2491890  35.7341434  98.0839933   8.4359755  36.0335605  98.4905125
   9.7450884  35.3397123  98.8014415  11.4000468  45.7299191 100.0174197
  11.3576646  45.9560038  99.0882729  12.3163166  45.4962566 100.1659998
  20.5763838  39.3201695  97.6204155  20.4381737  39.5103291  96.6925345
  20.2200057  40.0821078  98.0772207  20.6033218  41.3878222 102.6315427
  21.0369725  41.2953511 103.4798481  21.3164799  41.3635722 101.9935443
   9.5166268  42.6062220  99.8136160  10.3106867  42.1112540  99.6118735
   8.8057961  42.0780083  99.4503866  14.3361113  44.9880316 104.1648528
  14.3898135  45.5571252 104.9326243  13.4675894  45.1582201 103.8002565
   5.8249032  36.7505302  95.8895913   4.8946620  36.6889758  96.1065875
   5.9206504  36.2281255  95.0932554  21.4648767  41.4301922 105.1648312
  21.6584658  42.3347733 105.4107587  21.3649386  40.9709341 105.9986897
  12.0937544  43.1791242 103.4933997  11.9548630  42.8110027 104.3659935
  11.3052141  43.6938882 103.3217955  12.6885696  48.2800339  94.8359534
  12.8637452  47.8088382  95.6505156  12.0018484  48.9066105  95.0640794
  13.6442759  42.5572845 100.8822835  13.3092592  42.5173615 101.7780485
  13.1446705  41.8917561 100.4093245  16.5801951  39.9028879  91.1559894
  15.9631122  39.1775707  91.0592947  16.1118440  40.6638240  90.8126969
   7.2546782  51.4289702 101.6099394   7.4943380  52.0608226 102.2878412
   6.4115978  51.0777742 101.8964753   8.3700497  34.1214304  90.2781199
   7.4929963  34.0003104  89.9143445   8.8458250  33.3300382  90.0260087
  11.7674643  47.2368824 104.0140898  11.6944815  48.0423795 104.5260202
  11.3252037  47.4360790 103.1888919  11.5564423  46.4740594  97.5243719
  10.7731945  47.0162274  97.6181944  12.2557168  46.9914574  97.9237960
  14.8661073  32.2835223 100.1677925  15.3629773  31.5305186  99.8478995
  14.0948055  32.3199540  99.6021134  22.7190831  37.9875589 101.8096216
  22.7080707  38.8700304 101.4390149  21.8508210  37.6347140 101.6150753
  14.2273327  47.1355658 106.1699056  14.9401299  47.7703123 106.0974958
  13.7363356  47.2319524 105.3539058  15.9490854  41.0406911  97.7416348
  15.0147133  41.1608373  97.5721052  16.1267522  40.1379377  97.4776358
  19.3363405  36.8824230  98.2766382  19.8023857  37.7152222  98.2026685
  19.7870906  36.4169212  98.9811641  17.4039636  43.2268051  95.2752534
  17.6799480  43.1124646  96.1846408  16.5344135  42.8285536  95.2364707
  14.0393700  47.4754402  98.9185348  14.2216095  46.6576058  99.3813100
  14.8626686  47.6922094  98.4810238  14.3735866  46.4022587  96.1800396
  14.9023632  45.8915042  95.5670558  14.6364085  46.0865117  97.0445929
   7.7291614  47.4537704  98.9398172   7.0601989  47.9383832  98.4562212
   7.5904483  47.7006924  99.8541551  11.8696882  49.4881447 105.5380831
  12.4215190  49.6513069 106.3029916  12.2103076  50.0785885 104.8660855
   3.0979191  35.7156159  95.7194104   3.3932632  34.8066837  95.6661158
   2.1967227  35.6943898  95.3975107  15.0065270  47.4363423 102.5244513
  14.8816409  46.6353163 102.0155458  15.6644361  47.9309616 102.0358483
  17.0700178  45.2372443 104.1524063  16.1230514  45.1177794 104.0802390
  17.4182951  44.3494941 104.2350324   4.8267032  33.3970257  95.8433430
   4.4979739  32.5167635  95.6608535   5.1806403  33.3417925  96.7309819
  14.0746611  45.0325159 100.3528415  13.9271574  44.1041867 100.5335985
  14.9000105  45.0545250  99.8685490   7.9408856  33.6843226  96.2108907
   8.2804928  34.2129148  95.4887516   8.3880976  34.0223632  96.9867474
  17.6780733  45.8553718 101.4393288  18.6027281  45.6496579 101.3017739
  17.5096037  45.6070119 102.3482629   9.9277003  32.1817848  94.4102200
  10.6485365  32.5599101  93.9065917   9.3042307  32.9006725  94.5137178
  14.0708126  32.8862997  95.3460532  14.2871740  33.7687635  95.0449360
  13.5902193  32.4949210  94.6166174  17.4676049  46.3739385  96.7955379
  17.6412927  45.8085808  96.0429232  17.9604941  47.1740280  96.6134869
  10.0740626  31.7165638  97.2399737  10.1956537  30.7882285  97.4390624
   9.7842668  31.7304324  96.3278052  23.3215441  39.1375808  98.4145679
  23.7646587  38.3883134  98.0164802  22.4441951  39.1285945  98.0319411
  18.4551222  45.6906150  93.8952278  19.1502127  46.3112843  94.1139592
  18.7974372  44.8401501  94.1704655  20.3542645  43.1405855  95.4239608
  20.8793969  43.4793128  94.6988928  20.2664998  42.2052871  95.2402743
  12.0383306  49.2077839  99.7834862  11.5988296  48.7154217 100.4767718
  12.7891423  48.6650806  99.5426937   4.5175645  45.3989379  99.7859490
   5.3433665  45.0993151  99.4058133   4.1669697  44.6297002 100.2349278
   9.4857178  44.7515848 101.8557163   8.8637187  44.0886553 101.5559391
  10.1562045  44.7776980 101.1730811   2.7184250  43.3175706 100.7448423
   1.8816158  42.8897880 100.5632424   2.6907895  43.5108149 101.6819214
   9.0470685  43.3019771  95.3315624   9.1958805  43.9855235  94.6782296
   9.8537128  43.2824861  95.8465079  21.6652623  43.0428167 108.2865556
  21.3737431  43.4058147 109.1229017  21.0524754  42.3295175 108.1078888
  22.8648305  40.6081047 100.8068127  23.6995197  41.0470851 100.9705687
  23.0007434  40.1319700  99.9876372   6.8023318  39.3284949  96.3376693
   6.5569360  38.4247279  96.5356903   6.9719232  39.3302099  95.3956171
   6.0718965  35.0613306  93.8362854   5.3788210  35.1357661  93.1802890
   5.8270717  34.2973650  94.3584371  12.5466090  45.7967901  92.8027371
  11.9740057  46.4158089  92.3497843  13.1198884  46.3467263  93.3367293
  15.7663350  46.0805052  93.9335953  16.6994023  46.0150613  94.1368829
  15.6786563  46.9161318  93.4750486  18.3951367  45.3970922  90.8939901
  18.3164998  45.0630786  91.7875659  19.2161034  45.8892690  90.8931373
  21.0929558  38.2632661 104.1016220  21.0605878  37.3248662 104.2875903
  21.7030182  38.3416698 103.3682045  12.9312889  37.1328714  90.1443424
  13.8771994  37.0034922  90.2131842  12.5527134  36.3943376  90.6212852
  26.9106108  39.3248668 103.2422256  27.6409496  39.0633956 103.8029960
  26.3013053  38.5877390 103.2824324  24.9921405  37.4656531 103.8396708
  24.2654569  37.3312496 103.2313199  24.5768692  37.7733359 104.6453426
  11.1155806  35.0578691  90.0798309  10.2087261  34.7611803  90.1561022
  11.3931787  34.7608509  89.2132595  12.7317872  29.6015580  96.2342550
  11.9218600  29.2562665  96.6097796  13.4202289  29.2923124  96.8230162
   9.8854591  31.9165626  90.2210288  10.7473755  32.2420524  90.4806105
  10.0704935  31.1297122  89.7083354  18.0387227  30.7894152  97.3645511
  17.4585896  31.4478956  96.9823563  17.7723160  29.9671497  96.9532929
  16.8212105  32.9494243  96.4201859  15.9337960  33.2343893  96.2022054
  17.2366094  32.7888006  95.5729136  20.1726641  32.9740764 100.1356199
  20.9487031  33.4637216 100.4080815  19.4474775  33.3998818 100.5928068
  22.6099200  33.6868383 101.1930139  23.2043691  33.4464119 100.4823447
  22.6825784  32.9675513 101.8203676   4.8296356  47.5301994 101.5073304
   4.6950824  46.7702395 100.9411302   4.4128418  48.2542894 101.0402093
  15.9655319  42.7138917  90.5149879  16.6691169  42.9188920  91.1307535
  15.2417967  43.2815679  90.7798963  16.7953129  38.4648779  96.6352150
  16.7388330  38.9217330  95.7959782  17.3481471  37.7039463  96.4574992
  20.6057935  34.2538511  97.4602269  20.3494869  33.8535146  98.2910477
  19.9810803  34.9682304  97.3352408  24.9170273  36.9934584  99.9673560
  24.3569831  37.0627773 100.7405122  24.3113776  36.8175568  99.2473057
   7.9865481  48.4271311 101.7191747   7.8697866  49.3716743 101.6170437
   7.1657928  48.1244872 102.1077546  17.8742016  43.1521447  92.5648339
  18.7087620  42.7202645  92.3825814  17.7126359  42.9803460  93.4925234
  17.5287908  39.6553560  93.9304679  17.4736712  39.4897831  92.9893123
  16.9033963  40.3629593  94.0866868  10.8384034  29.1561669  93.5089997
  10.8262703  30.1003509  93.6658268  11.7307455  28.9731814  93.2149458
   9.0119996  49.0799573 104.9347675   9.9147242  49.1123183 105.2514170
   8.7857366  48.1500024 104.9494011  10.7673598  47.8330559 101.5957754
   9.8169229  47.8332421 101.4822126  11.0706084  47.0863294 101.0793788
  26.5026291  53.6691098 102.6603516  27.1404701  53.5497845 101.9566856
  26.3847134  54.6171942 102.7191468  23.3115997  53.6218526 102.5965041
  22.9734509  53.5059590 101.7085576  24.1805766  53.2209691 102.5766047
  19.1702813  55.4754002  98.5861932  18.6067678  55.3843939  97.8178220
  19.0555208  54.6553907  99.0664424  23.7935780  54.7753378 108.5551246
  23.7824421  54.3806176 107.6831750  23.9556420  54.0419450 109.1485018
  16.7167245  56.9705194 101.4246152  17.5088537  56.6296018 101.0092452
  16.9563895  57.0800169 102.3448306  24.7502372  59.1424970  93.8976397
  24.0990352  59.7279050  93.5110410  25.5446735  59.6731165  93.9571434
  18.6757999  56.2314107  94.2963531  19.4488875  55.6843094  94.1576407
  19.0283398  57.0958356  94.5077992  20.5143041  57.5590489 107.5030430
  20.2232907  58.4636120 107.3877097  21.1500026  57.6007017 108.2174500
  21.4399248  54.9367338 104.0931790  22.0362821  54.7123360 103.3788753
  21.4974220  54.1952083 104.6957238  21.0124277  52.3906773  91.9281981
  21.2649797  51.8688294  91.1665444  20.0748836  52.2272919  92.0308665
  26.0567560  51.3942552  99.7356724  26.8430649  50.9761975  99.3847141
  26.3206264  52.2988644  99.9038373  31.4575987  51.3317785 100.6389703
  32.1901159  50.7617002 100.8727532  30.7015342  50.9439385 101.0796208
  20.7320565  54.2934879  94.1306356  20.6156824  53.6179783  94.7987440
  20.8422825  53.8067253  93.3138509  23.0752106  53.7545026  97.8353045
  22.7110314  53.2275647  98.5465967  23.9319222  53.3643495  97.6619531
  28.9801407  45.0439359 105.0984311  28.6484732  45.9134770 104.8745526
  28.3847020  44.7275643 105.7778342  22.7157593  48.7834926  92.8314394
  22.8831996  49.6515162  93.1984865  22.5254762  48.9462208  91.9075683
  25.4732927  57.2451905 104.4980224  25.1733650  58.1476944 104.3896031
  25.1283986  56.9784088 105.3501377  18.9245408  53.6965702 100.5316928
  17.9995905  53.5641916 100.7394620  19.1729821  54.4759921 101.0286871
  28.8730070  49.7634445 102.1777661  27.9646948  49.6949853 101.8836422
  28.8217666  50.2406390 103.0059487  22.6946814  51.2392583  93.8161060
  22.5746439  51.6849634  94.6546541  21.9999403  51.5877901  93.2574599
  16.2854219  53.3398975 101.3660718  16.4146600  53.5933454 102.2800129
  15.6051670  53.9326683 101.0465373  20.4553706  64.0096225  97.4651192
  20.3777736  64.9604050  97.5439672  19.8515350  63.6642098  98.1226118
  22.9470936  51.1824091 110.1212559  22.1704270  51.7418011 110.1115423
  23.5861499  51.6680874 110.6427429  30.7391717  47.9650883 103.9555535
  30.0966097  48.2583417 103.3095330  30.2346645  47.8503804 104.7608732
  28.3931880  51.7114057  94.6441395  29.3049737  51.9441443  94.4689092
  27.8841527  52.2951101  94.0816473  21.2017308  53.9909544 109.6830526
  21.9431993  54.5294588 109.4065349  20.4954294  54.6175833 109.8402077
  26.6772648  56.1338684 108.2802687  27.0856004  55.6921095 107.5357319
  25.9549910  55.5591312 108.5336880  23.0303718  51.0711291 105.6536244
  23.8764913  51.4950705 105.7970893  22.9702356  50.4144916 106.3474807
  27.0001463  56.6939875 102.0354976  26.3710325  56.8585589 101.3331044
  26.6127125  57.1081485 102.8065940  26.1803163  48.7315660 107.3117418
  25.9364095  49.4857720 106.7751693  26.4563094  49.1101007 108.1464665
  28.1341626  55.2754272 105.9894683  28.3458521  55.9186032 105.3129064
  28.0871374  54.4416588 105.5216613  25.7367855  47.8872093 102.8931255
  24.8752334  48.1853346 103.1847993  25.7630290  48.1042491 101.9612288
  22.5529425  56.4314283  99.3005061  23.0167770  56.7101986  98.5109684
  22.2886223  55.5297728  99.1178152  19.4453506  55.9785765 102.2384824
  20.0154863  56.4073033 101.6002309  20.0361618  55.6968349 102.9369010
  21.4898311  52.5537436  96.1094626  22.1922354  53.0058479  96.5768553
  21.1578939  51.9121254  96.7374519  19.9378672  51.1449192 110.4845836
  19.3077333  51.8265473 110.7181232  19.8314760  51.0332274 109.5398974
  15.2323645  50.8120988 101.4111760  14.4422699  51.0678517 100.9351870
  15.7234892  51.6269326 101.5163800  29.2487454  58.1526227 104.1617041
  30.0704898  57.7506415 103.8799722  29.2449857  58.0494462 105.1133156
  17.1838390  51.1765567  98.3695237  16.3869553  51.2884262  98.8878732
  16.9563982  51.5152220  97.5036127  23.0144058  57.7010271 106.3177751
  23.0788490  58.1630678 107.1535923  22.3054982  57.0707636 106.4460061
  13.5161348  51.0651479 103.8426751  13.7669386  51.9498489 104.1084327
  14.0520896  50.8856080 103.0701842  22.7292075  59.3678378  96.1856731
  22.5937750  60.2129914  96.6141579  23.2701888  59.5697656  95.4222665
  16.1821473  56.8853816  96.7584657  16.6945993  57.6797066  96.9090221
  16.8344186  56.1880107  96.6918258  17.9916357  60.0019572  98.8407410
  18.1682986  60.9237537  98.6528394  18.7873191  59.6877992  99.2701790
  22.1327376  46.8627837 110.4391343  22.8737089  47.4634990 110.3595806
  22.3645299  46.1205475 109.8809386  17.2768714  52.0484204 108.7169573
  17.1622229  51.1469462 109.0176672  16.4213232  52.2947901 108.3654389
  24.3560552  59.9901945 110.3157074  23.9124406  59.2038323 109.9977978
  25.0177765  60.1781095 109.6500964  19.1147673  61.5197746 104.8417752
  19.6655098  61.3914810 104.0694746  18.2759149  61.8192635 104.4912645
  26.4541790  60.2704745 108.3438475  26.4360265  61.0913626 107.8518744
  27.3761710  60.1458820 108.5688616  22.9114844  57.7848874 109.1861983
  23.4443181  57.0237162 108.9561291  22.3828925  57.4922526 109.9286138
  26.0784539  42.8908940 104.7155625  25.7348808  43.7810582 104.6394736
  26.4463501  42.7010598 103.8525210  14.1470389  55.2142470  97.5344227
  14.9845611  55.6239479  97.3177935  14.3248657  54.2741913  97.5044421
  26.0434822  52.8817551  93.2228060  25.5281445  53.6522156  93.4616447
  25.7712130  52.2082687  93.8461121  23.6281933  47.7267252  98.2813298
  22.7723529  47.3374102  98.1018937  24.0408884  47.8059213  97.4213084
  25.1581079  45.2613595 102.6804858  24.6545875  45.2243730 101.8672663
  25.4511686  46.1706338 102.7401515  21.4023965  45.3452325 101.6871040
  22.2676962  45.1495134 101.3276929  21.4701474  45.1162677 102.6140397
  25.8321125  50.7544643  95.0487841  25.5271260  51.0690792  95.8997984
  26.7851567  50.8326063  95.0915174  24.2767557  56.9134867  96.6980795
  23.7488918  56.1787626  96.3854033  23.7755059  57.6909543  96.4520764
  29.2560403  55.1083887 101.8147841  28.5984077  55.7983148 101.9027970
  30.0600802  55.4980319 102.1581828  19.0086284  47.5754533  99.0587407
  19.5830036  47.3529714  98.3260600  19.5957267  47.6443227  99.8116008
  28.0665861  53.4628260  99.8651783  28.5797743  54.0958252 100.3673493
  28.7167085  52.8629455  99.4995143  19.3355871  49.6058994  93.0783292
  18.4993184  49.9433680  93.3992567  19.1960641  49.4707974  92.1410429
  21.3108952  44.4495782  97.7862476  20.6573364  44.1344799  97.1619091
  21.2689426  43.8271522  98.5122299  22.4220157  54.7315077  89.7015768
  21.5147219  54.5004330  89.9006917  22.9191189  53.9352696  89.8889750
  25.3288236  63.4412584  92.6212454  24.6549934  63.7444281  93.2297412
  25.7154058  64.2441664  92.2717911  24.5446692  50.9377715 102.1110124
  23.6269254  51.1592662 101.9531812  24.9606836  51.0124026 101.2521831
  25.3281740  52.3369131  97.2412804  26.0753559  52.8490528  96.9319926
  25.5973330  52.0153184  98.1017198  23.6008390  54.8327672  94.2239758
  22.6919609  54.5486704  94.3212228  23.6303474  55.2526750  93.3643065
  27.7760577  49.3726247  99.2231593  27.0383334  48.8603633  99.5541836
  28.0287351  48.9326629  98.4114870  27.2760597  60.2810758  98.9280744
  27.5683571  60.8415815  98.2093110  27.7859217  60.5739319  99.6833903
  27.8772205  42.1502499  99.8173363  28.1831081  41.2899863  99.5299278
  28.6024809  42.7420119  99.6172357  14.1696561  52.5533186  98.2054961
  13.9720960  51.9602547  97.4806027  13.6143225  52.2485396  98.9230899
  22.1493284  52.4456292 100.3249554  22.2041894  51.4930129 100.2492030
  21.3384486  52.6015731 100.8090852  23.2984478  56.3736415  91.5627837
  22.8603908  55.6572274  91.1033474  24.0394919  56.6012530  91.0012928
  20.0885644  51.0633352  98.0839933  19.2753510  51.3627523  98.4905125
  20.5844638  50.6689041  98.8014415  22.2394222  61.0591109 100.0174197
  22.1970401  61.2851955  99.0882729  23.1556921  60.8254484 100.1659998
  25.6859856  51.5275177 106.9154826  26.0409244  51.7546650 107.7749292
  26.3331987  51.8593553 106.2932082  19.5799719  48.6351708 103.7001167
  20.2199098  48.4940467 103.0024131  18.7477249  48.3486221 103.3239769
  20.3560023  57.9354138  99.8136160  21.1500621  57.4404458  99.6118735
  19.6451715  57.4072001  99.4503866  25.1754867  60.3172234 104.1648528
  25.2291890  60.8863170 104.9326243  24.3069649  60.4874119 103.8002565
  16.6642786  52.0797220  95.8895913  15.7340374  52.0181675  96.1065875
  16.7600258  51.5573172  95.0932554  16.5828335  48.6052033  98.4774154
  16.8435153  49.5197366  98.3683315  17.4045508  48.1376475  98.6270767
  18.0553261  50.0189790 105.6472979  18.7276314  49.8107152 104.9985628
  17.2283047  49.8211876 105.2078211  23.9578833  46.6451731 107.6638640
  23.3106748  47.3441680 107.5703116  24.7279848  47.0787875 108.0314888
  27.3657631  56.9100583 110.7389193  27.2143137  56.6811134 109.8219277
  27.3562310  57.8671184 110.7520538  24.1342967  54.4832496 105.7235459
  25.0635027  54.6343655 105.5504427  23.7133997  54.5716516 104.8684106
  22.9331299  58.5083160 103.4933997  22.7942385  58.1401944 104.3659935
  22.1445895  59.0230799 103.3217955  23.5279451  63.6092256  94.8359534
  23.7031206  63.1380300  95.6505156  22.8412239  64.2358023  95.0640794
  24.4836514  57.8864763 100.8822835  24.1486347  57.8465533 101.7780485
  23.9840460  57.2209479 100.4093245  18.4580758  53.2932393 106.4075416
  18.3200556  52.5612632 107.0086955  19.3685681  53.2041293 106.1259604
  27.4195706  55.2320797  91.1559894  26.8024876  54.5067625  91.0592947
  26.9512194  55.9930157  90.8126969  21.0863059  53.0052352 105.8959096
  21.7962677  52.3645544 105.8545714  21.0432367  53.2565247 106.8185276
  29.0749837  59.9419705 108.8165675  29.0162383  59.2578925 108.1496258
  29.4769356  60.6838695 108.3646301  19.7991993  49.9917570 107.7154735
  19.2629350  49.5408308 108.3676331  19.2108701  50.1263479 106.9725199
  18.0940536  66.7581619 101.6099394  18.3337134  67.3900143 102.2878412
  17.2509733  66.4069659 101.8964753  19.2094252  49.4506221  90.2781199
  18.3323718  49.3295022  89.9143445  19.6852005  48.6592300  90.0260087
  29.0767245  57.9059289 107.0479655  28.1894023  57.5685211 107.1706053
  29.6465796  57.1742321 107.2848420  10.7296392  54.2383381 100.3722706
  11.4167432  53.9245111  99.7843721  10.5744520  55.1424746 100.0989957
  15.5331114  49.1273578 104.8007730  15.4489303  48.5199247 104.0658140
  14.7113820  49.6182596 104.8017226  22.6068398  62.5660742 104.0140898
  22.5338569  63.3715713 104.5260202  22.1645791  62.7652707 103.1888919
  22.3958178  61.8032512  97.5243719  21.6125699  62.3454192  97.6181944
  23.0950923  62.3206491  97.9237960  25.7054828  47.6127141 100.1677925
  26.2023527  46.8597103  99.8478995  24.9341809  47.6491458  99.6021134
  25.0667081  62.4647576 106.1699056  25.7795054  63.0995040 106.0974958
  24.5757110  62.5611442 105.3539058  26.7884608  56.3698828  97.7416348
  25.8540887  56.4900291  97.5721052  26.9661277  55.4671295  97.4776358
  22.2889796  49.7544524  99.8949609  21.9187584  49.2015564 100.5830515
  22.7848889  49.1502658  99.3424609  30.1757160  52.2116148  98.2766382
  30.6417612  53.0444139  98.2026685  30.6264660  51.7461129  98.9811641
  20.1178995  60.2142019 106.9904627  20.8188454  60.8478502 107.1434021
  19.6474110  60.5556751 106.2300266  28.1473822  44.5796735 102.3157284
  27.2336902  44.8100961 102.4839490  28.5766924  44.6635179 103.1671316
  27.9180281  52.7686627 104.8157178  27.2651731  53.0162534 104.1609630
  28.2960661  51.9550765 104.4819655  24.8787455  62.8046320  98.9185348
  25.0609849  61.9867976  99.3813100  25.7020441  63.0214012  98.4810238
  25.2129620  61.7314505  96.1800396  25.7417387  61.2206959  95.5670558
  25.4757840  61.4157035  97.0445929  23.9667854  53.5106438 111.3023215
  23.2908491  53.4100567 111.9725590  24.7895488  53.3545651 111.7659212
  15.7146713  59.7478374 103.9235730  16.3000150  59.0022062 104.0563634
  15.5171552  60.0582331 104.8072394  18.5685368  62.7829622  98.9398172
  17.8995744  63.2675749  98.4562212  18.4298238  63.0298842  99.8541551
  10.3064368  52.3183974 102.6440173  10.3448467  51.7847565 103.4377291
   9.8004661  51.7919180 102.0251150  22.7090637  64.8173365 105.5380831
  23.2608945  64.9804987 106.3029916  23.0496830  65.4077803 104.8660855
  17.6855130  47.1648515 106.1402715  17.7496457  48.0263346 105.7280113
  17.6222250  46.5522517 105.4075074  17.1607403  49.2371647 109.7875750
  17.7879441  48.8548725 110.4013274  16.3035321  49.0185849 110.1531442
  27.5601511  59.6434623 111.3929485  28.1041415  60.2564581 110.8984440
  26.9788356  60.2014201 111.9096498  13.9372945  51.0448077  95.7194104
  14.2326386  50.1358755  95.6661158  13.0360981  51.0235816  95.3975107
  25.8459024  62.7655341 102.5244513  25.7210164  61.9645080 102.0155458
  26.5038115  63.2601534 102.0358483  17.4667192  49.1204073 101.7021653
  16.7453778  49.7340041 101.5629126  18.2560448  49.6561838 101.6238299
  27.9093933  60.5664361 104.1524063  26.9624268  60.4469712 104.0802390
  28.2576706  59.6786859 104.2350324  20.2693506  46.4558500 107.9762305
  20.7927908  46.7020796 108.7388614  20.0505839  47.2878534 107.5565442
  15.6660787  48.7262174  95.8433430  15.3373493  47.8459553  95.6608535
  16.0200158  48.6709843  96.7309819  24.9140366  60.3617077 100.3528415
  24.7665328  59.4333784 100.5335985  25.7393859  60.3837168  99.8685490
  18.7802610  49.0135144  96.2108907  19.1198683  49.5421065  95.4887516
  19.2274731  49.3515550  96.9867474  21.4746051  47.3972195 105.6611975
  21.1342871  46.5980008 106.0632655  20.7685057  47.6973906 105.0888808
  22.1262523  44.4821507 104.1139298  22.9488592  44.0081985 103.9918189
  22.3700586  45.2611991 104.6137985  20.7670757  47.5109766  94.4102200
  21.4879120  47.8891018  93.9065917  20.1436061  48.2298642  94.5137178
  24.9101880  48.2154915  95.3460532  25.1265495  49.0979552  95.0449360
  24.4295947  47.8241128  94.6166174  19.6501102  51.1740628 101.9231277
  19.5045682  51.4880931 102.8155558  19.1726305  51.7925528 101.3702176
  21.5097484  48.1643176 101.9712166  21.4959053  47.2684269 101.6344464
  22.2269913  48.1713840 102.6050453  23.3623615  48.5980516 104.0165294
  23.1041393  49.5197587 104.0149624  22.8308656  48.2010951 104.7065758
  14.1246764  53.7145972 104.8618938  13.5800232  54.4905780 104.9939212
  15.0026114  54.0616777 104.7038060  20.9134380  47.0457556  97.2399737
  21.0350292  46.1174202  97.4390624  20.6236423  47.0596242  96.3278052
  23.7825571  44.7312466 100.3766456  23.8047268  44.7951800  99.4218436
  24.1993630  43.8916975 100.5706963  14.9112786  52.8415868 107.7549095
  14.1694522  52.9898504 108.3413725  14.5905530  53.1024134 106.8915844
  22.8556448  62.3831847 107.5529485  23.1643575  62.1380993 108.4252185
  23.6531930  62.5878485 107.0648355  22.8777060  64.5369756  99.7834862
  22.4382051  64.0446135 100.4767718  23.6285177  63.9942724  99.5426937
  15.3569399  60.7281297  99.7859490  16.1827419  60.4285069  99.4058133
  15.0063451  59.9588920 100.2349278  20.3250932  60.0807765 101.8557163
  19.7030942  59.4178470 101.5559391  20.9955799  60.1068897 101.1730811
  13.5578004  58.6467624 100.7448423  12.7209913  58.2189798 100.5632424
  13.5301650  58.8400067 101.6819214  20.3975460  48.5589553 111.4489669
  20.4463615  49.4351676 111.0667439  20.9397974  48.0166946 110.8761312
  30.8830306  59.1030677 110.7290806  30.0925849  59.0854816 110.1895306
  30.6463660  59.6418970 111.4839843  31.0028181  55.9523143 108.0423535
  31.0526186  55.7873150 108.9839058  30.8942104  55.0850402 107.6521416
  19.8864439  58.6311689  95.3315624  20.0352560  59.3147153  94.6782296
  20.6930883  58.6116779  95.8465079  28.2931943  51.9354071 109.3582842
  29.1941806  51.7960536 109.0666839  28.3679918  52.1008526 110.2981019
  22.6274748  49.3120926 108.2036028  21.7578058  49.6054492 107.9318616
  22.8634229  49.8961371 108.9243292  32.5046377  58.3720085 108.2865556
  32.2131186  58.7350065 109.1229017  31.8918509  57.6587093 108.1078888
  30.7533566  53.4952699 106.7545614  31.2287687  53.6880345 105.9464466
  29.8299131  53.5511885 106.5088998  17.6417072  54.6576866  96.3376693
  17.3963114  53.7539196  96.5356903  17.8112987  54.6594017  95.3956171
  25.3313782  45.5300543 105.7201448  25.8495726  46.2661570 105.3947937
  24.9768915  45.8364536 106.5548207  16.9112720  50.3905224  93.8362854
  16.2181965  50.4649579  93.1802890  16.6664472  49.6265568  94.3584371
  25.5826376  41.9500825 101.2402345  25.8628130  41.2824014 101.8662771
  26.3676983  42.1429921 100.7277009  23.3859845  61.1259819  92.8027371
  22.8133812  61.7450006  92.3497843  23.9592639  61.6759181  93.3367293
  29.4535235  50.3718459 104.9873920  30.4052658  50.4716557 105.0086144
  29.2838685  49.5796728 105.4972004  27.4749614  47.4574042 105.1733321
  26.8799546  47.7379055 104.4779810  27.1899311  47.9467943 105.9450062
  29.2345121  60.7262840  90.8939901  29.1558753  60.3922703  91.7875659
  30.0554788  61.2184608  90.8931373  31.9323312  53.5924579 104.1016220
  31.8999633  52.6540580 104.2875903  32.5423936  53.6708616 103.3682045
  23.7706643  52.4620632  90.1443424  24.7165748  52.3326840  90.2131842
  23.3920888  51.7235294  90.6212852  32.0817801  50.3835622 104.1474503
  31.5656850  49.5994079 103.9604432  32.9657749  50.0554339 104.3121022
  29.7428528  44.1276638 100.1070315  29.5453349  43.8191726 100.9913647
  30.3528233  44.8538277 100.2368245  23.6545336  56.5138378 111.6044081
  24.5748345  56.6916977 111.7984127  23.6194919  55.5694423 111.4523780
  21.9549560  50.3870608  90.0798309  21.0481016  50.0903721  90.1561022
  22.2325541  50.0900426  89.2132595  12.8727501  51.7076972 100.5297355
  12.5530285  50.8542280 100.2371729  12.3260929  51.9225550 101.2855323
  16.6507408  54.4239413 104.2466862  16.8693418  55.3556521 104.2654896
  17.0633182  54.0647387 105.0321666  23.5711626  44.9307498  96.2342550
  22.7612355  44.5854583  96.6097796  24.2596043  44.6215042  96.8230162
  25.5002174  44.0085545  97.8566847  26.0533213  44.4280998  98.5156870
  25.7372261  43.0821293  97.8989803  20.7248345  47.2457544  90.2210288
  21.5867509  47.5712442  90.4806105  20.9098689  46.4589039  89.7083354
  12.7415761  55.3279883 102.4990477  12.0479232  54.9133836 101.9860431
  13.4888752  55.3700420 101.9023896  28.8780982  46.1186070  97.3645511
  28.2979651  46.7770874  96.9823563  28.6116914  45.2963415  96.9532929
  27.3284548  45.5191128  99.5666831  27.8284326  45.6307662  98.7581150
  27.9720156  45.2152181 100.2067640  21.3866544  53.4269757 112.4534672
  20.9033625  54.2270117 112.6598561  21.4727483  53.4377702 111.5002116
  14.6552503  55.2598137 100.3756492  14.6323192  55.3585824  99.4238375
  14.9653140  56.1063288 100.6973658  17.3139881  57.3174292 104.4903106
  18.2683135  57.2858234 104.4233038  17.1152405  56.8564916 105.3053332
  17.9039263  55.8875408 107.0573904  18.7232152  56.3819487 107.0808741
  18.1776071  54.9707376 107.0291471  27.6605860  48.2786160  96.4201859
  26.7731715  48.5635811  96.2022054  28.0759849  48.1179924  95.5729136
  31.0120396  48.3032681 100.1356199  31.7880786  48.7929134 100.4080815
  30.2868530  48.7290736 100.5928068  33.4492954  49.0160301 101.1930139
  34.0437445  48.7756037 100.4823447  33.5219538  48.2967431 101.8203676
  15.6690110  62.8593912 101.5073304  15.5344578  62.0994312 100.9411302
  15.2522172  63.5834811 101.0402093  26.8049073  58.0430835  90.5149879
  27.5084923  58.2480838  91.1307535  26.0811722  58.6107597  90.7798963
  27.6346883  53.7940696  96.6352150  27.5782085  54.2509248  95.7959782
  28.1875226  53.0331381  96.4574992  31.4451689  49.5830428  97.4602269
  31.1888623  49.1827064  98.2910477  30.8204557  50.2974222  97.3352408
  18.8259236  63.7563229 101.7191747  18.7091620  64.7008661 101.6170437
  18.0051682  63.4536790 102.1077546  13.1574178  50.2213542 107.7566101
  13.8033041  49.7112496 108.2453326  12.9491329  50.9582224 108.3309526
  25.6827570  57.2894389 113.2558241  26.5518729  57.4635042 112.8944876
  25.2034321  58.1088806 113.1333971  21.6777788  44.4853587  93.5089997
  21.6656458  45.4295426  93.6658268  22.5701210  44.3023732  93.2149458
  19.8513750  64.4091490 104.9347675  20.7540997  64.4415101 105.2514170
  19.6251120  63.4791941 104.9494011  21.6067352  63.1622477 101.5957754
  20.6562983  63.1624339 101.4822126  21.9099838  62.4155212 101.0793788
  25.4929908  41.0796363  97.7635934  24.7262303  40.5254850  97.9092616
  25.9040613  41.1518232  98.6250086  34.6329535  70.1045295 108.5551246
  34.6218176  69.7098093 107.6831750  34.7950174  69.3711368 109.1485018
  27.5560999  72.2997111 101.4246152  28.3482291  71.9587936 101.0092452
  27.7957650  72.4092087 102.3448306  31.3536796  72.8882407 107.5030430
  31.0626662  73.7928038 107.3877097  31.9893780  72.9298935 108.2174500
  32.2793003  70.2659256 104.0931790  32.8756575  70.0415278 103.3788753
  32.3367974  69.5244001 104.6957238  27.1247974  68.6690893 101.3660718
  27.2540355  68.9225372 102.2800129  26.4445425  69.2618601 101.0465373
  31.2947461  79.3388143  97.4651192  31.2171491  80.2895968  97.5439672
  30.6909104  78.9934015  98.1226118  33.7864691  66.5116008 110.1212559
  33.0098025  67.0709928 110.1115423  34.4255254  66.9972791 110.6427429
  32.0411063  69.3201462 109.6830526  32.7825747  69.8586506 109.4065349
  31.3348048  69.9467750 109.8402077  37.5166403  71.4630602 108.2802687
  37.9249759  71.0213013 107.5357319  36.7943664  70.8883230 108.5336880
  33.8697473  66.4003209 105.6536244  34.7158668  66.8242622 105.7970893
  33.8096110  65.7436833 106.3474807  38.9735381  70.6046190 105.9894683
  39.1852276  71.2477950 105.3129064  38.9265129  69.7708506 105.5216613
  30.7772427  66.4741110 110.4845836  30.1471087  67.1557391 110.7181232
  30.6708515  66.3624191 109.5398974  26.0717399  66.1412906 101.4111760
  25.2816453  66.3970434 100.9351870  26.5628646  66.9561244 101.5163800
  28.0232144  66.5057485  98.3695237  27.2263308  66.6176179  98.8878732
  27.7957737  66.8444137  97.5036127  33.8537812  73.0302188 106.3177751
  33.9182245  73.4922596 107.1535923  33.1448736  72.3999553 106.4460061
  24.3555102  66.3943396 103.8426751  24.6063141  67.2790406 104.1084327
  24.8914650  66.2147998 103.0701842  30.0553169  60.7761876 112.8471087
  29.6620115  60.2228074 113.5218731  30.8719310  61.0872454 113.2377604
  27.0215227  72.2145734  96.7584657  27.5339748  73.0088984  96.9090221
  27.6737940  71.5172024  96.6918258  28.8310112  75.3311490  98.8407410
  29.0076740  76.2529455  98.6528394  29.6266945  75.0169909  99.2701790
  32.9721130  62.1919755 110.4391343  33.7130844  62.7926908 110.3595806
  33.2039053  61.4497393 109.8809386  28.1162468  67.3776122 108.7169573
  28.0015984  66.4761379 109.0176672  27.2606986  67.6239819 108.3654389
  35.1954306  75.3193862 110.3157074  34.7518160  74.5330241 109.9977978
  35.8571520  75.5073013 109.6500964  29.9541427  76.8489664 104.8417752
  30.5048852  76.7206727 104.0694746  29.1152903  77.1484553 104.4912645
  37.2935544  75.5996662 108.3438475  37.2754020  76.4205543 107.8518744
  38.2155464  75.4750737 108.5688616  33.7508598  73.1140792 109.1861983
  34.2836935  72.3529080 108.9561291  33.2222679  72.8214444 109.9286138
  24.9864144  70.5434388  97.5344227  25.8239366  70.9531397  97.3177935
  25.1642412  69.6033830  97.5044421  30.1749626  64.9350912  93.0783292
  29.3386938  65.2725598  93.3992567  30.0354395  64.7999891  92.1410429
  25.0090315  67.8825103  98.2054961  24.8114715  67.2894464  97.4806027
  24.4536979  67.5777314  98.9230899  36.5253610  66.8567094 106.9154826
  36.8802998  67.0838567 107.7749292  37.1725742  67.1885471 106.2932082
  30.4193473  63.9643625 103.7001167  31.0592853  63.8232384 103.0024131
  29.5871004  63.6778139 103.3239769  27.5036541  67.4089137  95.8895913
  26.5734129  67.3473593  96.1065875  27.5994013  66.8865090  95.0932554
  28.8947015  65.3481707 105.6472979  29.5670069  65.1399070 104.9985628
  28.0676802  65.1503793 105.2078211  34.7972587  61.9743648 107.6638640
  34.1500502  62.6733598 107.5703116  35.5673603  62.4079792 108.0314888
  38.2051385  72.2392500 110.7389193  38.0536892  72.0103052 109.8219277
  38.1956065  73.1963102 110.7520538  34.9736722  69.8124413 105.7235459
  35.9028782  69.9635573 105.5504427  34.5527752  69.9008434 104.8684106
  34.3673205  78.9384174  94.8359534  34.5424961  78.4672217  95.6505156
  33.6805993  79.5649940  95.0640794  29.2974512  68.6224310 106.4075416
  29.1594310  67.8904549 107.0086955  30.2079436  68.5333210 106.1259604
  31.9256813  68.3344270 105.8959096  32.6356432  67.6937462 105.8545714
  31.8826121  68.5857165 106.8185276  39.9143592  75.2711623 108.8165675
  39.8556138  74.5870843 108.1496258  40.3163110  76.0130613 108.3646301
  30.6385747  65.3209488 107.7154735  30.1023104  64.8700226 108.3676331
  30.0502456  65.4555396 106.9725199  28.9334291  82.0873537 101.6099394
  29.1730889  82.7192061 102.2878412  28.0903487  81.7361577 101.8964753
  30.0488006  64.7798139  90.2781199  29.1717472  64.6586940  89.9143445
  30.5245759  63.9884217  90.0260087  21.5690146  69.5675299 100.3722706
  22.2561186  69.2537029  99.7843721  21.4138275  70.4716663 100.0989957
  26.3724868  64.4565495 104.8007730  26.2883057  63.8491165 104.0658140
  25.5507575  64.9474514 104.8017226  33.4462152  77.8952659 104.0140898
  33.3732324  78.7007631 104.5260202  33.0039546  78.0944625 103.1888919
  35.9060836  77.7939493 106.1699056  36.6188808  78.4286958 106.0974958
  35.4150865  77.8903359 105.3539058  30.9572749  75.5433937 106.9904627
  31.6582209  76.1770420 107.1434021  30.4867864  75.8848668 106.2300266
  38.7574035  68.0978544 104.8157178  38.1045486  68.3454452 104.1609630
  39.1354415  67.2842682 104.4819655  34.8061608  68.8398355 111.3023215
  34.1302246  68.7392485 111.9725590  35.6289242  68.6837569 111.7659212
  26.5540468  75.0770292 103.9235730  27.1393904  74.3313980 104.0563634
  26.3565306  75.3874249 104.8072394  29.4079123  78.1121539  98.9398172
  28.7389498  78.5967667  98.4562212  29.2691992  78.3590760  99.8541551
  21.1458122  67.6475892 102.6440173  21.1842222  67.1139483 103.4377291
  20.6398415  67.1211098 102.0251150  33.5484391  80.1465283 105.5380831
  34.1002699  80.3096904 106.3029916  33.8890585  80.7369721 104.8660855
  28.5248885  62.4940433 106.1402715  28.5890211  63.3555263 105.7280113
  28.4616005  61.8814434 105.4075074  28.0001157  64.5663565 109.7875750
  28.6273196  64.1840642 110.4013274  27.1429076  64.3477767 110.1531442
  38.3995266  74.9726540 111.3929485  38.9435170  75.5856499 110.8984440
  37.8182111  75.5306119 111.9096498  24.7766700  66.3739994  95.7194104
  25.0720141  65.4650673  95.6661158  23.8754736  66.3527734  95.3975107
  28.3060947  64.4495991 101.7021653  27.5847533  65.0631959 101.5629126
  29.0954203  64.9853756 101.6238299  31.1087260  61.7850417 107.9762305
  31.6321662  62.0312714 108.7388614  30.8899594  62.6170452 107.5565442
  26.5054541  64.0554092  95.8433430  26.1767248  63.1751471  95.6608535
  26.8593912  64.0001761  96.7309819  32.3139805  62.7264112 105.6611975
  31.9736626  61.9271925 106.0632655  31.6078812  63.0265823 105.0888808
  32.9656277  59.8113425 104.1139298  33.7882347  59.3373903 103.9918189
  33.2094341  60.5903909 104.6137985  24.9640518  69.0437890 104.8618938
  24.4193986  69.8197698 104.9939212  25.8419868  69.3908694 104.7038060
  25.7506540  68.1707786 107.7549095  25.0088276  68.3190421 108.3413725
  25.4299284  68.4316052 106.8915844  33.6950203  77.7123764 107.5529485
  34.0037329  77.4672911 108.4252185  34.4925685  77.9170403 107.0648355
  33.7170815  79.8661674  99.7834862  33.2775805  79.3738053 100.4767718
  34.4678932  79.3234642  99.5426937  26.1963154  76.0573215  99.7859490
  27.0221174  75.7576987  99.4058133  25.8457206  75.2880837 100.2349278
  31.1644687  75.4099683 101.8557163  30.5424696  74.7470388 101.5559391
  31.8349554  75.4360815 101.1730811  24.3971759  73.9759541 100.7448423
  23.5603667  73.5481716 100.5632424  24.3695404  74.1691985 101.6819214
  31.2369214  63.8881471 111.4489669  31.2857370  64.7643594 111.0667439
  31.7791729  63.3458864 110.8761312  41.7224060  74.4322594 110.7290806
  40.9319604  74.4146733 110.1895306  41.4857415  74.9710888 111.4839843
  41.8421935  71.2815061 108.0423535  41.8919940  71.1165068 108.9839058
  41.7335858  70.4142320 107.6521416  39.1325698  67.2645989 109.3582842
  40.0335560  67.1252454 109.0666839  39.2073672  67.4300444 110.2981019
  33.4668503  64.6412844 108.2036028  32.5971812  64.9346410 107.9318616
  33.7027983  65.2253289 108.9243292  43.3440132  73.7012002 108.2865556
  43.0524940  74.0641983 109.1229017  42.7312263  72.9879011 108.1078888
  41.5927320  68.8244617 106.7545614  42.0681442  69.0172263 105.9464466
  40.6692886  68.8803803 106.5088998  28.4810827  69.9868784  96.3376693
  28.2356869  69.0831114  96.5356903  28.6506741  69.9885934  95.3956171
  27.7506474  65.7197142  93.8362854  27.0575719  65.7941497  93.1802890
  27.5058226  64.9557485  94.3584371  34.4939090  71.8430296 111.6044081
  35.4142100  72.0208895 111.7984127  34.4588673  70.8986341 111.4523780
  23.7121255  67.0368889 100.5297355  23.3924040  66.1834198 100.2371729
  23.1654684  67.2517468 101.2855323  27.4901163  69.7531330 104.2466862
  27.7087173  70.6848438 104.2654896  27.9026937  69.3939305 105.0321666
  32.3629028  65.3264536 113.6369611  32.2625755  66.2758893 113.5681702
  32.1450570  64.9982775 112.7645681  31.5642100  62.5749461  90.2210288
  32.4261264  62.9004360  90.4806105  31.7492444  61.7880957  89.7083354
  23.5809515  70.6571801 102.4990477  22.8872987  70.2425754 101.9860431
  24.3282506  70.6992337 101.9023896  32.2260298  68.7561675 112.4534672
  31.7427380  69.5562035 112.6598561  32.3121237  68.7669620 111.5002116
  25.4946258  70.5890055 100.3756492  25.4716946  70.6877742  99.4238375
  25.8046894  71.4355205 100.6973658  28.1533636  72.6466210 104.4903106
  29.1076889  72.6150152 104.4233038  27.9546159  72.1856833 105.3053332
  28.7433018  71.2167326 107.0573904  29.5625907  71.7111404 107.0808741
  29.0169826  70.2999294 107.0291471  26.5083865  78.1885829 101.5073304
  26.3738332  77.4286230 100.9411302  26.0915927  78.9126729 101.0402093
  29.6652990  79.0855146 101.7191747  29.5485375  80.0300579 101.6170437
  28.8445437  78.7828708 102.1077546  23.9967932  65.5505460 107.7566101
  24.6426796  65.0404414 108.2453326  23.7885083  66.2874141 108.3309526
  36.5221324  72.6186307 113.2558241  37.3912484  72.7926959 112.8944876
  36.0428076  73.4380724 113.1333971  30.6907505  79.7383408 104.9347675
  31.5934751  79.7707018 105.2514170  30.4644875  78.8083859 104.9494011
  32.4461107  78.4914395 101.5957754  31.4956738  78.4916256 101.4822126
  32.7493593  77.7447129 101.0793788  28.3365423  62.6973077 111.8541115
  29.1996885  62.3409882 112.0644440  27.7630834  62.3586972 112.5416519
  45.4723289  85.4337213 108.5551246  45.4611930  85.0390011 107.6831750
  45.6343929  84.7003285 109.1485018  38.3954754  87.6289029 101.4246152
  39.1876046  87.2879854 101.0092452  38.6351404  87.7384004 102.3448306
  42.1930550  88.2174325 107.5030430  41.9020416  89.1219956 107.3877097
  42.8287535  88.2590852 108.2174500  43.1186757  85.5951173 104.0931790
  43.7150330  85.3707196 103.3788753  43.1761729  84.8535919 104.6957238
  50.6588916  75.7023194 105.0984311  50.3272241  76.5718605 104.8745526
  50.0634529  75.3859478 105.7778342  47.1520436  87.9035740 104.4980224
  46.8521159  88.8060779 104.3896031  46.8071495  87.6367923 105.3501377
  42.1341215  94.6680061  97.4651192  42.0565245  95.6187886  97.5439672
  41.5302859  94.3225933  98.1226118  44.6258445  81.8407926 110.1212559
  43.8491779  82.4001846 110.1115423  45.2649008  82.3264709 110.6427429
  52.4179226  78.6234719 103.9555535  51.7753606  78.9167252 103.3095330
  51.9134154  78.5087639 104.7608732  42.8804817  84.6493379 109.6830526
  43.6219502  85.1878423 109.4065349  42.1741803  85.2759668 109.8402077
  48.3560157  86.7922520 108.2802687  48.7643513  86.3504930 107.5357319
  47.6337419  86.2175147 108.5336880  48.6788972  87.3523710 102.0354976
  48.0497834  87.5169425 101.3331044  48.2914634  87.7665320 102.8065940
  52.5578204  88.2878148  99.3899340  51.8729242  88.6677050  98.8396373
  52.6422053  88.8973475 100.1231288  47.8590672  79.3899495 107.3117418
  47.6151604  80.1441555 106.7751693  48.1350603  79.7684843 108.1464665
  41.6166181  81.8033028 110.4845836  40.9864842  82.4849308 110.7181232
  41.5102269  81.6916109 109.5398974  50.9274963  88.8110063 104.1617041
  51.7492407  88.4090250 103.8799722  50.9237366  88.7078297 105.1133156
  44.6931567  88.3594106 106.3177751  44.7575999  88.8214513 107.1535923
  43.9842490  87.7291471 106.4460061  35.1948857  81.7235314 103.8426751
  35.4456895  82.6082324 104.1084327  35.7308405  81.5439916 103.0701842
  59.0180956  85.1548811 100.5102012  58.2644665  84.5856209 100.3546017
  59.1528497  85.1211476 101.4572647  40.8946924  76.1053793 112.8471087
  40.5013869  75.5519992 113.5218731  41.7113064  76.4164372 113.2377604
  37.8608982  87.5437652  96.7584657  38.3733502  88.3380902  96.9090221
  38.5131694  86.8463942  96.6918258  39.6703866  90.6603408  98.8407410
  39.8470495  91.5821373  98.6528394  40.4660700  90.3461827  99.2701790
  43.8114885  77.5211672 110.4391343  44.5524598  78.1218826 110.3595806
  44.0432808  76.7789310 109.8809386  38.9556223  82.7068040 108.7169573
  38.8409738  81.8053297 109.0176672  38.1000741  82.9531736 108.3654389
  46.0348061  90.6485780 110.3157074  45.5911915  89.8622159 109.9977978
  46.6965274  90.8364931 109.6500964  40.7935182  92.1781582 104.8417752
  41.3442607  92.0498645 104.0694746  39.9546658  92.4776471 104.4912645
  48.1329299  90.9288580 108.3438475  48.1147774  91.7497461 107.8518744
  49.0549219  90.8042655 108.5688616  44.5902353  88.4432709 109.1861983
  45.1230690  87.6820998 108.9561291  44.0616434  88.1506361 109.9286138
  47.7572048  73.5492775 104.7155625  47.4136317  74.4394417 104.6394736
  48.1251010  73.3594433 103.8525210  35.8257898  85.8726306  97.5344227
  36.6633120  86.2823314  97.3177935  36.0036166  84.9325748  97.5044421
  48.9548106  90.9394593  98.9280744  49.2471080  91.4999650  98.2093110
  49.4646726  91.2323154  99.6833903  35.8484070  83.2117021  98.2054961
  35.6508469  82.6186382  97.4806027  35.2930734  82.9069231  98.9230899
  43.9181731  91.7174944 100.0174197  43.8757910  91.9435791  99.0882729
  44.8344430  91.4838319 100.1659998  53.1214481  87.3753975 102.6315427
  53.5550988  87.2829264 103.4798481  53.8346062  87.3511475 101.9935443
  46.8542376  90.9756069 104.1648528  46.9079399  91.5447005 104.9326243
  45.9857158  91.1457954 103.8002565  53.9830031  87.4177675 105.1648312
  54.1765921  88.3223486 105.4107587  53.8830649  86.9585094 105.9986897
  45.6366342  77.3035566 107.6638640  44.9894257  78.0025516 107.5703116
  46.4067357  77.7371710 108.0314888  49.0445140  87.5684418 110.7389193
  48.8930646  87.3394970 109.8219277  49.0349819  88.5255020 110.7520538
  45.8130476  85.1416331 105.7235459  46.7422536  85.2927491 105.5504427
  45.3921506  85.2300352 104.8684106  44.6118808  89.1666995 103.4933997
  44.4729894  88.7985780 104.3659935  43.8233404  89.6814635 103.3217955
  45.2066960  94.2676092  94.8359534  45.3818715  93.7964135  95.6505156
  44.5199748  94.8941858  95.0640794  40.1368267  83.9516228 106.4075416
  39.9988065  83.2196467 107.0086955  41.0473190  83.8625128 106.1259604
  50.7537346  90.6003541 108.8165675  50.6949892  89.9162761 108.1496258
  51.1556865  91.3422531 108.3646301  41.4779502  80.6501405 107.7154735
  40.9416859  80.1992144 108.3676331  40.8896210  80.7847314 106.9725199
  39.7728045  97.4165455 101.6099394  40.0124643  98.0483979 102.2878412
  38.9297242  97.0653495 101.8964753  50.7554754  88.5643125 107.0479655
  49.8681532  88.2269046 107.1706053  51.3253305  87.8326156 107.2848420
  32.4083901  84.8967216 100.3722706  33.0954940  84.5828946  99.7843721
  32.2532029  85.8008581 100.0989957  37.2118623  79.7857413 104.8007730
  37.1276812  79.1783082 104.0658140  36.3901329  80.2766431 104.8017226
  44.2855907  93.2244577 104.0140898  44.2126078  94.0299548 104.5260202
  43.8433300  93.4236543 103.1888919  44.0745687  92.4616347  97.5243719
  43.2913208  93.0038027  97.6181944  44.7738432  92.9790327  97.9237960
  46.7454590  93.1231411 106.1699056  47.4582563  93.7578876 106.0974958
  46.2544619  93.2195277 105.3539058  41.7966504  90.8725854 106.9904627
  42.4975963  91.5062337 107.1434021  41.3261619  91.2140586 106.2300266
  46.5574964  93.4630155  98.9185348  46.7397358  92.6451811  99.3813100
  47.3807950  93.6797847  98.4810238  46.8917129  92.3898340  96.1800396
  47.4204896  91.8790795  95.5670558  47.1545349  92.0740870  97.0445929
  45.6455363  84.1690273 111.3023215  44.9696000  84.0684402 111.9725590
  46.4682997  84.0129487 111.7659212  37.3934222  90.4062210 103.9235730
  37.9787659  89.6605897 104.0563634  37.1959061  90.7166166 104.8072394
  40.2472877  93.4413457  98.9398172  39.5783253  93.9259585  98.4562212
  40.1085747  93.6882677  99.8541551  31.9851877  82.9767810 102.6440173
  32.0235976  82.4431400 103.4377291  31.4792170  82.4503015 102.0251150
  44.3878146  95.4757200 105.5380831  44.9396454  95.6388822 106.3029916
  44.7284339  96.0661638 104.8660855  39.3642639  77.8232350 106.1402715
  39.4283966  78.6847181 105.7280113  39.3009759  77.2106352 105.4075074
  38.8394912  79.8955483 109.7875750  39.4666950  79.5132560 110.4013274
  37.9822830  79.6769685 110.1531442  49.2389020  90.3018458 111.3929485
  49.7828924  90.9148416 110.8984440  48.6575865  90.8598036 111.9096498
  47.5246533  93.4239176 102.5244513  47.3997673  92.6228916 102.0155458
  48.1825624  93.9185369 102.0358483  49.5881442  91.2248196 104.1524063
  48.6411777  91.1053547 104.0802390  49.9364215  90.3370694 104.2350324
  41.9481015  77.1142335 107.9762305  42.4715417  77.3604632 108.7388614
  41.7293348  77.9462370 107.5565442  46.5927875  91.0200912 100.3528415
  46.4452837  90.0917620 100.5335985  47.4181368  91.0421003  99.8685490
  50.1961997  91.8429471 101.4393288  51.1208544  91.6372332 101.3017739
  50.0277300  91.5945872 102.3482629  35.8034273  84.3729808 104.8618938
  35.2587741  85.1489615 104.9939212  36.6813623  84.7200612 104.7038060
  36.5900295  83.4999704 107.7549095  35.8482031  83.6482339 108.3413725
  36.2693039  83.7607969 106.8915844  44.5343957  93.0415682 107.5529485
  44.8431084  92.7964829 108.4252185  45.3319439  93.2462320 107.0648355
  44.5564569  95.1953592  99.7834862  44.1169560  94.7029970 100.4767718
  45.3072686  94.6526559  99.5426937  37.0356908  91.3865133  99.7859490
  37.8614928  91.0868904  99.4058133  36.6850960  90.6172755 100.2349278
  42.0038441  90.7391601 101.8557163  41.3818451  90.0762306 101.5559391
  42.6743308  90.7652733 101.1730811  35.2365513  89.3051459 100.7448423
  34.3997422  88.8773633 100.5632424  35.2089159  89.4983902 101.6819214
  42.0762969  79.2173389 111.4489669  42.1251124  80.0935512 111.0667439
  42.6185483  78.6750782 110.8761312  52.5617815  89.7614512 110.7290806
  51.7713358  89.7438651 110.1895306  52.3251169  90.3002806 111.4839843
  52.6815690  86.6106978 108.0423535  52.7313695  86.4456986 108.9839058
  52.5729613  85.7434237 107.6521416  44.3062257  79.9704761 108.2036028
  43.4365567  80.2638327 107.9318616  44.5421738  80.5545206 108.9243292
  54.1833886  89.0303920 108.2865556  53.8918695  89.3933900 109.1229017
  53.5706018  88.3170928 108.1078888  47.0101291  76.1884378 105.7201448
  47.5283235  76.9245405 105.3947937  46.6556424  76.4948371 106.5548207
  49.1537123  78.1157878 105.1733321  48.5587055  78.3962891 104.4779810
  48.8686820  78.6051779 105.9450062  59.4287371  85.3124421 103.2422256
  60.1590760  85.0509709 103.8029960  58.8194317  84.5753143 103.2824324
  57.5102668  83.4532284 103.8396708  56.7835832  83.3188249 103.2313199
  57.0949955  83.7609112 104.6453426  45.3332845  87.1722213 111.6044081
  46.2535854  87.3500812 111.7984127  45.2982428  86.2278259 111.4523780
  34.5515010  82.3660807 100.5297355  34.2317794  81.5126115 100.2371729
  34.0048438  82.5809385 101.2855323  38.3294917  85.0823248 104.2466862
  38.5480927  86.0140356 104.2654896  38.7420691  84.7231222 105.0321666
  43.2022783  80.6556454 113.6369611  43.1019510  81.6050811 113.5681702
  42.9844325  80.3274693 112.7645681  34.4203270  85.9863719 102.4990477
  33.7266741  85.5717671 101.9860431  35.1676261  86.0284255 101.9023896
  43.0654053  84.0853593 112.4534672  42.5821134  84.8853953 112.6598561
  43.1514992  84.0961538 111.5002116  36.3340012  85.9181972 100.3756492
  36.3110700  86.0169660  99.4238375  36.6440649  86.7647123 100.6973658
  38.9927390  87.9758127 104.4903106  39.9470644  87.9442070 104.4233038
  38.7939914  87.5148751 105.3053332  39.5826772  86.5459243 107.0573904
  40.4019661  87.0403322 107.0808741  39.8563580  85.6291212 107.0291471
  37.3477619  93.5177747 101.5073304  37.2132087  92.7578148 100.9411302
  36.9309681  94.2418647 101.0402093  40.5046745  94.4147064 101.7191747
  40.3879129  95.3592496 101.6170437  39.6839191  94.1120625 102.1077546
  34.8361687  80.8797377 107.7566101  35.4820550  80.3696331 108.2453326
  34.6278838  81.6166059 108.3309526  47.3615079  87.9478225 113.2558241
  48.2306238  88.1218877 112.8944876  46.8821830  88.7672642 113.1333971
  41.5301259  95.0675326 104.9347675  42.4328506  95.0998936 105.2514170
  41.3038629  94.1375777 104.9494011  43.2854861  93.8206312 101.5957754
  42.3350492  93.8208174 101.4822126  43.5887347  93.0739047 101.0793788
  39.1759178  78.0264994 111.8541115  40.0390639  77.6701799 112.0644440
  38.6024588  77.6878889 112.5416519  59.0207555  99.6566851 102.6603516
  59.6585964  99.5373598 101.9566856  58.9028397 100.6047695 102.7191468
  55.8297261  99.6094279 102.5965041  55.4915772  99.4935344 101.7085576
  56.6987029  99.2085444 102.5766047  51.6884077 101.4629755  98.5861932
  51.1248942 101.3719692  97.8178220  51.5736472 100.6429660  99.0664424
  56.3117044 100.7629131 108.5551246  56.3005685 100.3681929 107.6831750
  56.4737683 100.0295203 109.1485018  49.2348508 102.9580947 101.4246152
  50.0269800 102.6171771 101.0092452  49.4745159 103.0675922 102.3448306
  57.2683635 105.1300723  93.8976397  56.6171615 105.7154803  93.5110410
  58.0627998 105.6606918  93.9571434  51.1939262 102.2189860  94.2963531
  51.9670138 101.6718847  94.1576407  51.5464661 103.0834109  94.5077992
  53.0324305 103.5466242 107.5030430  52.7414171 104.4511873 107.3877097
  53.6681289 103.5882770 108.2174500  53.9580512 100.9243091 104.0931790
  54.5544084 100.6999113 103.3788753  54.0155483 100.1827836 104.6957238
  53.5305540  98.3782526  91.9281981  53.7831061  97.8564047  91.1665444
  52.5930099  98.2148672  92.0308665  58.5748823  97.3818305  99.7356724
  59.3611912  96.9637728  99.3847141  58.8387527  98.2864397  99.9038373
  58.7458900 102.8191155  94.4345381  58.1104733 102.8925781  95.1466286
  58.4156307 103.4084754  93.7564460  63.9757250  97.3193538 100.6389703
  64.7082422  96.7492755 100.8727532  63.2196606  96.9315138 101.0796208
  53.2501829 100.2810632  94.1306356  53.1338087  99.6055536  94.7987440
  53.3604089  99.7943006  93.3138509  55.5933370  99.7420779  97.8353045
  55.2291577  99.2151400  98.5465967  56.4500486  99.3519248  97.6619531
  61.4982670  91.0315112 105.0984311  61.1665995  91.9010523 104.8745526
  60.9028284  90.7151396 105.7778342  55.2338857  94.7710679  92.8314394
  55.4013259  95.6390915  93.1984865  55.0436026  94.9337961  91.9075683
  57.9914190 103.2327658 104.4980224  57.6914913 104.1352697 104.3896031
  57.6465250 102.9659841 105.3501377  51.4426672  99.6841455 100.5316928
  50.5177168  99.5517669 100.7394620  51.6911085 100.4635674 101.0286871
  61.3911334  95.7510198 102.1777661  60.4828211  95.6825606 101.8836422
  61.3398930  96.2282143 103.0059487  55.2128078  97.2268336  93.8161060
  55.0927703  97.6725387  94.6546541  54.5180666  97.5753654  93.2574599
  48.8035483  99.3274728 101.3660718  48.9327864  99.5809207 102.2800129
  48.1232934  99.9202436 101.0465373  52.9734970 109.9971978  97.4651192
  52.8959000 110.9479803  97.5439672  52.3696613 109.6517851  98.1226118
  55.4652200  97.1699844 110.1212559  54.6885534  97.7293764 110.1115423
  56.1042763  97.6556627 110.6427429  63.2572980  93.9526636 103.9555535
  62.6147360  94.2459170 103.3095330  62.7527909  93.8379557 104.7608732
  60.9113144  97.6989810  94.6441395  61.8231000  97.9317196  94.4689092
  60.4022791  98.2826854  94.0816473  53.7198572  99.9785297 109.6830526
  54.4613256 100.5170341 109.4065349  53.0135557 100.6051586 109.8402077
  59.1953912 102.1214437 108.2802687  59.6037268 101.6796848 107.5357319
  58.4731173 101.5467065 108.5336880  55.5484982  97.0587044 105.6536244
  56.3946177  97.4826458 105.7970893  55.4883619  96.4020669 106.3474807
  59.5182726 102.6815628 102.0354976  58.8891589 102.8461342 101.3331044
  59.1308388 103.0957238 102.8065940  63.3971958 103.6170066  99.3899340
  62.7122996 103.9968967  98.8396373  63.4815807 104.2265393 100.1231288
  58.6984427  94.7191413 107.3117418  58.4545359  95.4733473 106.7751693
  58.9744357  95.0976760 108.1464665  60.6522890 101.2630025 105.9894683
  60.8639785 101.9061785 105.3129064  60.6052638 100.4292342 105.5216613
  58.2549119  93.8747846 102.8931255  57.3933598  94.1729099 103.1847993
  58.2811553  94.0918245 101.9612288  55.0710688 102.4190036  99.3005061
  55.5349034 102.6977739  98.5109684  54.8067486 101.5173481  99.1178152
  51.9634769 101.9661518 102.2384824  52.5336126 102.3948786 101.6002309
  52.5542881 101.6844102 102.9369010  54.0079574  98.5413189  96.1094626
  54.7103617  98.9934232  96.5768553  53.6760203  97.8997007  96.7374519
  52.4559936  97.1324945 110.4845836  51.8258596  97.8141226 110.7181232
  52.3496024  97.0208027 109.5398974  47.7504908  96.7996741 101.4111760
  46.9603962  97.0554270 100.9351870  48.2416155  97.6145079 101.5163800
  61.7668718 104.1401980 104.1617041  62.5886161 103.7382168 103.8799722
  61.7631121 104.0370215 105.1133156  49.7019653  97.1641320  98.3695237
  48.9050817  97.2760015  98.8878732  49.4745246  97.5027973  97.5036127
  55.5325321 103.6886024 106.3177751  55.5969754 104.1506431 107.1535923
  54.8236245 103.0583389 106.4460061  46.0342611  97.0527232 103.8426751
  46.2850649  97.9374242 104.1084327  46.5702159  96.8731833 103.0701842
  69.8574711 100.4840729 100.5102012  69.1038419  99.9148127 100.3546017
  69.9922252 100.4503393 101.4572647  55.2473339 105.3554131  96.1856731
  55.1119014 106.2005667  96.6141579  55.7883151 105.5573409  95.4222665
  51.7340678  91.4345711 112.8471087  51.3407624  90.8811910 113.5218731
  52.5506819  91.7456290 113.2377604  48.7002736 102.8729569  96.7584657
  49.2127257 103.6672819  96.9090221  49.3525449 102.1755860  96.6918258
  50.5097621 105.9895325  98.8407410  50.6864249 106.9113290  98.6528394
  51.3054454 105.6753745  99.2701790  54.6508639  92.8503590 110.4391343
  55.3918353  93.4510743 110.3595806  54.8826562  92.1081228 109.8809386
  49.7949977  98.0359957 108.7169573  49.6803493  97.1345215 109.0176672
  48.9394495  98.2823654 108.3654389  56.8741815 105.9777698 110.3157074
  56.4305669 105.1914076 109.9977978  57.5359029 106.1656848 109.6500964
  51.6328936 107.5073499 104.8417752  52.1836361 107.3790563 104.0694746
  50.7940412 107.8068388 104.4912645  58.9723053 106.2580498 108.3438475
  58.9541529 107.0789379 107.8518744  59.8942973 106.1334573 108.5688616
  55.4296107 103.7724627 109.1861983  55.9624444 103.0112915 108.9561291
  54.9010188 103.4798279 109.9286138  58.5965802  88.8784693 104.7155625
  58.2530072  89.7686335 104.6394736  58.9644765  88.6886351 103.8525210
  46.6651653 101.2018224  97.5344227  47.5026875 101.6115232  97.3177935
  46.8429921 100.2617666  97.5044421  58.5616085  98.8693304  93.2228060
  58.0462708  99.6397909  93.4616447  58.2893393  98.1958440  93.8461121
  56.1463196  93.7143005  98.2813298  55.2904792  93.3249855  98.1018937
  56.5590148  93.7934966  97.4213084  57.6762343  91.2489348 102.6804858
  57.1727138  91.2119483 101.8672663  57.9692950  92.1582091 102.7401515
  53.9205229  91.3328078 101.6871040  54.7858225  91.1370887 101.3276929
  53.9882738  91.1038430 102.6140397  63.5350359 101.6225659  95.1581234
  62.7579802 101.2836818  94.7136396  64.2141840 101.6278282  94.4836199
  58.3502388  96.7420396  95.0487841  58.0452524  97.0566545  95.8997984
  59.3032830  96.8201816  95.0915174  56.7948820 102.9010620  96.6980795
  56.2670182 102.1663379  96.3854033  56.2936323 103.6785296  96.4520764
  61.7741666 101.0959640 101.8147841  61.1165341 101.7858901 101.9027970
  62.5782065 101.4856072 102.1581828  51.5267548  93.5630286  99.0587407
  52.1011300  93.3405467  98.3260600  52.1138530  93.6318980  99.8116008
  60.5847125  99.4504013  99.8651783  61.0979007 100.0834005 100.3673493
  61.2348349  98.8505208  99.4995143  51.8537135  95.5934747  93.0783292
  51.0174447  95.9309433  93.3992567  51.7141904  95.4583727  92.1410429
  54.9401420 100.7190830  89.7015768  54.0328482 100.4880083  89.9006917
  55.4372452  99.9228449  89.8889750  57.8469499 109.4288337  92.6212454
  57.1731198 109.7320034  93.2297412  58.2335321 110.2317417  92.2717911
  57.0627956  96.9253468 102.1110124  56.1450517  97.1468415 101.9531812
  57.4788099  96.9999779 101.2521831  57.8463004  98.3244884  97.2412804
  58.5934822  98.8366281  96.9319926  58.1154593  98.0028937  98.1017198
  56.1189654 100.8203425  94.2239758  55.2100873 100.5362458  94.3212228
  56.1484737 101.2402503  93.3643065  61.3508921 104.4310014  97.9930926
  60.8971248 103.5900924  98.0496116  60.7202888 105.0671413  98.3305706
  60.2941841  95.3602000  99.2231593  59.5564597  94.8479386  99.5541836
  60.5468614  94.9202382  98.4114870  59.7941860 106.2686511  98.9280744
  60.0864835 106.8291568  98.2093110  60.3040481 106.5615072  99.6833903
  60.3953468  88.1378252  99.8173363  60.7012345  87.2775616  99.5299278
  61.1206073  88.7295872  99.6172357  46.6877824  98.5408939  98.2054961
  46.4902224  97.9478300  97.4806027  46.1324488  98.2361149  98.9230899
  54.6674548  98.4332045 100.3249554  54.7223158  97.4805882 100.2492030
  53.8565750  98.5891484 100.8090852  55.8165741 102.3612168  91.5627837
  55.3785171 101.6448027  91.1033474  56.5576182 102.5888283  91.0012928
  52.6066908  97.0509105  98.0839933  51.7934773  97.3503276  98.4905125
  53.1025902  96.6564794  98.8014415  54.7575486 107.0466862 100.0174197
  54.7151664 107.2727708  99.0882729  55.6738184 106.8130237 100.1659998
  58.2041119  97.5150930 106.9154826  58.5590507  97.7422403 107.7749292
  58.8513251  97.8469306 106.2932082  63.9338856 100.6369365  97.6204155
  63.7956755 100.8270961  96.6925345  63.5775075 101.3988748  98.0772207
  52.0980982  94.6227461 103.7001167  52.7380362  94.4816220 103.0024131
  51.2658513  94.3361974 103.3239769  63.9608236 102.7045892 102.6315427
  64.3944743 102.6121182 103.4798481  64.6739817 102.6803393 101.9935443
  52.8741286 103.9229891  99.8136160  53.6681885 103.4280211  99.6118735
  52.1632979 103.3947754  99.4503866  57.6936131 106.3047987 104.1648528
  57.7473153 106.8738923 104.9326243  56.8250912 106.4749872 103.8002565
  49.1824050  98.0672973  95.8895913  48.2521638  98.0057428  96.1065875
  49.2781522  97.5448925  95.0932554  49.1009599  94.5927786  98.4774154
  49.3616416  95.5073119  98.3683315  49.9226771  94.1252228  98.6270767
  50.5734524  96.0065543 105.6472979  51.2457578  95.7982905 104.9985628
  49.7464311  95.8087629 105.2078211  64.8223785 102.7469593 105.1648312
  65.0159676 103.6515404 105.4107587  64.7224404 102.2877012 105.9986897
  56.4760096  92.6327484 107.6638640  55.8288011  93.3317433 107.5703116
  57.2461112  93.0663628 108.0314888  59.8838894 102.8976336 110.7389193
  59.7324401 102.6686888 109.8219277  59.8743574 103.8546937 110.7520538
  56.6524231 100.4708249 105.7235459  57.5816291 100.6219408 105.5504427
  56.2315261 100.5592269 104.8684106  55.4512562 104.4958913 103.4933997
  55.3123648 104.1277697 104.3659935  54.6627159 105.0106552 103.3217955
  56.0460714 109.5968009  94.8359534  56.2212470 109.1256053  95.6505156
  55.3593502 110.2233776  95.0640794  57.0017777 103.8740516 100.8822835
  56.6667610 103.8341286 101.7780485  56.5021723 103.2085232 100.4093245
  50.9762021  99.2808146 106.4075416  50.8381819  98.5488385 107.0086955
  51.8866945  99.1917046 106.1259604  59.9376969 101.2196550  91.1559894
  59.3206140 100.4943378  91.0592947  59.4693458 101.9805910  90.8126969
  53.6044322  98.9928105 105.8959096  54.3143941  98.3521297 105.8545714
  53.5613630  99.2441000 106.8185276  61.5931101 105.9295458 108.8165675
  61.5343647 105.2454679 108.1496258  61.9950619 106.6714448 108.3646301
  52.3173256  95.9793323 107.7154735  51.7810613  95.5284061 108.3676331
  51.7289965  96.1139232 106.9725199  50.6121800 112.7457372 101.6099394
  50.8518398 113.3775896 102.2878412  49.7690996 112.3945412 101.8964753
  51.7275515  95.4381974  90.2781199  50.8504981  95.3170775  89.9143445
  52.2033268  94.6468053  90.0260087  61.5948508 103.8935042 107.0479655
  60.7075287 103.5560964 107.1706053  62.1647059 103.1618074 107.2848420
  43.2477655 100.2259134 100.3722706  43.9348695  99.9120864  99.7843721
  43.0925784 101.1300499 100.0989957  48.0512377  95.1149331 104.8007730
  47.9670566  94.5075000 104.0658140  47.2295084  95.6058349 104.8017226
  55.1249661 108.5536495 104.0140898  55.0519833 109.3591466 104.5260202
  54.6827055 108.7528460 103.1888919  54.9139441 107.7908265  97.5243719
  54.1306963 108.3329945  97.6181944  55.6132186 108.3082244  97.9237960
  58.2236091  93.6002894 100.1677925  58.7204791  92.8472856  99.8478995
  57.4523073  93.6367211  99.6021134  66.0765849  99.3043260 101.8096216
  66.0655725 100.1867975 101.4390149  65.2083228  98.9514811 101.6150753
  57.5848345 108.4523329 106.1699056  58.2976317 109.0870794 106.0974958
  57.0938374 108.5487195 105.3539058  59.3065872 102.3574581  97.7416348
  58.3722151 102.4776044  97.5721052  59.4842540 101.4547048  97.4776358
  54.8071060  95.7420277  99.8949609  54.4368847  95.1891318 100.5830515
  55.3030152  95.1378411  99.3424609  62.6938423  98.1991901  98.2766382
  63.1598875  99.0319892  98.2026685  63.1445924  97.7336882  98.9811641
  52.6360258 106.2017772 106.9904627  53.3369718 106.8354255 107.1434021
  52.1655373 106.5432504 106.2300266  60.7614654 104.5435722  95.2752534
  61.0374498 104.4292317  96.1846408  59.8919153 104.1453207  95.2364707
  60.6655086  90.5672488 102.3157284  59.7518166  90.7976714 102.4839490
  61.0948187  90.6510932 103.1671316  60.4361544  98.7562380 104.8157178
  59.7832995  99.0038287 104.1609630  60.8141924  97.9426518 104.4819655
  57.3968718 108.7922073  98.9185348  57.5791113 107.9743729  99.3813100
  58.2201704 109.0089765  98.4810238  57.7310884 107.7190258  96.1800396
  58.2598650 107.2082713  95.5670558  57.9939103 107.4032788  97.0445929
  56.4849117  99.4982191 111.3023215  55.8089754  99.3976320 111.9725590
  57.3076751  99.3421404 111.7659212  48.2327977 105.7354127 103.9235730
  48.8181413 104.9897815 104.0563634  48.0352815 106.0458084 104.8072394
  51.0866632 108.7705375  98.9398172  50.4177007 109.2551502  98.4562212
  50.9479501 109.0174595  99.8541551  42.8245631  98.3059727 102.6440173
  42.8629731  97.7723318 103.4377291  42.3185924  97.7794933 102.0251150
  55.2271900 110.8049118 105.5380831  55.7790208 110.9680740 106.3029916
  55.5678094 111.3953556 104.8660855  50.2036394  93.1524268 106.1402715
  50.2677720  94.0139099 105.7280113  50.1403514  92.5398270 105.4075074
  49.6788666  95.2247400 109.7875750  50.3060705  94.8424478 110.4013274
  48.8216585  95.0061602 110.1531442  46.4554209  97.0323830  95.7194104
  46.7507650  96.1234508  95.6661158  45.5542245  97.0111569  95.3975107
  58.3640288 108.7531094 102.5244513  58.2391427 107.9520833 102.0155458
  59.0219379 109.2477287 102.0358483  49.9848456  95.1079826 101.7021653
  49.2635042  95.7215794 101.5629126  50.7741712  95.6437591 101.6238299
  60.4275196 106.5540114 104.1524063  59.4805532 106.4345465 104.0802390
  60.7757969 105.6662612 104.2350324  52.7874769  92.4434253 107.9762305
  53.3109171  92.6896549 108.7388614  52.5687103  93.2754287 107.5565442
  48.1842050  94.7137927  95.8433430  47.8554757  93.8335306  95.6608535
  48.5381421  94.6585596  96.7309819  57.4321629 106.3492830 100.3528415
  57.2846592 105.4209537 100.5335985  58.2575123 106.3712921  99.8685490
  51.2983874  95.0010897  96.2108907  51.6379946  95.5296818  95.4887516
  51.7455994  95.3391303  96.9867474  61.0355751 107.1721389 101.4393288
  61.9602299 106.9664250 101.3017739  60.8671055 106.9237790 102.3482629
  53.9927314  93.3847948 105.6611975  53.6524135  92.5855761 106.0632655
  53.2866321  93.6849659 105.0888808  54.6443786  90.4697260 104.1139298
  55.4669856  89.9957738 103.9918189  54.8881850  91.2487744 104.6137985
  53.2852021  93.4985519  94.4102200  54.0060383  93.8766771  93.9065917
  52.6617325  94.2174395  94.5137178  57.4283144  94.2030668  95.3460532
  57.6446758  95.0855305  95.0449360  56.9477211  93.8116881  94.6166174
  52.1682365  97.1616381 101.9231277  52.0226946  97.4756684 102.8155558
  51.6907569  97.7801281 101.3702176  54.0278748  94.1518929 101.9712166
  54.0140317  93.2560022 101.6344464  54.7451176  94.1589593 102.6050453
  55.8804879  94.5856269 104.0165294  55.6222656  95.5073340 104.0149624
  55.3489919  94.1886704 104.7065758  60.8251067 107.6907056  96.7955379
  60.9987945 107.1253479  96.0429232  61.3179959 108.4907951  96.6134869
  46.6428027  99.7021725 104.8618938  46.0981495 100.4781533 104.9939212
  47.5207377 100.0492530 104.7038060  53.4315644  93.0333309  97.2399737
  53.5531555  92.1049955  97.4390624  53.1417686  93.0471995  96.3278052
  56.3006834  90.7188220 100.3766456  56.3228531  90.7827553  99.4218436
  56.7174893  89.8792728 100.5706963  66.6790459 100.4543479  98.4145679
  67.1221605  99.7050804  98.0164802  65.8016969 100.4453615  98.0319411
  61.8126240 107.0073821  93.8952278  62.5077144 107.6280513  94.1139592
  62.1549390 106.1569172  94.1704655  47.4294049  98.8291621 107.7549095
  46.6875785  98.9774257 108.3413725  47.1086793  99.0899887 106.8915844
  63.7117663 104.4573526  95.4239608  64.2368987 104.7960799  94.6988928
  63.6240016 103.5220541  95.2402743  55.3737712 108.3707600 107.5529485
  55.6824838 108.1256746 108.4252185  56.1713194 108.5754238 107.0648355
  55.3958324 110.5245509  99.7834862  54.9563314 110.0321888 100.4767718
  56.1466441 109.9818477  99.5426937  47.8750663 106.7157050  99.7859490
  48.7008683 106.4160822  99.4058133  47.5244715 105.9464673 100.2349278
  52.8432196 106.0683518 101.8557163  52.2212205 105.4054223 101.5559391
  53.5137063 106.0944650 101.1730811  46.0759268 104.6343377 100.7448423
  45.2391176 104.2065551 100.5632424  46.0482913 104.8275820 101.6819214
  52.9156723  94.5465306 111.4489669  52.9644879  95.4227429 111.0667439
  53.4579238  94.0042700 110.8761312  63.5209444 101.9398896 108.0423535
  63.5707449 101.7748904 108.9839058  63.4123367 101.0726155 107.6521416
  52.4045703 104.6187442  95.3315624  52.5533823 105.3022906  94.6782296
  53.2112146 104.5992532  95.8465079  60.8113206  97.9229824 109.3582842
  61.7123069  97.7836289 109.0666839  60.8861181  98.0884279 110.2981019
  55.1456012  95.2996679 108.2036028  54.2759321  95.5930245 107.9318616
  55.3815492  95.8837124 108.9243292  65.0227641 104.3595838 108.2865556
  64.7312449 104.7225818 109.1229017  64.4099772 103.6462846 108.1078888
  66.2223323 101.9248717 100.8068127  67.0570215 102.3638521 100.9705687
  66.3582452 101.4487371  99.9876372  63.2714829  99.4828452 106.7545614
  63.7468951  99.6756099 105.9464466  62.3480395  99.5387638 106.5088998
  50.1598336 100.6452619  96.3376693  49.9144378  99.7414949  96.5356903
  50.3294250 100.6469770  95.3956171  57.8495046  91.5176296 105.7201448
  58.3676990  92.2537323 105.3947937  57.4950178  91.8240289 106.5548207
  49.4293983  96.3780977  93.8362854  48.7363228  96.4525332  93.1802890
  49.1845735  95.6141321  94.3584371  58.1007640  87.9376578 101.2402345
  58.3809394  87.2699767 101.8662771  58.8858247  88.1305674 100.7277009
  55.9041108 107.1135572  92.8027371  55.3315075 107.7325759  92.3497843
  56.4773902 107.6634934  93.3367293  61.9716498  96.3594212 104.9873920
  62.9233921  96.4592310 105.0086144  61.8019949  95.5672481 105.4972004
  59.9930878  93.4449796 105.1733321  59.3980810  93.7254808 104.4779810
  59.7080574  93.9343696 105.9450062  59.1238368 107.3972722  93.9335953
  60.0569041 107.3318284  94.1368829  59.0361581 108.2328989  93.4750486
  61.7526385 106.7138593  90.8939901  61.6740016 106.3798456  91.7875659
  62.5736052 107.2060361  90.8931373  64.4504576  99.5800332 104.1016220
  64.4180896  98.6416333 104.2875903  65.0605200  99.6584369 103.3682045
  56.2887907  98.4496385  90.1443424  57.2347012  98.3202593  90.2131842
  55.9102152  97.7111047  90.6212852  64.5999064  96.3711375 104.1474503
  64.0838113  95.5869832 103.9604432  65.4839013  96.0430092 104.3121022
  62.2609791  90.1152391 100.1070315  62.0634612  89.8067479 100.9913647
  62.8709497  90.8414030 100.2368245  70.2681126 100.6416339 103.2422256
  70.9984514 100.3801627 103.8029960  69.6588071  99.9045061 103.2824324
  68.3496423  98.7824201 103.8396708  67.6229586  98.6480166 103.2313199
  67.9343710  99.0901030 104.6453426  56.1726599 102.5014131 111.6044081
  57.0929609 102.6792730 111.7984127  56.1376182 101.5570176 111.4523780
  54.4730824  96.3746361  90.0798309  53.5662279  96.0779474  90.1561022
  54.7506805  96.0776179  89.2132595  45.3908764  97.6952725 100.5297355
  45.0711549  96.8418033 100.2371729  44.8442193  97.9101303 101.2855323
  49.1688672 100.4115166 104.2466862  49.3874682 101.3432274 104.2654896
  49.5814446 100.0523140 105.0321666  56.0892890  90.9183251  96.2342550
  55.2793618  90.5730336  96.6097796  56.7777307  90.6090795  96.8230162
  58.0183438  89.9961298  97.8566847  58.5714477  90.4156751  98.5156870
  58.2553524  89.0697046  97.8989803  54.0416537  95.9848372 113.6369611
  53.9413264  96.9342728 113.5681702  53.8238079  95.6566610 112.7645681
  45.2597024 101.3155636 102.4990477  44.5660496 100.9009589 101.9860431
  46.0070015 101.3576173 101.9023896  61.3962245  92.1061823  97.3645511
  60.8160914  92.7646627  96.9823563  61.1298178  91.2839168  96.9532929
  59.8465811  91.5066881  99.5666831  60.3465590  91.6183415  98.7581150
  60.4901419  91.2027934 100.2067640  53.9047807  99.4145510 112.4534672
  53.4214889 100.2145870 112.6598561  53.9908746  99.4253455 111.5002116
  47.1733767 101.2473890 100.3756492  47.1504455 101.3461577  99.4238375
  47.4834403 102.0939041 100.6973658  49.8321145 103.3050045 104.4903106
  50.7864398 103.2733987 104.4233038  49.6333668 102.8440669 105.3053332
  50.4220527 101.8751161 107.0573904  51.2413416 102.3695240 107.0808741
  50.6957335 100.9583129 107.0291471  60.1787123  94.2661913  96.4201859
  59.2912978  94.5511564  96.2022054  60.5941112  94.1055677  95.5729136
  63.5301659  94.2908434 100.1356199  64.3062049  94.7804887 100.4080815
  62.8049793  94.7166489 100.5928068  65.9674218  95.0036054 101.1930139
  66.5618709  94.7631790 100.4823447  66.0400802  94.2843184 101.8203676
  48.1871374 108.8469665 101.5073304  48.0525841 108.0870065 100.9411302
  47.7703436 109.5710564 101.0402093  59.3230337 104.0306588  90.5149879
  60.0266187 104.2356591  91.1307535  58.5992985 104.5983350  90.7798963
  60.1528147  99.7816449  96.6352150  60.0963348 100.2385001  95.7959782
  60.7056489  99.0207134  96.4574992  63.9632953  95.5706181  97.4602269
  63.7069887  95.1702817  98.2910477  63.3385821  96.2849975  97.3352408
  68.2745291  98.3102254  99.9673560  67.7144849  98.3795444 100.7405122
  67.6688794  98.1343239  99.2473057  51.3440499 109.7438982 101.7191747
  51.2272884 110.6884414 101.6170437  50.5232946 109.4412543 102.1077546
  61.2317034 104.4689117  92.5648339  62.0662638 104.0370316  92.3825814
  61.0701377 104.2971131  93.4925234  60.8862926 100.9721231  93.9304679
  60.8311730 100.8065502  92.9893123  60.2608981 101.6797264  94.0866868
  45.6755441  96.2089295 107.7566101  46.3214305  95.6988249 108.2453326
  45.4672592  96.9457977 108.3309526  52.3695014 110.3967243 104.9347675
  53.2722260 110.4290854 105.2514170  52.1432384 109.4667694 104.9494011
  54.1248616 109.1498230 101.5957754  53.1744247 109.1500092 101.4822126
  54.4281102 108.4030965 101.0793788  50.0152932  93.3556912 111.8541115
  50.8784394  92.9993717 112.0644440  49.4418343  93.0170807 112.5416519
  66.6691015 114.9386197 102.5965041  66.3309527 114.8227261 101.7085576
  67.5380784 114.5377362 102.5766047  62.5277831 116.7921673  98.5861932
  61.9642696 116.7011610  97.8178220  62.4130226 115.9721577  99.0664424
  60.0742263 118.2872865 101.4246152  60.8663555 117.9463689 101.0092452
  60.3138913 118.3967840 102.3448306  68.1077390 120.4592641  93.8976397
  67.4565369 121.0446721  93.5110410  68.9021753 120.9898836  93.9571434
  62.0333017 117.5481778  94.2963531  62.8063893 117.0010765  94.1576407
  62.3858416 118.4126027  94.5077992  64.3699295 113.7074444  91.9281981
  64.6224815 113.1855965  91.1665444  63.4323854 113.5440589  92.0308665
  69.4142578 112.7110222  99.7356724  70.2005667 112.2929645  99.3847141
  69.6781282 113.6156314  99.9038373  69.5852655 118.1483073  94.4345381
  68.9498488 118.2217699  95.1466286  69.2550061 118.7376671  93.7564460
  74.8151005 112.6485455 100.6389703  75.5476177 112.0784672 100.8727532
  74.0590360 112.2607056 101.0796208  64.0895583 115.6102550  94.1306356
  63.9731842 114.9347453  94.7987440  64.1997843 115.1234924  93.3138509
  66.4327124 115.0712697  97.8353045  66.0685332 114.5443318  98.5465967
  67.2894240 114.6811166  97.6619531  72.3376425 106.3607030 105.0984311
  72.0059750 107.2302441 104.8745526  71.7422038 106.0443314 105.7778342
  66.0732611 110.1002597  92.8314394  66.2407014 110.9682833  93.1984865
  65.8829780 110.2629878  91.9075683  62.2820426 115.0133372 100.5316928
  61.3570922 114.8809587 100.7394620  62.5304839 115.7927592 101.0286871
  66.0521832 112.5560254  93.8161060  65.9321457 113.0017305  94.6546541
  65.3574421 112.9045572  93.2574599  59.6429237 114.6566646 101.3660718
  59.7721618 114.9101125 102.2800129  58.9626688 115.2494354 101.0465373
  63.8128724 125.3263896  97.4651192  63.7352754 126.2771721  97.5439672
  63.2090368 124.9809768  98.1226118  71.7506898 113.0281727  94.6441395
  72.6624754 113.2609114  94.4689092  71.2416545 113.6118772  94.0816473
  69.0942873 109.2039763 102.8931255  68.2327352 109.5021017 103.1847993
  69.1205308 109.4210162 101.9612288  65.9104443 117.7481954  99.3005061
  66.3742788 118.0269657  98.5109684  65.6461241 116.8465398  99.1178152
  62.8028524 117.2953435 102.2384824  63.3729881 117.7240704 101.6002309
  63.3936635 117.0136020 102.9369010  64.8473329 113.8705106  96.1094626
  65.5497372 114.3226150  96.5768553  64.5153957 113.2288925  96.7374519
  58.5898663 112.1288659 101.4111760  57.7997717 112.3846187 100.9351870
  59.0809910 112.9436997 101.5163800  60.5413408 112.4933238  98.3695237
  59.7444571 112.6051932  98.8878732  60.3139000 112.8319890  97.5036127
  56.8736366 112.3819149 103.8426751  57.1244404 113.2666159 104.1084327
  57.4095914 112.2023751 103.0701842  66.0867093 120.6846049  96.1856731
  65.9512768 121.5297585  96.6141579  66.6276906 120.8865327  95.4222665
  59.5396491 118.2021487  96.7584657  60.0521011 118.9964737  96.9090221
  60.1919203 117.5047777  96.6918258  61.3491375 121.3187243  98.8407410
  61.5258004 122.2405208  98.6528394  62.1448209 121.0045662  99.2701790
  69.4359557 104.2076611 104.7155625  69.0923826 105.0978252 104.6394736
  69.8038519 104.0178268 103.8525210  57.5045407 116.5310141  97.5344227
  58.3420629 116.9407150  97.3177935  57.6823675 115.5909583  97.5044421
  69.4009840 114.1985222  93.2228060  68.8856463 114.9689826  93.4616447
  69.1287148 113.5250358  93.8461121  66.9856951 109.0434923  98.2813298
  66.1298547 108.6541773  98.1018937  67.3983902 109.1226883  97.4213084
  68.5156097 106.5781266 102.6804858  68.0120893 106.5411401 101.8672663
  68.8086704 107.4874009 102.7401515  64.7598983 106.6619996 101.6871040
  65.6251980 106.4662804 101.3276929  64.8276492 106.4330347 102.6140397
  74.3744114 116.9517576  95.1581234  73.5973556 116.6128736  94.7136396
  75.0535595 116.9570200  94.4836199  69.1896143 112.0712314  95.0487841
  68.8846278 112.3858463  95.8997984  70.1426585 112.1493734  95.0915174
  67.6342575 118.2302537  96.6980795  67.1063936 117.4955297  96.3854033
  67.1330077 119.0077214  96.4520764  62.3661302 108.8922204  99.0587407
  62.9405054 108.6697385  98.3260600  62.9532285 108.9610898  99.8116008
  71.4240879 114.7795930  99.8651783  71.9372761 115.4125922 100.3673493
  72.0742103 114.1797126  99.4995143  62.6930889 110.9226665  93.0783292
  61.8568202 111.2601351  93.3992567  62.5535659 110.7875644  92.1410429
  64.6683970 105.7663452  97.7862476  64.0148382 105.4512470  97.1619091
  64.6264444 105.1439193  98.5122299  65.7795175 116.0482748  89.7015768
  64.8722236 115.8172001  89.9006917  66.2766207 115.2520367  89.8889750
  68.6863254 124.7580255  92.6212454  68.0124952 125.0611951  93.2297412
  69.0729076 125.5609335  92.2717911  67.9021710 112.2545386 102.1110124
  66.9844272 112.4760333 101.9531812  68.3181854 112.3291696 101.2521831
  68.6856758 113.6536802  97.2412804  69.4328577 114.1658199  96.9319926
  68.9548348 113.3320854  98.1017198  66.9583408 116.1495342  94.2239758
  66.0494627 115.8654375  94.3212228  66.9878492 116.5694421  93.3643065
  71.1335595 110.6893918  99.2231593  70.3958352 110.1771304  99.5541836
  71.3862369 110.2494300  98.4114870  71.2347222 103.4670170  99.8173363
  71.5406099 102.6067533  99.5299278  71.9599827 104.0587790  99.6172357
  57.5271579 113.8700857  98.2054961  57.3295978 113.2770217  97.4806027
  56.9718243 113.5653067  98.9230899  65.5068302 113.7623963 100.3249554
  65.5616912 112.8097799 100.2492030  64.6959504 113.9183402 100.8090852
  66.6559496 117.6904086  91.5627837  66.2178926 116.9739945  91.1033474
  67.3969937 117.9180201  91.0012928  63.4460662 112.3801023  98.0839933
  62.6328528 112.6795193  98.4905125  63.9419656 111.9856712  98.8014415
  74.7732611 115.9661283  97.6204155  74.6350509 116.1562879  96.6925345
  74.4168830 116.7280666  98.0772207  62.9374737 109.9519378 103.7001167
  63.5774116 109.8108137 103.0024131  62.1052267 109.6653892 103.3239769
  63.7135041 119.2521809  99.8136160  64.5075639 118.7572129  99.6118735
  63.0026733 118.7239672  99.4503866  60.0217804 113.3964890  95.8895913
  59.0915392 113.3349346  96.1065875  60.1175276 112.8740843  95.0932554
  59.9403353 109.9219703  98.4774154  60.2010171 110.8365036  98.3683315
  60.7620526 109.4544146  98.6270767  61.4128279 111.3357460 105.6472979
  62.0851332 111.1274823 104.9985628  60.5858065 111.1379546 105.2078211
  66.8854469 124.9259927  94.8359534  67.0606224 124.4547970  95.6505156
  66.1987257 125.5525693  95.0640794  70.7770724 116.5488468  91.1559894
  70.1599894 115.8235296  91.0592947  70.3087212 117.3097828  90.8126969
  62.5669270 110.7673892  90.2781199  61.6898736 110.6462693  89.9143445
  63.0427023 109.9759970  90.0260087  54.0871410 115.5551052 100.3722706
  54.7742449 115.2412782  99.7843721  53.9319538 116.4592416 100.0989957
  58.8906132 110.4441248 104.8007730  58.8064321 109.8366918 104.0658140
  58.0688838 110.9350267 104.8017226  65.7533196 123.1200182  97.5243719
  64.9700717 123.6621863  97.6181944  66.4525941 123.6374162  97.9237960
  69.0629846 108.9294812 100.1677925  69.5598545 108.1764774  99.8478995
  68.2916827 108.9659128  99.6021134  70.1459626 117.6866499  97.7416348
  69.2115905 117.8067962  97.5721052  70.3236295 116.7838966  97.4776358
  65.6464814 111.0712195  99.8949609  65.2762602 110.5183235 100.5830515
  66.1423907 110.4670328  99.3424609  73.5332178 113.5283818  98.2766382
  73.9992630 114.3611810  98.2026685  73.9839678 113.0628800  98.9811641
  71.6008409 119.8727640  95.2752534  71.8768253 119.7584234  96.1846408
  70.7312908 119.4745124  95.2364707  71.5048840 105.8964405 102.3157284
  70.5911920 106.1268632 102.4839490  71.9341942 105.9802849 103.1671316
  68.5704638 123.0482176  96.1800396  69.0992405 122.5374630  95.5670558
  68.8332858 122.7324706  97.0445929  53.6639386 113.6351645 102.6440173
  53.7023485 113.1015236 103.4377291  53.1579679 113.1086851 102.0251150
  61.0430148 108.4816186 106.1402715  61.1071475 109.3431017 105.7280113
  60.9797268 107.8690187 105.4075074  57.2947963 112.3615747  95.7194104
  57.5901404 111.4526426  95.6661158  56.3935999 112.3403487  95.3975107
  60.8242210 110.4371744 101.7021653  60.1028796 111.0507712 101.5629126
  61.6135466 110.9729509 101.6238299  59.0235805 110.0429845  95.8433430
  58.6948511 109.1627224  95.6608535  59.3775176 109.9877514  96.7309819
  62.1377628 110.3302815  96.2108907  62.4773701 110.8588736  95.4887516
  62.5849749 110.6683221  96.9867474  64.8321069 108.7139865 105.6611975
  64.4917889 107.9147678 106.0632655  64.1260075 109.0141576 105.0888808
  65.4837541 105.7989178 104.1139298  66.3063610 105.3249656 103.9918189
  65.7275604 106.5779662 104.6137985  64.1245775 108.8277436  94.4102200
  64.8454138 109.2058689  93.9065917  63.5011079 109.5466313  94.5137178
  68.2676898 109.5322585  95.3460532  68.4840512 110.4147223  95.0449360
  67.7870965 109.1408799  94.6166174  63.0076119 112.4908298 101.9231277
  62.8620700 112.8048602 102.8155558  62.5301323 113.1093199 101.3702176
  64.8672502 109.4810846 101.9712166  64.8534071 108.5851940 101.6344464
  65.5844930 109.4881510 102.6050453  66.7198633 109.9148187 104.0165294
  66.4616411 110.8365257 104.0149624  66.1883673 109.5178621 104.7065758
  57.4821782 115.0313643 104.8618938  56.9375250 115.8073451 104.9939212
  58.3601132 115.3784447 104.7038060  64.2709398 108.3625227  97.2399737
  64.3925310 107.4341873  97.4390624  63.9811441 108.3763913  96.3278052
  67.1400589 106.0480137 100.3766456  67.1622286 106.1119470  99.4218436
  67.5568648 105.2084646 100.5706963  72.6519994 122.3365738  93.8952278
  73.3470899 122.9572431  94.1139592  72.9943144 121.4861089  94.1704655
  74.5511417 119.7865444  95.4239608  75.0762742 120.1252716  94.6988928
  74.4633770 118.8512459  95.2402743  58.7144417 122.0448968  99.7859490
  59.5402437 121.7452740  99.4058133  58.3638469 121.2756590 100.2349278
  56.9153022 119.9635294 100.7448423  56.0784931 119.5357469 100.5632424
  56.8876668 120.1567738 101.6819214  63.2439457 119.9479359  95.3315624
  63.3927578 120.6314824  94.6782296  64.0505901 119.9284450  95.8465079
  60.9992090 115.9744537  96.3376693  60.7538132 115.0706867  96.5356903
  61.1688005 115.9761688  95.3956171  68.6888800 106.8468213 105.7201448
  69.2070744 107.5829240 105.3947937  68.3343933 107.1532207 106.5548207
  60.2687738 111.7072895  93.8362854  59.5756983 111.7817250  93.1802890
  60.0239490 110.9433238  94.3584371  68.9401394 103.2668496 101.2402345
  69.2203148 102.5991685 101.8662771  69.7252001 103.4597592 100.7277009
  66.7434863 122.4427490  92.8027371  66.1708830 123.0617677  92.3497843
  67.3167656 122.9926852  93.3367293  69.9632123 122.7264640  93.9335953
  70.8962796 122.6610202  94.1368829  69.8755335 123.5620907  93.4750486
  72.5920139 122.0430510  90.8939901  72.5133771 121.7090374  91.7875659
  73.4129806 122.5352278  90.8931373  67.1281661 113.7788303  90.1443424
  68.0740766 113.6494511  90.2131842  66.7495906 113.0402965  90.6212852
  73.1003546 105.4444309 100.1070315  72.9028367 105.1359397 100.9913647
  73.7103251 106.1705948 100.2368245  65.3124578 111.7038279  90.0798309
  64.4056034 111.4071392  90.1561022  65.5900559 111.4068097  89.2132595
  56.2302519 113.0244642 100.5297355  55.9105303 112.1709951 100.2371729
  55.6835947 113.2393221 101.2855323  60.0082426 115.7407083 104.2466862
  60.2268436 116.6724191 104.2654896  60.4208200 115.3815058 105.0321666
  66.9286644 106.2475169  96.2342550  66.1187372 105.9022254  96.6097796
  67.6171061 105.9382712  96.8230162  68.8577192 105.3253216  97.8566847
  69.4108231 105.7448669  98.5156870  69.0947279 104.3988964  97.8989803
  64.0823363 108.5625214  90.2210288  64.9442527 108.8880113  90.4806105
  64.2673707 107.7756710  89.7083354  56.0990779 116.6447554 102.4990477
  55.4054250 116.2301507 101.9860431  56.8463770 116.6868090 101.9023896
  72.2356000 107.4353741  97.3645511  71.6554669 108.0938545  96.9823563
  71.9691932 106.6131085  96.9532929  70.6859566 106.8358798  99.5666831
  71.1859344 106.9475333  98.7581150  71.3295174 106.5319851 100.2067640
  58.0127521 116.5765808 100.3756492  57.9898209 116.6753495  99.4238375
  58.3228158 117.4230959 100.6973658  71.0180878 109.5953831  96.4201859
  70.1306733 109.8803482  96.2022054  71.4334867 109.4347594  95.5729136
  74.3695414 109.6200352 100.1356199  75.1455804 110.1096805 100.4080815
  73.6443548 110.0458406 100.5928068  76.8067972 110.3327971 101.1930139
  77.4012463 110.0923707 100.4823447  76.8794556 109.6135102 101.8203676
  70.1624091 119.3598506  90.5149879  70.8659941 119.5648508  91.1307535
  69.4386740 119.9275268  90.7798963  70.9921901 115.1108367  96.6352150
  70.9357103 115.5676918  95.7959782  71.5450244 114.3499052  96.4574992
  74.8026707 110.8998099  97.4602269  74.5463641 110.4994735  98.2910477
  74.1779575 111.6141893  97.3352408  72.0710788 119.7981035  92.5648339
  72.9056392 119.3662233  92.3825814  71.9095131 119.6263049  93.4925234
  71.7256681 116.3013148  93.9304679  71.6705484 116.1357420  92.9893123
  71.1002736 117.0089181  94.0866868  56.5149196 111.5381213 107.7566101
  57.1608059 111.0280167 108.2453326  56.3066347 112.2749894 108.3309526
  65.0352806 105.8021257  93.5089997  65.0231476 106.7463097  93.6658268
  65.9276228 105.6191403  93.2149458  68.8504926 102.3964034  97.7635934
  68.0837321 101.8422521  97.9092616  69.2615630 102.4685903  98.6250086
  73.5324644 126.2518582  93.0783292  72.6961956 126.5893269  93.3992567
  73.3929413 126.1167562  92.1410429  73.4063024 126.0965810  90.2781199
  72.5292490 125.9754610  89.9143445  73.8820777 125.3051888  90.0260087
  71.1081492 127.0364812  93.8362854  70.4150737 127.1109167  93.1802890
  70.8633244 126.2725156  94.3584371  76.1518333 127.0330197  90.0798309
  75.2449788 126.7363309  90.1561022  76.4294314 126.7360015  89.2132595
  74.9217118 123.8917132  90.2210288  75.7836282 124.2172030  90.4806105
  75.1067462 123.1048628  89.7083354  75.8746561 121.1313175  93.5089997
  75.8625230 122.0755015  93.6658268  76.7669982 120.9483320  93.2149458
  15.6632538  15.3461303  89.3848823  16.3010948  15.2268050  88.6812163
  15.5453381  16.2942147  89.4436775  12.4722244  15.2988731  89.3210347
  12.1340756  15.1829795  88.4330882  13.3412012  14.8979896  89.3011354
   8.3309060  17.1524207  85.3107238   7.7673925  17.0614144  84.5423526
   8.2161455  16.3324112  85.7909731  13.9108619  20.8195175  80.6221703
  13.2596598  21.4049255  80.2355717  14.7052981  21.3501370  80.6816741
   7.8364246  17.9084312  81.0208838   8.6095122  17.3613299  80.8821713
   8.1889645  18.7728561  81.2323299  10.1730524  14.0676978  78.6527288
  10.4256044  13.5458499  77.8910751   9.2355083  13.9043124  78.7553971
  15.2173806  13.0712756  86.4602031  16.0036896  12.6532180  86.1092448
  15.4812511  13.9758849  86.6283679  15.3883884  18.5085607  81.1590688
  14.7529717  18.5820233  81.8711592  15.0581290  19.0979206  80.4809767
  20.6182233  13.0087990  87.3635009  21.3507405  12.4387206  87.5972839
  19.8621589  12.6209590  87.8041515   9.8926812  15.9705084  80.8551663
   9.7763070  15.2949987  81.5232747  10.0029072  15.4837458  80.0383816
  12.2358353  15.4315231  84.5598352  11.8716560  14.9045852  85.2711273
  13.0925469  15.0413700  84.3864837  11.8763840  10.4605131  79.5559700
  12.0438243  11.3285367  79.9230171  11.6861009  10.6232413  78.6320990
  14.6339173  18.9222110  91.2225531  14.3339896  19.8247149  91.1141338
  14.2890233  18.6554293  92.0746684  18.0336317  11.4404650  88.9022968
  17.1253194  11.3720058  88.6081729  17.9823913  11.9176595  89.7304793
  11.8553061  12.9162788  80.5406367  11.7352686  13.3619839  81.3791847
  11.1605649  13.2648106  79.9819905   9.6159953  25.6866430  84.1896498
   9.5383983  26.6374255  84.2684979   9.0121597  25.3412303  84.8471425
  17.5538127  13.3884262  81.3686701  18.4655983  13.6211648  81.1934399
  17.0447774  13.9721306  80.8061780  16.1607710  18.3710080  88.7600283
  15.5316572  18.5355794  88.0576350  15.7733372  18.7851690  89.5311247
  20.0396941  19.3064518  86.1144646  19.3547980  19.6863419  85.5641680
  20.1240791  19.9159844  86.8476594  11.7135671  18.1084488  86.0250368
  12.1774017  18.3872191  85.2354990  11.4492469  17.2067933  85.8423458
  10.6504557  14.2307640  82.8339933  11.3528601  14.6828684  83.3013859
  10.3185186  13.5891459  83.4619826  18.4093701  19.8296432  90.8862347
  19.2311145  19.4276620  90.6045029  18.4056104  19.7264666  91.8378463
  26.4999694  16.1735181  87.2347319  25.7463402  15.6042579  87.0791323
  26.6347235  16.1397845  88.1817953  11.8898322  21.0448583  82.9102038
  11.7543997  21.8900119  83.3386886  12.4308135  21.2467861  82.1467972
   5.3427719  18.5624021  83.4829963   5.8552240  19.3567271  83.6335528
   5.9950432  17.8650312  83.4163565   7.1522604  21.6789777  85.5652716
   7.3289232  22.6007742  85.3773700   7.9479438  21.3648197  85.9947096
   8.2753920  23.1967951  91.5663059   8.8261345  23.0685015  90.7940053
   7.4365396  23.4962840  91.2157951  15.2041068  14.5587756  79.9473367
  14.6887692  15.3292361  80.1861754  14.9318377  13.8852892  80.5706428
  20.1775342  17.3120111  81.8826540  19.4004785  16.9731270  81.4381702
  20.8566823  17.3172734  81.2081505  14.9927372  12.4314848  81.7733148
  14.6877507  12.7460997  82.6243291  15.9457814  12.5096268  81.8160481
  13.4373803  18.5905071  83.4226102  12.9095165  17.8557831  83.1099339
  12.9361306  19.3679748  83.1766070  18.4166649  16.7854092  88.5393148
  17.7590324  17.4753353  88.6273277  19.2207049  17.1750524  88.8827134
  17.2272108  15.1398465  86.5897090  17.7403990  15.7728456  87.0918800
  17.8773332  14.5399660  86.2240450  11.5826404  16.4085282  76.4261075
  10.6753465  16.1774535  76.6252224  12.0797436  15.6122901  76.6135056
  14.4894482  25.1182789  79.3457761  13.8156181  25.4214486  79.9542719
  14.8760304  25.9211869  78.9963218  14.4887987  14.0139336  83.9658111
  15.2359806  14.5260733  83.6565233  14.7579576  13.6923389  84.8262504
  12.7614637  16.5097877  80.9485065  11.8525856  16.2256909  81.0457535
  12.7909721  16.9296955  80.0888372  17.9933904  20.1204466  84.7176233
  17.5396231  19.2795376  84.7741423  17.3627871  20.7565864  85.0551013
  16.9366824  11.0496452  85.9476900  16.1989581  10.5373838  86.2787143
  17.1893597  10.6096834  85.1360177  16.4366844  21.9580963  85.6526051
  16.7289818  22.5186020  84.9338416  16.9465464  22.2509524  86.4079210
  11.3099531  14.1226497  87.0494860  11.3648141  13.1700334  86.9737337
  10.4990733  14.2785936  87.5336159  12.4590725  18.0506620  78.2873144
  12.0210155  17.3342479  77.8278781  13.2001166  18.2782735  77.7258235
   9.2491891  12.7403557  84.8085239   8.4359756  13.0397728  85.2150431
   9.7450885  12.3459246  85.5259721  11.4000469  22.7361314  86.7419504
  11.3576648  22.9622160  85.8128036  12.3163168  22.5024688  86.8905305
  20.5763840  16.3263817  84.3449462  20.4381738  16.5165413  83.4170651
  20.2200058  17.0883200  84.8017513  20.6033219  18.3940344  89.3560734
  21.0369726  18.3015633  90.2043788  21.3164800  18.3697845  88.7180750
   9.5166270  19.6124343  86.5381467  10.3106868  19.1174663  86.3364042
   8.8057962  19.0842206  86.1749172  14.3361114  21.9942438  90.8893834
  14.3898136  22.5633375  91.6571550  13.4675895  22.1644323  90.5247871
  21.4648769  18.4364045  91.8893619  21.6584659  19.3409855  92.1352894
  21.3649387  17.9771464  92.7232204  12.0937546  20.1853365  90.2179304
  11.9548631  19.8172149  91.0905242  11.3052142  20.7001004  90.0463261
  12.6885698  25.2862461  81.5604840  12.8637453  24.8150505  82.3750463
  12.0018486  25.9128228  81.7886101  13.6442761  19.5634968  87.6068141
  13.3092593  19.5235738  88.5025791  13.1446706  18.8979683  87.1338552
  16.5801952  16.9091002  77.8805201  15.9631123  16.1837830  77.7838254
  16.1118441  17.6700362  77.5372275   7.2546783  28.4351824  88.3344700
   7.4943381  29.0670348  89.0123719   6.4115979  28.0839864  88.6210060
  11.7674645  24.2430947  90.7386204  11.6944816  25.0485918  91.2505509
  11.3252038  24.4422912  89.9134226  11.5564424  23.4802717  84.2489026
  10.7731946  24.0224397  84.3427250  12.2557170  23.9976696  84.6483267
  14.8661074   9.2897346  86.8923231  15.3629774   8.5367308  86.5724302
  14.0948056   9.3261663  86.3266441  22.7190832  14.9937712  88.5341523
  22.7080708  15.8762427  88.1635456  21.8508211  14.6409262  88.3396060
  14.2273328  24.1417781  92.8944363  14.9401300  24.7765245  92.8220264
  13.7363357  24.2381647  92.0784365  15.9490855  18.0469033  84.4661655
  15.0147134  18.1670496  84.2966359  16.1267524  17.1441500  84.2021665
  19.3363406  13.8886353  85.0011689  19.8023859  14.7214344  84.9271991
  19.7870907  13.4231334  85.7056947  17.4039638  20.2330174  81.9997841
  17.6799482  20.1186768  82.9091715  16.5344136  19.8347659  81.9610014
  14.0393702  24.4816525  85.6430654  14.2216096  23.6638181  86.1058407
  14.8626688  24.6984217  85.2055544  14.3735867  23.4084710  82.9045703
  14.9023634  22.8977164  82.2915865  14.6364087  23.0927240  83.7691236
   7.7291615  24.4599826  85.6643479   7.0601990  24.9445954  85.1807519
   7.5904485  24.7069047  86.5786857  11.8696884  26.4943570  92.2626137
  12.4215192  26.6575192  93.0275222  12.2103077  27.0848008  91.5906162
  15.0065271  24.4425546  89.2489819  14.8816410  23.6415285  88.7400765
  15.6644362  24.9371739  88.7603789  17.0700179  22.2434566  90.8769370
  16.1230515  22.1239917  90.8047696  17.4182952  21.3557064  90.9595631
  14.0746613  22.0387282  87.0773722  13.9271575  21.1103989  87.2581292
  14.9000106  22.0607373  86.5930797  17.6780734  22.8615841  88.1638594
  18.6027282  22.6558702  88.0263046  17.5096038  22.6132242  89.0727936
  14.0708127   9.8925119  82.0705839  14.2871741  10.7749757  81.7694667
  13.5902194   9.5011333  81.3411481  17.4676051  23.3801508  83.5200686
  17.6412928  22.8147931  82.7674538  17.9604942  24.1802403  83.3380176
  23.3215442  16.1437931  85.1390986  23.7646588  15.3945256  84.7410109
  22.4441952  16.1348067  84.7564718  18.4551223  22.6968272  80.6197584
  19.1502128  23.3174965  80.8384899  18.7974373  21.8463624  80.8949962
  20.3542646  20.1467978  82.1484915  20.8793970  20.4855251  81.4234235
  20.2664999  19.2114993  81.9648050  12.0383307  26.2139961  86.5080168
  11.5988297  25.7216340  87.2013025  12.7891424  25.6712929  86.2672243
   4.5175646  22.4051502  86.5104796   5.3433666  22.1055274  86.1303440
   4.1669698  21.6359125  86.9594585   9.4857179  21.7577970  88.5802470
   8.8637188  21.0948675  88.2804698  10.1562046  21.7839102  87.8976118
   2.7184251  20.3237829  87.4693730   1.8816159  19.8960003  87.2877731
   2.6907896  20.5170272  88.4064521   9.0470686  20.3081894  82.0560930
   9.1958806  20.9917358  81.4027603   9.8537130  20.2886984  82.5710386
  21.6652624  20.0490289  95.0110863  21.3737433  20.4120270  95.8474324
  21.0524755  19.3357298  94.8324195  22.8648307  17.6143169  87.5313433
  23.6995198  18.0532973  87.6950994  23.0007435  17.1381822  86.7121679
   6.8023319  16.3347071  83.0621999   6.5569361  15.4309401  83.2602209
   6.9719234  16.3364222  82.1201477  12.5466092  22.8030024  79.5272678
  11.9740059  23.4220211  79.0743150  13.1198885  23.3529386  80.0612600
  15.7663351  23.0867174  80.6581260  16.6994025  23.0212736  80.8614136
  15.6786564  23.9223441  80.1995793  18.3951368  22.4033045  77.6185208
  18.3165000  22.0692908  78.5120966  19.2161035  22.8954812  77.6176680
  21.0929559  15.2694784  90.8261526  21.0605879  14.3310785  91.0121210
  21.7030183  15.3478821  90.0927351  12.9312890  14.1390837  76.8688730
  13.8771995  14.0097045  76.9377148  12.5527135  13.4005499  77.3458158
  26.9106109  16.3310791  89.9667563  27.6409498  16.0696079  90.5275266
  26.3013055  15.5939513  90.0069631  24.9921406  14.4718653  90.5642014
  24.2654570  14.3374618  89.9558506  24.5768693  14.7795482  91.3698732
  11.1155807  12.0640813  76.8043616  10.2087263  11.7673926  76.8806329
  11.3931788  11.7670631  75.9377902  18.0387228   7.7956275  84.0890818
  17.4585897   8.4541079  83.7068870  17.7723161   6.9733620  83.6778235
  16.8212106   9.9556365  83.1447166  15.9337961  10.2406016  82.9267361
  17.2366095   9.7950129  82.2974443  20.1726643   9.9802886  86.8601505
  20.9487033  10.4699339  87.1326122  19.4474777  10.4060940  87.3173375
  22.6099201  10.6930506  87.9175446  23.2043692  10.4526241  87.2068754
  22.6825785   9.9737636  88.5448982   4.8296357  24.5364116  88.2318611
   4.6950825  23.7764517  87.6656609   4.4128419  25.2605016  87.7647400
  15.9655320  19.7201040  77.2395186  16.6691170  19.9251042  77.8552842
  15.2417969  20.2877802  77.5044270  16.7953130  15.4710901  83.3597456
  16.7388332  15.9279453  82.5205089  17.3481473  14.7101586  83.1820299
  20.6057936  11.2600633  84.1847576  20.3494870  10.8597269  85.0155783
  19.9810804  11.9744427  84.0597715  24.9170274  13.9996706  86.6918867
  24.3569832  14.0689896  87.4650429  24.3113777  13.8237691  85.9718363
   7.9865483  25.4333433  88.4437053   7.8697867  26.3778866  88.3415744
   7.1657929  25.1306995  88.8322853  17.8742017  20.1583569  79.2893646
  18.7087621  19.7264768  79.1071121  17.7126360  19.9865583  80.2170541
  17.5287909  16.6615682  80.6549985  17.4736713  16.4959954  79.7138429
  16.9033965  17.3691715  80.8112175   9.0119997  26.0861695  91.6592982
   9.9147244  26.1185306  91.9759477   8.7857367  25.1562146  91.6739318
  10.7673599  24.8392682  88.3203060   9.8169230  24.8394544  88.2067433
  11.0706085  24.0925416  87.8039095  26.5026292  30.6753220  89.3848823
  27.1404702  30.5559968  88.6812163  26.3847135  31.6234064  89.4436775
  23.3115999  30.6280648  89.3210347  22.9734510  30.5121713  88.4330882
  24.1805767  30.2271813  89.3011354  19.1702814  32.4816125  85.3107238
  18.6067679  32.3906062  84.5423526  19.0555209  31.6616029  85.7909731
  23.7935782  31.7815500  95.2796553  23.7824422  31.3868298  94.4077057
  23.9556421  31.0481573  95.8730324  16.7167246  33.9767316  88.1491459
  17.5088538  33.6358141  87.7337758  16.9563896  34.0862291  89.0693612
  24.7502373  36.1487093  80.6221703  24.0990353  36.7341173  80.2355717
  25.5446736  36.6793287  80.6816741  18.6758000  33.2376230  81.0208838
  19.4488876  32.6905217  80.8821713  19.0283399  34.1020479  81.2323299
  20.5143043  34.5652612  94.2275737  20.2232909  35.4698243  94.1122403
  21.1500027  34.6069140  94.9419807  21.4399250  31.9429460  90.8177097
  22.0362822  31.7185483  90.1034060  21.4974221  31.2014206  91.4202544
  21.0124278  29.3968896  78.6527288  21.2649799  28.8750417  77.8910751
  20.0748837  29.2335041  78.7553971  26.0567561  28.4004674  86.4602031
  26.8430650  27.9824097  86.1092448  26.3206265  29.3050766  86.6283679
  26.2277638  33.8377524  81.1590688  25.5923471  33.9112151  81.8711592
  25.8975045  34.4271123  80.4809767  31.4575988  28.3379907  87.3635009
  32.1901160  27.7679124  87.5972839  30.7015344  27.9501508  87.8041515
  20.7320567  31.2997002  80.8551663  20.6156825  30.6241905  81.5232747
  20.8422827  30.8129376  80.0383816  23.0752108  30.7607149  84.5598352
  22.7110315  30.2337770  85.2711273  23.9319224  30.3705618  84.3864837
  28.9801408  22.0501481  91.8229618  28.6484733  22.9196892  91.5990833
  28.3847022  21.7337765  92.5023648  22.7157595  25.7897049  79.5559700
  22.8831997  26.6577285  79.9230171  22.5254764  25.9524330  78.6320990
  25.4732928  34.2514027  91.2225531  25.1733651  35.1539066  91.1141338
  25.1283987  33.9846211  92.0746684  18.9245409  30.7027824  87.2562235
  17.9995906  30.5704038  87.4639927  19.1729823  31.4822044  87.7532177
  28.8730072  26.7696568  88.9022968  27.9646949  26.7011976  88.6081729
  28.8217667  27.2468513  89.7304793  22.6946816  28.2454706  80.5406367
  22.5746441  28.6911757  81.3791847  21.9999404  28.5940024  79.9819905
  16.2854220  30.3461098  88.0906024  16.4146602  30.5995577  89.0045436
  15.6051672  30.9388806  87.7710679  20.4553708  41.0158348  84.1896498
  20.3777737  41.9666173  84.2684979  19.8515351  40.6704220  84.8471425
  22.9470937  28.1886213  96.8457865  22.1704271  28.7480133  96.8360730
  23.5861500  28.6742996  97.3672735  30.7391718  24.9713006  90.6800842
  30.0966098  25.2645539  90.0340636  30.2346647  24.8565926  91.4854039
  28.3931882  28.7176179  81.3686701  29.3049738  28.9503566  81.1934399
  27.8841529  29.3013223  80.8061780  21.2017310  30.9971667  96.4075832
  21.9431994  31.5356711  96.1310656  20.4954295  31.6237955  96.5647384
  26.6772649  33.1400807  95.0047994  27.0856005  32.6983218  94.2602626
  25.9549911  32.5653435  95.2582187  23.0303719  28.0773414  92.3781551
  23.8764915  28.5012827  92.5216200  22.9702357  27.4207038  93.0720114
  27.0001464  33.7001998  88.7600283  26.3710326  33.8647712  88.0576350
  26.6127126  34.1143607  89.5311247  30.8790696  34.6356436  86.1144646
  30.1941734  35.0155337  85.5641680  30.9634545  35.2451762  86.8476594
  26.1803165  25.7377782  94.0362724  25.9364097  26.4919843  93.4997000
  26.4563095  26.1163130  94.8709971  28.1341627  32.2816395  92.7139990
  28.3458523  32.9248154  92.0374371  28.0871376  31.4478711  92.2461920
  25.7367856  24.8934215  89.6176562  24.8752335  25.1915469  89.9093300
  25.7630291  25.1104614  88.6857595  22.5529426  33.4376406  86.0250368
  23.0167771  33.7164109  85.2354990  22.2886224  32.5359850  85.8423458
  19.4453507  32.9847887  88.9630131  20.0154864  33.4135156  88.3247615
  20.0361619  32.7030472  89.6614317  21.4898312  29.5599558  82.8339933
  22.1922355  30.0120602  83.3013859  21.1578940  28.9183377  83.4619826
  19.9378673  28.1511315  97.2091142  19.3077334  28.8327596  97.4426539
  19.8314761  28.0394396  96.2644281  15.2323646  27.8183111  88.1357066
  14.4422700  28.0740639  87.6597177  15.7234893  28.6331449  88.2409107
  29.2487455  35.1588350  90.8862347  30.0704899  34.7568537  90.6045029
  29.2449858  35.0556584  91.8378463  17.1838391  28.1827690  85.0940543
  16.3869555  28.2946384  85.6124039  16.9563983  28.5214342  84.2281434
  23.0144059  34.7072393  93.0423058  23.0788491  35.1692800  93.8781230
  22.3054983  34.0769758  93.1705368  13.5161349  28.0713601  90.5672057
  13.7669387  28.9560611  90.8329633  14.0520897  27.8918203  89.7947149
  37.3393448  31.5027098  87.2347319  36.5857157  30.9334497  87.0791323
  37.4740990  31.4689763  88.1817953  22.7292077  36.3740501  82.9102038
  22.5937751  37.2192036  83.3386886  23.2701889  36.5759778  82.1467972
  16.1821474  33.8915939  83.4829963  16.6945995  34.6859189  83.6335528
  16.8344187  33.1942229  83.4163565  17.9916359  37.0081695  85.5652716
  18.1682987  37.9299660  85.3773700  18.7873192  36.6940114  85.9947096
  22.1327377  23.8689960  97.1636650  22.8737091  24.4697113  97.0841112
  22.3645300  23.1267597  96.6054692  17.2768715  29.0546327  95.4414880
  17.1622230  28.1531584  95.7421978  16.4213233  29.3010024  95.0899696
  24.3560553  36.9964067  97.0402380  23.9124407  36.2100446  96.7223285
  25.0177767  37.1843218  96.3746271  19.1147674  38.5259869  91.5663059
  19.6655099  38.3976932  90.7940053  18.2759150  38.8254758  91.2157951
  26.4541791  37.2766867  95.0683781  26.4360266  38.0975748  94.5764051
  27.3761711  37.1520942  95.2933923  22.9114845  34.7910997  95.9107290
  23.4443182  34.0299285  95.6806598  22.3828926  34.4984648  96.6531444
  26.0784540  19.8971063  91.4400932  25.7348810  20.7872704  91.3640042
  26.4463503  19.7072720  90.5770517  14.1470391  32.2204593  84.2589534
  14.9845613  32.6301601  84.0423241  14.3248658  31.2804035  84.2289728
  26.0434823  29.8879674  79.9473367  25.5281446  30.6584278  80.1861754
  25.7712131  29.2144810  80.5706428  23.6281934  24.7329375  85.0058605
  22.7723530  24.3436225  84.8264244  24.0408886  24.8121335  84.1458391
  25.1581081  22.2675718  89.4050165  24.6545876  22.2305853  88.5917970
  25.4511687  23.1768461  89.4646821  21.4023966  22.3514448  88.4116347
  22.2676963  22.1557256  88.0522236  21.4701475  22.1224799  89.3385703
  31.0169097  32.6412028  81.8826540  30.2398540  32.3023188  81.4381702
  31.6960578  32.6464652  81.2081505  25.8321126  27.7606766  81.7733148
  25.5271262  28.0752915  82.6243291  26.7851568  27.8388186  81.8160481
  24.2767558  33.9196989  83.4226102  23.7488919  33.1849749  83.1099339
  23.7755061  34.6971665  83.1766070  29.2560404  32.1146010  88.5393148
  28.5984078  32.8045271  88.6273277  30.0600803  32.5042442  88.8827134
  19.0086285  24.5816655  85.7832713  19.5830037  24.3591837  85.0505906
  19.5957268  24.6505350  86.5361315  28.0665863  30.4690382  86.5897090
  28.5797744  31.1020374  87.0918800  28.7167087  29.8691578  86.2240450
  19.3355873  26.6121116  79.8028599  18.4993185  26.9495803  80.1237873
  19.1960642  26.4770096  78.8655736  21.3108953  21.4557904  84.5107783
  20.6573366  21.1406922  83.8864398  21.2689427  20.8333645  85.2367606
  22.4220158  31.7377199  76.4261075  21.5147220  31.5066453  76.6252224
  22.9191190  30.9414819  76.6135056  25.3288237  40.4474707  79.3457761
  24.6549936  40.7506403  79.9542719  25.7154059  41.2503787  78.9963218
  24.5446694  27.9439838  88.8355430  23.6269255  28.1654785  88.6777118
  24.9606837  28.0186148  87.9767138  25.3281741  29.3431254  83.9658111
  26.0753560  29.8552651  83.6565233  25.5973331  29.0215306  84.8262504
  23.6008391  31.8389794  80.9485065  22.6919611  31.5548827  81.0457535
  23.6303475  32.2588873  80.0888372  28.8327659  35.4496384  84.7176233
  28.3789986  34.6087294  84.7741423  28.2021626  36.0857782  85.0551013
  27.7760578  26.3788370  85.9476900  27.0383335  25.8665756  86.2787143
  28.0287352  25.9388751  85.1360177  27.2760598  37.2872880  85.6526051
  27.5683573  37.8477938  84.9338416  27.7859219  37.5801441  86.4079210
  27.8772206  19.1564622  86.5418669  28.1831083  18.2961985  86.2544584
  28.6024811  19.7482242  86.3417663  14.1696562  29.5595308  84.9300267
  13.9720962  28.9664669  84.2051334  13.6143226  29.2547519  85.6476206
  22.1493286  29.4518415  87.0494860  22.2041895  28.4992251  86.9737337
  21.3384488  29.6077854  87.5336159  23.2984479  33.3798538  78.2873144
  22.8603909  32.6634397  77.8278781  24.0394920  33.6074653  77.7258235
  20.0885645  28.0695475  84.8085239  19.2753511  28.3689645  85.2150431
  20.5844640  27.6751163  85.5259721  22.2394223  38.0653232  86.7419504
  22.1970402  38.2914078  85.8128036  23.1556922  37.8316606  86.8905305
  25.6859857  28.5337299  93.6400133  26.0409245  28.7608772  94.4994599
  26.3331988  28.8655676  93.0177388  31.4157594  31.6555735  84.3449462
  31.2775493  31.8457331  83.4170651  31.0593813  32.4175118  84.8017513
  19.5799720  25.6413830  90.4246474  20.2199100  25.5002589  89.7269437
  18.7477251  25.3548344  90.0485076  31.4426974  33.7232262  89.3560734
  31.8763480  33.6307551  90.2043788  32.1558554  33.6989762  88.7180750
  20.3560024  34.9416261  86.5381467  21.1500623  34.4466581  86.3364042
  19.6451716  34.4134124  86.1749172  25.1754869  37.3234356  90.8893834
  25.2291891  37.8925292  91.6571550  24.3069650  37.4936241  90.5247871
  16.6642788  29.0859342  82.6141219  15.7340376  29.0243798  82.8311181
  16.7600260  28.5635295  81.8177861  16.5828337  25.6114155  85.2019461
  16.8435154  26.5259488  85.0928621  17.4045509  25.1438598  85.3516074
  18.0553262  27.0251912  92.3718285  18.7276315  26.8169274  91.7230934
  17.2283048  26.8273998  91.9323518  32.3042523  33.7655963  91.8893619
  32.4978413  34.6701773  92.1352894  32.2043141  33.3063382  92.7232204
  23.9578834  23.6513853  94.3883946  23.3106749  24.3503803  94.2948423
  24.7279849  24.0849997  94.7560195  27.3657632  33.9162705  97.4634500
  27.2143138  33.6873257  96.5464583  27.3562311  34.8733307  97.4765845
  24.1342968  31.4894618  92.4480766  25.0635028  31.6405778  92.2749733
  23.7133998  31.5778639  91.5929413  22.9331300  35.5145283  90.2179304
  22.7942386  35.1464067  91.0905242  22.1445896  36.0292922  90.0463261
  23.5279452  40.6154379  81.5604840  23.7031208  40.1442422  82.3750463
  22.8412240  41.2420145  81.7886101  24.4836515  34.8926885  87.6068141
  24.1486348  34.8527655  88.5025791  23.9840461  34.2271601  87.1338552
  18.4580759  30.2994515  93.1320723  18.3200557  29.5674754  93.7332262
  19.3685683  30.2103415  92.8504910  27.4195707  32.2382920  77.8805201
  26.8024878  31.5129748  77.7838254  26.9512195  32.9992280  77.5372275
  21.0863060  30.0114475  92.6204402  21.7962678  29.3707667  92.5791021
  21.0432368  30.2627369  93.5430583  29.0749839  36.9481828  95.5410981
  29.0162385  36.2641048  94.8741564  29.4769357  37.6900818  95.0891607
  19.7991994  26.9979692  94.4400042  19.2629351  26.5470431  95.0921638
  19.2108702  27.1325601  93.6970506  18.0940537  43.7643742  88.3344700
  18.3337136  44.3962266  89.0123719  17.2509734  43.4131782  88.6210060
  19.2094253  26.4568344  77.0026505  18.3323719  26.3357145  76.6388752
  19.6852006  25.6654422  76.7505394  29.0767246  34.9121412  93.7724961
  28.1894025  34.5747334  93.8951360  29.6465797  34.1804443  94.0093727
  10.7296393  31.2445504  87.0968013  11.4167433  30.9307234  86.5089028
  10.5744522  32.1486868  86.8235264  15.5331115  26.1335700  91.5253036
  15.4489304  25.5261370  90.7903446  14.7113821  26.6244718  91.5262533
  22.6068399  39.5722864  90.7386204  22.5338571  40.3777836  91.2505509
  22.1645792  39.7714830  89.9134226  22.3958179  38.8094634  84.2489026
  21.6125701  39.3516314  84.3427250  23.0950924  39.3268614  84.6483267
  25.7054829  24.6189264  86.8923231  26.2023528  23.8659226  86.5724302
  24.9341810  24.6553580  86.3266441  33.5584586  30.3229629  88.5341523
  33.5474463  31.2054345  88.1635456  32.6901966  29.9701180  88.3396060
  25.0667083  39.4709698  92.8944363  25.7795055  40.1057163  92.8220264
  24.5757111  39.5673564  92.0784365  26.7884610  33.3760951  84.4661655
  25.8540888  33.4962413  84.2966359  26.9661278  32.4733418  84.2021665
  22.2889798  26.7606647  86.6194916  21.9187585  26.2077687  87.3075821
  22.7848890  26.1564780  86.0669916  30.1757161  29.2178270  85.0011689
  30.6417613  30.0506262  84.9271991  30.6264661  28.7523252  85.7056947
  20.1178996  37.2204142  93.7149934  20.8188456  37.8540625  93.8679328
  19.6474111  37.5618873  92.9545573  28.2433392  35.5622092  81.9997841
  28.5193236  35.4478686  82.9091715  27.3737891  35.1639576  81.9610014
  28.1473824  21.5858857  89.0402590  27.2336904  21.8163084  89.2084797
  28.5766925  21.6697301  89.8916623  27.9180282  29.7748749  91.5402484
  27.2651732  30.0224657  90.8854937  28.2960662  28.9612887  91.2064961
  24.8787456  39.8108442  85.6430654  25.0609851  38.9930098  86.1058407
  25.7020442  40.0276135  85.2055544  25.2129622  38.7376627  82.9045703
  25.7417388  38.2269082  82.2915865  25.4757841  38.4219158  83.7691236
  23.9667855  30.5168560  98.0268521  23.2908492  30.4162690  98.6970896
  24.7895489  30.3607774  98.4904518  15.7146714  36.7540497  90.6481037
  16.3000151  36.0084185  90.7808941  15.5171553  37.0644453  91.5317700
  18.5685370  39.7891744  85.6643479  17.8995745  40.2737872  85.1807519
  18.4298239  40.0360965  86.5786857  10.3064369  29.3246097  89.3685480
  10.3448469  28.7909688  90.1622598   9.8004662  28.7981302  88.7496457
  22.7090638  41.8235488  92.2626137  23.2608946  41.9867109  93.0275222
  23.0496832  42.4139926  91.5906162  17.6855131  24.1710637  92.8648022
  17.7496458  25.0325468  92.4525420  17.6222252  23.5584639  92.1320380
  17.1607404  26.2433770  96.5121056  17.7879443  25.8610847  97.1258581
  16.3035323  26.0247972  96.8776749  27.5601512  36.6496745  98.1174792
  28.1041416  37.2626703  97.6229746  26.9788357  37.2076324  98.6341805
  13.9372947  28.0510199  82.4439411  14.2326388  27.1420878  82.3906465
  13.0360982  28.0297939  82.1220413  25.8459025  39.7717463  89.2489819
  25.7210165  38.9707203  88.7400765  26.5038117  40.2663657  88.7603789
  17.4667194  26.1266196  88.4266960  16.7453779  26.7402163  88.2874433
  18.2560449  26.6623961  88.3483606  27.9093934  37.5726483  90.8769370
  26.9624269  37.4531834  90.8047696  28.2576707  36.6848981  90.9595631
  20.2693507  23.4620622  94.7007611  20.7927909  23.7082919  95.4633921
  20.0505840  24.2940657  94.2810749  15.6660788  25.7324297  82.5678736
  15.3373494  24.8521676  82.3853842  16.0200159  25.6771965  83.4555125
  24.9140367  37.3679200  87.0773722  24.7665330  36.4395907  87.2581292
  25.7393861  37.3899290  86.5930797  18.7802611  26.0197267  82.9354214
  19.1198684  26.5483188  82.2132822  19.2274732  26.3577673  83.7112780
  28.5174489  38.1907758  88.1638594  29.4421036  37.9850620  88.0263046
  28.3489792  37.9424159  89.0727936  21.4746052  24.4034317  92.3857282
  21.1342873  23.6042130  92.7877962  20.7685058  24.7036028  91.8134115
  22.1262524  21.4883630  90.8384605  22.9488593  21.0144108  90.7163495
  22.3700588  22.2674114  91.3383291  20.7670759  24.5171888  81.1347507
  21.4879121  24.8953141  80.6311224  20.1436063  25.2360765  81.2382485
  24.9101881  25.2217037  82.0705839  25.1265496  26.1041675  81.7694667
  24.4295949  24.8303251  81.3411481  19.6501103  28.1802750  88.6476584
  19.5045684  28.4943053  89.5400865  19.1726306  28.7987651  88.0947482
  21.5097486  25.1705298  88.6957473  21.4959054  24.2746392  88.3589771
  22.2269914  25.1775962  89.3295759  23.3623616  25.6042639  90.7410601
  23.1041394  26.5259709  90.7394931  22.8308657  25.2073073  91.4311065
  28.3069805  38.7093426  83.5200686  28.4806683  38.1439848  82.7674538
  28.7998696  39.5094321  83.3380176  14.1246765  30.7208095  91.5864245
  13.5800233  31.4967903  91.7184519  15.0026115  31.0678899  91.4283366
  20.9134382  24.0519679  83.9645043  21.0350293  23.1236325  84.1635931
  20.6236424  24.0658365  83.0523359  23.7825572  21.7374589  87.1011763
  23.8047269  21.8013922  86.1463743  24.1993631  20.8979098  87.2952269
  34.1609196  31.4729849  85.1390986  34.6040342  30.7237174  84.7410109
  33.2835707  31.4639985  84.7564718  29.2944978  38.0260190  80.6197584
  29.9895882  38.6466883  80.8384899  29.6368128  37.1755541  80.8949962
  14.9112787  29.8477991  94.4794402  14.1694523  29.9960626  95.0659032
  14.5905531  30.1086257  93.6161151  31.1936401  35.4759896  82.1484915
  31.7187725  35.8147168  81.4234235  31.1058753  34.5406911  81.9648050
  22.8556449  39.3893969  94.2774792  23.1643576  39.1443116  95.1497491
  23.6531931  39.5940608  93.7893662  22.8777062  41.5431879  86.5080168
  22.4382052  41.0508258  87.2013025  23.6285178  41.0004847  86.2672243
  15.3569400  37.7343420  86.5104796  16.1827420  37.4347192  86.1303440
  15.0063452  36.9651042  86.9594585  20.3250934  37.0869888  88.5802470
  19.7030943  36.4240593  88.2804698  20.9955801  37.1131020  87.8976118
  13.5578006  35.6529746  87.4693730  12.7209914  35.2251921  87.2877731
  13.5301651  35.8462190  88.4064521  20.3975461  25.5651676  98.1734976
  20.4463617  26.4413799  97.7912745  20.9397975  25.0229069  97.6006619
  30.8830307  36.1092799  97.4536113  30.0925851  36.0916938  96.9140612
  30.6463661  36.6481093  98.2085150  31.0028182  32.9585266  94.7668841
  31.0526187  32.7935273  95.7084364  30.8942105  32.0912525  94.3766722
  19.8864441  35.6373811  82.0560930  20.0352561  36.3209276  81.4027603
  20.6930884  35.6178901  82.5710386  28.2931944  28.9416194  96.0828148
  29.1941807  28.8022659  95.7912146  28.3679919  29.1070649  97.0226326
  22.6274750  26.3183048  94.9281335  21.7578059  26.6116614  94.6563923
  22.8634230  26.9023493  95.6488598  32.5046379  35.3782207  95.0110863
  32.2131187  35.7412188  95.8474324  31.8918510  34.6649215  94.8324195
  33.7042061  32.9435087  87.5313433  34.5388952  33.3824891  87.6950994
  33.8401190  32.4673740  86.7121679  30.7533567  30.5014822  93.4790921
  31.2287689  30.6942468  92.6709772  29.8299132  30.5574008  93.2334305
  17.6417074  31.6638989  83.0621999  17.3963115  30.7601319  83.2602209
  17.8112988  31.6656139  82.1201477  25.3313783  22.5362665  92.4446755
  25.8495727  23.2723692  92.1193243  24.9768916  22.8426659  93.2793514
  16.9112721  27.3967347  80.5608161  16.2181966  27.4711702  79.9048197
  16.6664473  26.6327690  81.0829678  25.5826378  18.9562948  87.9647652
  25.8628131  18.2886137  88.5908078  26.3676985  19.1492043  87.4522315
  23.3859846  38.1321942  79.5272678  22.8133813  38.7512129  79.0743150
  23.9592640  38.6821303  80.0612600  29.4535236  27.3780582  91.7119227
  30.4052659  27.4778680  91.7331451  29.2838686  26.5858850  92.2217311
  27.4749615  24.4636165  91.8978628  26.8799548  24.7441178  91.2025116
  27.1899312  24.9530066  92.6695369  26.6057106  38.4159092  80.6581260
  27.5387779  38.3504654  80.8614136  26.5180319  39.2515359  80.1995793
  29.2345123  37.7324962  77.6185208  29.1558754  37.3984826  78.5120966
  30.0554789  38.2246730  77.6176680  31.9323314  30.5986702  90.8261526
  31.8999634  29.6602702  91.0121210  32.5423937  30.6770738  90.0927351
  23.7706645  29.4682755  76.8688730  24.7165749  29.3388963  76.9377148
  23.3920890  28.7297416  77.3458158  32.0817802  27.3897745  90.8719809
  31.5656851  26.6056202  90.6849738  32.9657751  27.0616462  91.0366329
  29.7428529  21.1338761  86.8315622  29.5453350  20.8253849  87.7158954
  30.3528235  21.8600399  86.9613552  37.7499864  31.6602708  89.9667563
  38.4803252  31.3987997  90.5275266  37.1406809  30.9231430  90.0069631
  35.8315161  29.8010571  90.5642014  35.1048324  29.6666536  89.9558506
  35.4162448  30.1087400  91.3698732  23.6545337  33.5200501  98.3289387
  24.5748347  33.6979100  98.5229434  23.6194920  32.5756546  98.1769087
  21.9549562  27.3932731  76.8043616  21.0481017  27.0965844  76.8806329
  22.2325543  27.0962549  75.9377902  12.8727502  28.7139094  87.2542662
  12.5530286  27.8604403  86.9617036  12.3260930  28.9287672  88.0100629
  16.6507410  31.4301535  90.9712168  16.8693419  32.3618643  90.9900202
  17.0633183  31.0709510  91.7566972  23.5711627  21.9369621  82.9587857
  22.7612356  21.5916706  83.3343103  24.2596044  21.6277164  83.5475468
  25.5002176  21.0147667  84.5812153  26.0533214  21.4343121  85.2402177
  25.7372262  20.0883416  84.6235109  20.7248346  24.2519666  76.9455595
  21.5867510  24.5774564  77.2051412  20.9098691  23.4651162  76.4328661
  12.7415762  32.3342006  89.2235784  12.0479234  31.9195959  88.7105738
  13.4888753  32.3762542  88.6269202  28.8780983  23.1248193  84.0890818
  28.2979652  23.7832997  83.7068870  28.6116916  22.3025537  83.6778235
  27.3284549  22.5253250  86.2912138  27.8284328  22.6369785  85.4826457
  27.9720157  22.2214303  86.9312947  21.3866545  30.4331880  99.1779979
  20.9033627  31.2332240  99.3843868  21.4727484  30.4439825  98.2247423
  14.6552505  32.2660260  87.1001798  14.6323193  32.3647947  86.1483682
  14.9653141  33.1125410  87.4218965  17.3139883  34.3236415  91.2148413
  18.2683136  34.2920357  91.1478344  17.1152406  33.8627038  92.0298639
  17.9039265  32.8937531  93.7819210  18.7232154  33.3881609  93.8054048
  18.1776072  31.9769499  93.7536778  27.6605861  25.2848283  83.1447166
  26.7731716  25.5697934  82.9267361  28.0759850  25.1242046  82.2974443
  31.0120397  25.3094804  86.8601505  31.7880787  25.7991256  87.1326122
  30.2868531  25.7352858  87.3173375  33.4492956  26.0222423  87.9175446
  34.0437446  25.7818159  87.2068754  33.5219539  25.3029554  88.5448982
  15.6690111  39.8656034  88.2318611  15.5344579  39.1056435  87.6656609
  15.2522174  40.5896934  87.7647400  26.8049074  35.0492958  77.2395186
  27.5084924  35.2542960  77.8552842  26.0811723  35.6169720  77.5044270
  27.6346885  30.8002819  83.3597456  27.5782086  31.2571370  82.5205089
  28.1875227  30.0393504  83.1820299  31.4451691  26.5892551  84.1847576
  31.1888625  26.1889186  85.0155783  30.8204559  27.3036345  84.0597715
  35.7564028  29.3288624  86.6918867  35.1963586  29.3981813  87.4650429
  35.1507532  29.1529609  85.9718363  18.8259237  40.7625351  88.4437053
  18.7091621  41.7070784  88.3415744  18.0051683  40.4598913  88.8322853
  28.7135772  35.4875487  79.2893646  29.5481376  35.0556685  79.1071121
  28.5520115  35.3157501  80.2170541  28.3681664  31.9907600  80.6549985
  28.3130468  31.8251872  79.7138429  27.7427719  32.6983633  80.8112175
  13.1574179  27.2275665  94.4811408  13.8033043  26.7174619  94.9698633
  12.9491330  27.9644346  95.0554833  25.6827571  34.2956512  99.9803548
  26.5518731  34.4697164  99.6190183  25.2034323  35.1150929  99.8579277
  21.6777789  21.4915709  80.2335304  21.6656459  22.4357549  80.3903575
  22.5701211  21.3085855  79.9394765  19.8513751  41.4153613  91.6592982
  20.7540998  41.4477223  91.9759477  19.6251121  40.4854064  91.6739318
  21.6067353  40.1684600  88.3203060  20.6562984  40.1686461  88.2067433
  21.9099839  39.4217334  87.8039095  25.4929909  18.0858486  84.4881241
  24.7262305  17.5316973  84.6337923  25.9040614  18.1580355  85.3495392
  37.3420047  46.0045138  89.3848823  37.9798457  45.8851885  88.6812163
  37.2240890  46.9525982  89.4436775  34.1509753  45.9572566  89.3210347
  33.8128265  45.8413631  88.4330882  35.0199521  45.5563731  89.3011354
  30.0096569  47.8108042  85.3107238  29.4461434  47.7197979  84.5423526
  29.8948964  46.9907947  85.7909731  34.6329536  47.1107418  95.2796553
  34.6218177  46.7160216  94.4077057  34.7950176  46.3773490  95.8730324
  27.5561001  49.3059234  88.1491459  28.3482293  48.9650059  87.7337758
  27.7957651  49.4154209  89.0693612  29.5151755  48.5668147  81.0208838
  30.2882631  48.0197134  80.8821713  29.8677154  49.4312397  81.2323299
  31.3536797  49.8944530  94.2275737  31.0626663  50.7990160  94.1122403
  31.9893782  49.9361057  94.9419807  32.2793004  47.2721378  90.8177097
  32.8756576  47.0477401  90.1034060  32.3367976  46.5306124  91.4202544
  31.8518032  44.7260813  78.6527288  32.1043553  44.2042335  77.8910751
  30.9142592  44.5626959  78.7553971  36.8961315  43.7296592  86.4602031
  37.6824405  43.3116015  86.1092448  37.1600020  44.6342684  86.6283679
  42.2969742  43.6671825  87.3635009  43.0294914  43.0971042  87.5972839
  41.5409098  43.2793425  87.8041515  31.5714321  46.6288919  80.8551663
  31.4550579  45.9533823  81.5232747  31.6816581  46.1421293  80.0383816
  33.9145862  46.0899067  84.5598352  33.5504069  45.5629687  85.2711273
  34.7712978  45.6997536  84.3864837  39.8195163  37.3793399  91.8229618
  39.4878488  38.2488810  91.5990833  39.2240776  37.0629683  92.5023648
  33.5551349  41.1188966  79.5559700  33.7225751  41.9869203  79.9230171
  33.3648518  41.2816248  78.6320990  36.3126682  49.5805945  91.2225531
  36.0127405  50.4830984  91.1141338  35.9677742  49.3138128  92.0746684
  29.7639164  46.0319742  87.2562235  28.8389660  45.8995956  87.4639927
  30.0123577  46.8113961  87.7532177  39.7123826  42.0988485  88.9022968
  38.8040703  42.0303894  88.6081729  39.6611422  42.5760430  89.7304793
  33.5340570  43.5746624  80.5406367  33.4140195  44.0203674  81.3791847
  32.8393158  43.9231941  79.9819905  27.1247975  45.6753016  88.0906024
  27.2540356  45.9287494  89.0045436  26.4445426  46.2680724  87.7710679
  31.2947462  56.3450265  84.1896498  31.2171492  57.2958091  84.2684979
  30.6909106  55.9996138  84.8471425  33.7864692  43.5178131  96.8457865
  33.0098026  44.0772051  96.8360730  34.4255255  44.0034914  97.3672735
  41.5785473  40.3004924  90.6800842  40.9359853  40.5937457  90.0340636
  41.0740401  40.1857844  91.4854039  39.2325636  44.0468097  81.3686701
  40.1443492  44.2795484  81.1934399  38.7235283  44.6305141  80.8061780
  32.0411064  46.3263584  96.4075832  32.7825749  46.8648628  96.1310656
  31.3348050  46.9529873  96.5647384  37.5166404  48.4692725  95.0047994
  37.9249760  48.0275135  94.2602626  36.7943665  47.8945352  95.2582187
  33.8697474  43.4065331  92.3781551  34.7158669  43.8304745  92.5216200
  33.8096112  42.7498956  93.0720114  37.8395218  49.0293915  88.7600283
  37.2104081  49.1939629  88.0576350  37.4520881  49.4435525  89.5311247
  41.7184450  49.9648353  86.1144646  41.0335489  50.3447255  85.5641680
  41.8028300  50.5743680  86.8476594  37.0196919  41.0669700  94.0362724
  36.7757851  41.8211760  93.4997000  37.2956850  41.4455047  94.8709971
  38.9735382  47.6108312  92.7139990  39.1852277  48.2540072  92.0374371
  38.9265130  46.7770629  92.2461920  36.5761611  40.2226133  89.6176562
  35.7146090  40.5207386  89.9093300  36.6024046  40.4396532  88.6857595
  33.3923180  48.7668323  86.0250368  33.8561526  49.0456026  85.2354990
  33.1279978  47.8651768  85.8423458  30.2847261  48.3139805  88.9630131
  30.8548618  48.7427073  88.3247615  30.8755373  48.0322390  89.6614317
  32.3292066  44.8891476  82.8339933  33.0316110  45.3412519  83.3013859
  31.9972695  44.2475295  83.4619826  30.7772428  43.4803232  97.2091142
  30.1471089  44.1619513  97.4426539  30.6708516  43.3686314  96.2644281
  26.0717400  43.1475028  88.1357066  25.2816454  43.4032557  87.6597177
  26.5628648  43.9623366  88.2409107  40.0881210  50.4880268  90.8862347
  40.9098654  50.0860455  90.6045029  40.0843613  50.3848502  91.8378463
  28.0232146  43.5119608  85.0940543  27.2263309  43.6238302  85.6124039
  27.7957738  43.8506260  84.2281434  33.8537813  50.0364311  93.0423058
  33.9182246  50.4984718  93.8781230  33.1448737  49.4061676  93.1705368
  24.3555103  43.4005519  90.5672057  24.6063142  44.2852529  90.8329633
  24.8914652  43.2210120  89.7947149  48.1787203  46.8319016  87.2347319
  47.4250911  46.2626414  87.0791323  48.3134744  46.7981681  88.1817953
  33.5685831  51.7032418  82.9102038  33.4331506  52.5483954  83.3386886
  34.1095644  51.9051696  82.1467972  30.0553171  37.7823998  99.5716393
  29.6620116  37.2290197 100.2464038  30.8719311  38.0934577  99.9622911
  27.0215228  49.2207856  83.4829963  27.5339749  50.0151107  83.6335528
  27.6737941  48.5234147  83.4163565  28.8310113  52.3373613  85.5652716
  29.0076741  53.2591577  85.3773700  29.6266947  52.0232032  85.9947096
  32.9721132  39.1981877  97.1636650  33.7130845  39.7989030  97.0841112
  33.2039054  38.4559515  96.6054692  28.1162470  44.3838245  95.4414880
  28.0015985  43.4823502  95.7421978  27.2606987  44.6301941  95.0899696
  29.9541429  53.8551787  91.5663059  30.5048854  53.7268850  90.7940053
  29.1152904  54.1546676  91.2157951  33.7508600  50.1202914  95.9107290
  34.2836936  49.3591203  95.6806598  33.2222681  49.8276566  96.6531444
  36.9178295  35.2262980  91.4400932  36.5742564  36.1164622  91.3640042
  37.2857257  35.0364638  90.5770517  24.9864145  47.5496511  84.2589534
  25.8239367  47.9593519  84.0423241  25.1642413  46.6095953  84.2289728
  34.4675688  40.0621292  85.0058605  33.6117285  39.6728143  84.8264244
  34.8802640  40.1413253  84.1458391  35.9974835  37.5967635  89.4050165
  35.4939631  37.5597771  88.5917970  36.2905442  38.5060378  89.4646821
  32.2417721  37.6806365  88.4116347  33.1070718  37.4849174  88.0522236
  32.3095230  37.4516717  89.3385703  36.6714880  43.0898684  81.7733148
  36.3665016  43.4044833  82.6243291  37.6245323  43.1680103  81.8160481
  40.0954158  47.4437927  88.5393148  39.4377833  48.1337189  88.6273277
  40.8994558  47.8334359  88.8827134  29.8480040  39.9108573  85.7832713
  30.4223792  39.6883755  85.0505906  30.4351022  39.9797268  86.5361315
  38.9059617  45.7982300  86.5897090  39.4191499  46.4312292  87.0918800
  39.5560841  45.1983496  86.2240450  30.1749627  41.9413034  79.8028599
  29.3386939  42.2787721  80.1237873  30.0354397  41.8062014  78.8655736
  32.1502708  36.7849822  84.5107783  31.4967120  36.4698839  83.8864398
  32.1083182  36.1625562  85.2367606  36.1681991  55.7766624  79.3457761
  35.4943690  56.0798321  79.9542719  36.5547813  56.5795705  78.9963218
  35.3840448  43.2731756  88.8355430  34.4663009  43.4946703  88.6777118
  35.8000592  43.3478066  87.9767138  36.1675496  44.6723171  83.9658111
  36.9147315  45.1844568  83.6565233  36.4367085  44.3507224  84.8262504
  38.6154333  41.7080287  85.9476900  37.8777090  41.1957674  86.2787143
  38.8681106  41.2680669  85.1360177  38.1154353  52.6164798  85.6526051
  38.4077327  53.1769855  84.9338416  38.6252973  52.9093359  86.4079210
  38.7165960  34.4856539  86.5418669  39.0224837  33.6253903  86.2544584
  39.4418565  35.0774160  86.3417663  25.0090316  44.8887226  84.9300267
  24.8114716  44.2956587  84.2051334  24.4536980  44.5839436  85.6476206
  32.9887040  44.7810333  87.0494860  33.0435650  43.8284169  86.9737337
  32.1778242  44.9369772  87.5336159  30.9279400  43.3987392  84.8085239
  30.1147265  43.6981563  85.2150431  31.4238394  43.0043081  85.5259721
  33.0787978  53.3945149  86.7419504  33.0364157  53.6205996  85.8128036
  33.9950677  53.1608524  86.8905305  36.5253612  43.8629217  93.6400133
  36.8802999  44.0900690  94.4994599  37.1725743  44.1947594  93.0177388
  42.2551349  46.9847653  84.3449462  42.1169247  47.1749249  83.4170651
  41.8987567  47.7467035  84.8017513  30.4193475  40.9705748  90.4246474
  31.0592854  40.8294507  89.7269437  29.5871005  40.6840261  90.0485076
  42.2820728  49.0524180  89.3560734  42.7157235  48.9599469  90.2043788
  42.9952309  49.0281680  88.7180750  31.1953779  50.2708178  86.5381467
  31.9894377  49.7758498  86.3364042  30.4845471  49.7426041  86.1749172
  36.0148623  52.6526274  90.8893834  36.0685645  53.2217210  91.6571550
  35.1463404  52.8228159  90.5247871  27.5036542  44.4151260  82.6141219
  26.5734130  44.3535715  82.8311181  27.5994014  43.8927213  81.8177861
  27.4222091  40.9406073  85.2019461  27.6828908  41.8551406  85.0928621
  28.2439263  40.4730515  85.3516074  28.8947016  42.3543830  92.3718285
  29.5670070  42.1461192  91.7230934  28.0676803  42.1565916  91.9323518
  43.1436278  49.0947880  91.8893619  43.3372168  49.9993691  92.1352894
  43.0436896  48.6355299  92.7232204  34.7972588  38.9805771  94.3883946
  34.1500503  39.6795721  94.2948423  35.5673604  39.4141915  94.7560195
  38.2051386  49.2454623  97.4634500  38.0536893  49.0165175  96.5464583
  38.1956066  50.2025224  97.4765845  34.9736723  46.8186536  92.4480766
  35.9028783  46.9697695  92.2749733  34.5527753  46.9070557  91.5929413
  33.7725055  50.8437200  90.2179304  33.6336140  50.4755985  91.0905242
  32.9839651  51.3584840  90.0463261  34.3673207  55.9446297  81.5604840
  34.5424962  55.4734340  82.3750463  33.6805995  56.5712063  81.7886101
  35.3230270  50.2218803  87.6068141  34.9880102  50.1819573  88.5025791
  34.8234215  49.5563519  87.1338552  29.2974514  45.6286433  93.1320723
  29.1594312  44.8966672  93.7332262  30.2079437  45.5395333  92.8504910
  31.9256814  45.3406392  92.6204402  32.6356433  44.6999584  92.5791021
  31.8826123  45.5919287  93.5430583  30.6385748  42.3271610  94.4400042
  30.1023105  41.8762349  95.0921638  30.0502457  42.4617519  93.6970506
  30.0488007  41.7860262  77.0026505  29.1717474  41.6649062  76.6388752
  30.5245760  40.9946340  76.7505394  39.9161000  50.2413330  93.7724961
  39.0287779  49.9039251  93.8951360  40.4859551  49.5096361  94.0093727
  21.5690147  46.5737421  87.0968013  22.2561187  46.2599151  86.5089028
  21.4138276  47.4778786  86.8235264  26.3724870  41.4627618  91.5253036
  26.2883058  40.8553287  90.7903446  25.5507576  41.9536636  91.5262533
  33.4462154  54.9014782  90.7386204  33.3732325  55.7069753  91.2505509
  33.0039547  55.1006748  89.9134226  33.2351933  54.1386552  84.2489026
  32.4519455  54.6808232  84.3427250  33.9344678  54.6560532  84.6483267
  36.5448583  39.9481181  86.8923231  37.0417283  39.1951144  86.5724302
  35.7735565  39.9845498  86.3266441  44.3978341  45.6521547  88.5341523
  44.3868217  46.5346262  88.1635456  43.5295720  45.2993098  88.3396060
  37.6278364  48.7052869  84.4661655  36.6934643  48.8254331  84.2966359
  37.8055033  47.8025335  84.2021665  33.1283552  42.0898564  86.6194916
  32.7581340  41.5369605  87.3075821  33.6242645  41.4856698  86.0669916
  41.0150915  44.5470188  85.0011689  41.4811368  45.3798179  84.9271991
  41.4658416  44.0815169  85.7056947  30.9572751  52.5496059  93.7149934
  31.6582210  53.1832542  93.8679328  30.4867866  52.8910791  92.9545573
  38.9867578  36.9150775  89.0402590  38.0730658  37.1455002  89.2084797
  39.4160680  36.9989219  89.8916623  38.7574037  45.1040667  91.5402484
  38.1045487  45.3516574  90.8854937  39.1354417  44.2904805  91.2064961
  35.7181211  55.1400360  85.6430654  35.9003605  54.3222016  86.1058407
  36.5414197  55.3568052  85.2055544  34.8061610  45.8460478  98.0268521
  34.1302247  45.7454607  98.6970896  35.6289244  45.6899692  98.4904518
  26.5540469  52.0832414  90.6481037  27.1393906  51.3376102  90.7808941
  26.3565307  52.3936371  91.5317700  29.4079124  55.1183662  85.6643479
  28.7389499  55.6029789  85.1807519  29.2691994  55.3652882  86.5786857
  21.1458124  44.6538015  89.3685480  21.1842223  44.1201605  90.1622598
  20.6398416  44.1273220  88.7496457  28.5248886  39.5002555  92.8648022
  28.5890212  40.3617386  92.4525420  28.4616006  38.8876557  92.1320380
  28.0001158  41.5725688  96.5121056  28.6273197  41.1902765  97.1258581
  27.1429077  41.3539890  96.8776749  24.7766701  43.3802117  82.4439411
  25.0720142  42.4712795  82.3906465  23.8754737  43.3589856  82.1220413
  28.3060948  41.4558113  88.4266960  27.5847534  42.0694081  88.2874433
  29.0954204  41.9915878  88.3483606  31.1087262  38.7912540  94.7007611
  31.6321663  39.0374836  95.4633921  30.8899595  39.6232575  94.2810749
  26.5054543  41.0616214  82.5678736  26.1767249  40.1813593  82.3853842
  26.8593913  41.0063883  83.4555125  35.7534122  52.6971117  87.0773722
  35.6059084  51.7687825  87.2581292  36.5787615  52.7191208  86.5930797
  29.6196366  41.3489184  82.9354214  29.9592438  41.8775106  82.2132822
  30.0668486  41.6869590  83.7112780  32.3139807  39.7326235  92.3857282
  31.9736627  38.9334048  92.7877962  31.6078813  40.0327946  91.8134115
  32.9656279  36.8175547  90.8384605  33.7882348  36.3436026  90.7163495
  33.2094342  37.5966031  91.3383291  31.6064513  39.8463806  81.1347507
  32.3272876  40.2245059  80.6311224  30.9829817  40.5652683  81.2382485
  35.7495636  40.5508955  82.0705839  35.9659250  41.4333593  81.7694667
  35.2689703  40.1595168  81.3411481  30.4894857  43.5094668  88.6476584
  30.3439438  43.8234971  89.5400865  30.0120061  44.1279568  88.0947482
  32.3491240  40.4997216  88.6957473  32.3352809  39.6038309  88.3589771
  33.0663668  40.5067880  89.3295759  34.2017371  40.9334556  90.7410601
  33.9435149  41.8551627  90.7394931  33.6702411  40.5364991  91.4311065
  24.9640519  46.0500012  91.5864245  24.4193988  46.8259820  91.7184519
  25.8419869  46.3970817  91.4283366  31.7528136  39.3811596  83.9645043
  31.8744047  38.4528243  84.1635931  31.4630178  39.3950282  83.0523359
  34.6219326  37.0666507  87.1011763  34.6441023  37.1305840  86.1463743
  35.0387385  36.2271015  87.2952269  45.0002951  46.8021766  85.1390986
  45.4434097  46.0529092  84.7410109  44.1229461  46.7931903  84.7564718
  25.7506541  45.1769909  94.4794402  25.0088277  45.3252544  95.0659032
  25.4299286  45.4378174  93.6161151  33.7170816  56.8723797  86.5080168
  33.2775806  56.3800175  87.2013025  34.4678933  56.3296764  86.2672243
  26.1963155  53.0635337  86.5104796  27.0221175  52.7639109  86.1303440
  25.8457207  52.2942960  86.9594585  31.1644688  52.4161806  88.5802470
  30.5424697  51.7532511  88.2804698  31.8349555  52.4422938  87.8976118
  24.3971760  50.9821664  87.4693730  23.5603668  50.5543838  87.2877731
  24.3695405  51.1754107  88.4064521  31.2369216  40.8943594  98.1734976
  31.2857371  41.7705716  97.7912745  31.7791730  40.3520987  97.6006619
  41.8421936  48.2877183  94.7668841  41.8919941  48.1227191  95.7084364
  41.7335860  47.4204442  94.3766722  30.7258195  50.9665729  82.0560930
  30.8746315  51.6501193  81.4027603  31.5324639  50.9470819  82.5710386
  39.1325699  44.2708111  96.0828148  40.0335562  44.1314576  95.7912146
  39.2073673  44.4362566  97.0226326  33.4668504  41.6474966  94.9281335
  32.5971813  41.9408532  94.6563923  33.7027984  42.2315411  95.6488598
  44.5435816  48.2727005  87.5313433  45.3782707  48.7116809  87.6950994
  44.6794944  47.7965658  86.7121679  41.5927321  45.8306739  93.4790921
  42.0681443  46.0234386  92.6709772  40.6692887  45.8865925  93.2334305
  28.4810828  46.9930907  83.0621999  28.2356870  46.0893237  83.2602209
  28.6506743  46.9948057  82.1201477  36.1707538  37.8654583  92.4446755
  36.6889482  38.6015610  92.1193243  35.8162671  38.1718576  93.2793514
  27.7506476  42.7259264  80.5608161  27.0575721  42.8003619  79.9048197
  27.5058227  41.9619608  81.0829678  36.4220132  34.2854866  87.9647652
  36.7021886  33.6178055  88.5908078  37.2070739  34.4783961  87.4522315
  40.2928990  42.7072500  91.7119227  41.2446413  42.8070597  91.7331451
  40.1232441  41.9150768  92.2217311  38.3143370  39.7928083  91.8978628
  37.7193302  40.0733095  91.2025116  38.0293067  40.2821984  92.6695369
  42.7717068  45.9278619  90.8261526  42.7393388  44.9894620  91.0121210
  43.3817692  46.0062656  90.0927351  34.6100399  44.7974672  76.8688730
  35.5559504  44.6680880  76.9377148  34.2314644  44.0589334  77.3458158
  42.9211557  42.7189663  90.8719809  42.4050605  41.9348119  90.6849738
  43.8051505  42.3908379  91.0366329  40.5822284  36.4630678  86.8315622
  40.3847105  36.1545766  87.7158954  41.1921989  37.1892317  86.9613552
  48.5893618  46.9894626  89.9667563  49.3197007  46.7279914  90.5275266
  47.9800564  46.2523348  90.0069631  46.6708915  45.1302489  90.5642014
  45.9442079  44.9958454  89.9558506  46.2556202  45.4379317  91.3698732
  34.4939092  48.8492418  98.3289387  35.4142101  49.0271017  98.5229434
  34.4588675  47.9048464  98.1769087  32.7943316  42.7224649  76.8043616
  31.8874772  42.4257761  76.8806329  33.0719297  42.4254467  75.9377902
  23.7121257  44.0431012  87.2542662  23.3924041  43.1896320  86.9617036
  23.1654685  44.2579590  88.0100629  27.4901164  46.7593453  90.9712168
  27.7087174  47.6910561  90.9900202  27.9026938  46.4001427  91.7566972
  34.4105382  37.2661538  82.9587857  33.6006110  36.9208623  83.3343103
  35.0989799  36.9569082  83.5475468  36.3395930  36.3439585  84.5812153
  36.8926969  36.7635039  85.2402177  36.5766017  35.4175333  84.6235109
  32.3629029  42.3326659 100.3614917  32.2625756  43.2821016 100.2927008
  32.1450572  42.0044898  99.4890987  31.5642101  39.5811584  76.9455595
  32.4261265  39.9066482  77.2051412  31.7492445  38.7943080  76.4328661
  23.5809517  47.6633923  89.2235784  22.8872988  47.2487876  88.7105738
  24.3282508  47.7054460  88.6269202  39.7174737  38.4540110  84.0890818
  39.1373406  39.1124914  83.7068870  39.4510670  37.6317455  83.6778235
  38.1678304  37.8545168  86.2912138  38.6678082  37.9661703  85.4826457
  38.8113912  37.5506221  86.9312947  32.2260300  45.7623798  99.1779979
  31.7427381  46.5624158  99.3843868  32.3121239  45.7731742  98.2247423
  25.4946259  47.5952177  87.1001798  25.4716947  47.6939865  86.1483682
  25.8046896  48.4417328  87.4218965  28.1533637  49.6528332  91.2148413
  29.1076891  49.6212275  91.1478344  27.9546161  49.1918956  92.0298639
  28.7433019  48.2229448  93.7819210  29.5625908  48.7173527  93.8054048
  29.0169827  47.3061416  93.7536778  38.4999615  40.6140201  83.1447166
  37.6125470  40.8989851  82.9267361  38.9153604  40.4533964  82.2974443
  41.8514151  40.6386722  86.8601505  42.6274542  41.1283174  87.1326122
  41.1262286  41.0644776  87.3173375  44.2886710  41.3514341  87.9175446
  44.8831201  41.1110077  87.2068754  44.3613294  40.6321471  88.5448982
  26.5083866  55.1947952  88.2318611  26.3738334  54.4348353  87.6656609
  26.0915928  55.9188852  87.7647400  42.2845445  41.9184468  84.1847576
  42.0282379  41.5181104  85.0155783  41.6598313  42.6328262  84.0597715
  46.5957783  44.6580542  86.6918867  46.0357341  44.7273731  87.4650429
  45.9901286  44.4821526  85.9718363  29.6652992  56.0917269  88.4437053
  29.5485376  57.0362701  88.3415744  28.8445438  55.7890830  88.8322853
  23.9967933  42.5567582  94.4811408  24.6426797  42.0466536  94.9698633
  23.7885085  43.2936264  95.0554833  32.5171544  36.8207627  80.2335304
  32.5050214  37.7649467  80.3903575  33.4094966  36.6377772  79.9394765
  32.4461108  55.4976517  88.3203060  31.4956739  55.4978379  88.2067433
  32.7493594  54.7509252  87.8039095  36.3323663  33.4150403  84.4881241
  35.5656059  32.8608890  84.6337923  36.7434368  33.4872272  85.3495392
  28.3365424  39.7035199  98.5786422  29.1996886  39.3472004  98.7889746
  27.7630835  39.3649094  99.2661826  45.4723291  62.4399335  95.2796553
  45.4611931  62.0452134  94.4077057  45.6343930  61.7065408  95.8730324
  50.6588917  52.7085317  91.8229618  50.3272242  53.5780728  91.5990833
  50.0634531  52.3921601  92.5023648  50.5517581  57.4280403  88.9022968
  49.6434458  57.3595811  88.6081729  50.5005176  57.9052348  89.7304793
  44.3734325  58.9038541  80.5406367  44.2533950  59.3495592  81.3791847
  43.6786913  59.2523859  79.9819905  52.4179227  55.6296841  90.6800842
  51.7753607  55.9229375  90.0340636  51.9134156  55.5149762  91.4854039
  47.8590674  56.3961618  94.0362724  47.6151606  57.1503678  93.4997000
  48.1350604  56.7746965  94.8709971  47.4155365  55.5518051  89.6176562
  46.5539844  55.8499304  89.9093300  47.4417800  55.7688449  88.6857595
  36.9111155  58.4766946  88.1357066  36.1210209  58.7324475  87.6597177
  37.4022402  59.2915284  88.2409107  38.8625900  58.8411525  85.0940543
  38.0657064  58.9530220  85.6124039  38.6351492  59.1798178  84.2281434
  35.1948858  58.7297437  90.5672057  35.4456896  59.6144447  90.8329633
  35.7308406  58.5502038  89.7947149  47.7572049  50.5554898  91.4400932
  47.4136318  51.4456540  91.3640042  48.1251012  50.3656556  90.5770517
  45.3069443  55.3913210  85.0058605  44.4511039  55.0020060  84.8264244
  45.7196395  55.4705171  84.1458391  46.8368589  52.9259553  89.4050165
  46.3333385  52.8889688  88.5917970  47.1299196  53.8352296  89.4646821
  40.6873794  55.2400491  85.7832713  41.2617546  55.0175672  85.0505906
  41.2744777  55.3089185  86.5361315  42.9896462  52.1141740  84.5107783
  42.3360874  51.7990757  83.8864398  42.9476936  51.4917480  85.2367606
  46.2234203  58.6023673  88.8355430  45.3056764  58.8238620  88.6777118
  46.6394346  58.6769984  87.9767138  49.4548087  57.0372205  85.9476900
  48.7170844  56.5249591  86.2787143  49.7074861  56.5972587  85.1360177
  49.5559715  49.8148457  86.5418669  49.8618592  48.9545821  86.2544584
  50.2812320  50.4066077  86.3417663  41.7673154  58.7279310  84.8085239
  40.9541020  59.0273481  85.2150431  42.2632149  58.3334999  85.5259721
  47.3647366  59.1921134  93.6400133  47.7196754  59.4192608  94.4994599
  48.0119497  59.5239511  93.0177388  38.2615846  56.2697990  85.2019461
  38.5222663  57.1843324  85.0928621  39.0833018  55.8022433  85.3516074
  45.6366343  54.3097689  94.3883946  44.9894258  55.0087638  94.2948423
  46.4067358  54.7433833  94.7560195  47.3842338  55.2773099  86.8923231
  47.8811037  54.5243061  86.5724302  46.6129319  55.3137416  86.3266441
  43.9677307  57.4190482  86.6194916  43.5975094  56.8661522  87.3075821
  44.4636399  56.8148616  86.0669916  49.8261333  52.2442693  89.0402590
  48.9124413  52.4746919  89.2084797  50.2554434  52.3281137  89.8916623
  49.5967791  60.4332585  91.5402484  48.9439241  60.6808492  90.8854937
  49.9748171  59.6196723  91.2064961  35.6160456  58.7094034  82.4439411
  35.9113897  57.8004713  82.3906465  34.7148491  58.6881774  82.1220413
  37.3448297  56.3908132  82.5678736  37.0161003  55.5105511  82.3853842
  37.6987668  56.3355801  83.4555125  40.4590120  56.6781102  82.9354214
  40.7986193  57.2067023  82.2132822  40.9062241  57.0161508  83.7112780
  43.8050033  52.1467465  90.8384605  44.6276102  51.6727943  90.7163495
  44.0488097  52.9257949  91.3383291  45.0411125  56.2626474  90.7410601
  44.7828903  57.1843545  90.7394931  44.5096166  55.8656908  91.4311065
  42.5921891  54.7103514  83.9645043  42.7137802  53.7820160  84.1635931
  42.3023933  54.7242200  83.0523359  45.4613081  52.3958424  87.1011763
  45.4834778  52.4597758  86.1463743  45.8781140  51.5562933  87.2952269
  49.9719453  59.6000029  96.0828148  50.8729316  59.4606494  95.7912146
  50.0467428  59.7654484  97.0226326  47.0101292  53.1946501  92.4446755
  47.5283236  53.9307528  92.1193243  46.6556425  53.5010494  93.2793514
  47.2613887  49.6146783  87.9647652  47.5415640  48.9469972  88.5908078
  48.0464493  49.8075879  87.4522315  51.1322745  58.0364417  91.7119227
  52.0840168  58.1362515  91.7331451  50.9626195  57.2442686  92.2217311
  49.1537124  55.1220000  91.8978628  48.5587057  55.4025013  91.2025116
  48.8686821  55.6113901  92.6695369  53.7605311  58.0481580  90.8719809
  53.2444360  57.2640037  90.6849738  54.6445260  57.7200297  91.0366329
  51.4216038  51.7922596  86.8315622  51.2240859  51.4837684  87.7158954
  52.0315744  52.5184235  86.9613552  47.1789685  51.6731503  84.5812153
  47.7320723  52.0926956  85.2402177  47.4159771  50.7467251  84.6235109
  49.0072058  53.1837086  86.2912138  49.5071837  53.2953620  85.4826457
  49.6507666  52.8798139  86.9312947  52.6907906  55.9678639  86.8601505
  53.4668296  56.4575092  87.1326122  51.9656040  56.3936694  87.3173375
  55.1280465  56.6806259  87.9175446  55.7224955  56.4401994  87.2068754
  55.2007048  55.9613389  88.5448982  53.1239200  57.2476386  84.1847576
  52.8676134  56.8473022  85.0155783  52.4992068  57.9620180  84.0597715
  47.1717418  48.7442321  84.4881241  46.4049814  48.1900808  84.6337923
  47.5828123  48.8164190  85.3495392  60.0782776  82.6372498  98.1174792
  60.6222680  83.2502456  97.6229746  59.4969621  83.1952077  98.6341805
  67.1510800  93.0983171  95.2796553  67.1399440  92.7035969  94.4077057
  67.3131439  92.3649243  95.8730324  68.1077391  97.4654763  80.6221703
  67.4565371  98.0508844  80.2355717  68.9021754  97.9960958  80.6816741
  63.8718061  95.8820283  94.2275737  63.5807927  96.7865913  94.1122403
  64.5075045  95.9236810  94.9419807  69.5852656  95.1545195  81.1590688
  68.9498489  95.2279822  81.8711592  69.2550063  95.7438794  80.4809767
  74.8151006  89.6547578  87.3635009  75.5476178  89.0846795  87.5972839
  74.0590362  89.2669178  87.8041515  72.3376426  83.3669152  91.8229618
  72.0059751  84.2364563  91.5990833  71.7422040  83.0505436  92.5023648
  68.8307946  95.5681698  91.2225531  68.5308669  96.4706737  91.1141338
  68.4859005  95.3013881  92.0746684  72.2305090  88.0864238  88.9022968
  71.3221967  88.0179647  88.6081729  72.1792685  88.5636183  89.7304793
  63.8128726 102.3326018  84.1896498  63.7352755 103.2833844  84.2684979
  63.2090369 101.9871891  84.8471425  66.3045955  89.5053884  96.8457865
  65.5279289  90.0647804  96.8360730  66.9436518  89.9910667  97.3672735
  74.0966736  86.2880677  90.6800842  73.4541116  86.5813210  90.0340636
  73.5921665  86.1733597  91.4854039  64.5592328  92.3139337  96.4075832
  65.3007012  92.8524381  96.1310656  63.8529313  92.9405626  96.5647384
  70.0347667  94.4568478  95.0047994  70.4431023  94.0150888  94.2602626
  69.3124929  93.8821105  95.2582187  70.3576482  95.0169668  88.7600283
  69.7285344  95.1815383  88.0576350  69.9702144  95.4311278  89.5311247
  74.2365714  95.9524106  86.1144646  73.5516752  96.3323008  85.5641680
  74.3209563  96.5619433  86.8476594  69.5378183  87.0545453  94.0362724
  69.2939115  87.8087513  93.4997000  69.8138113  87.4330800  94.8709971
  71.4916645  93.5984065  92.7139990  71.7033541  94.2415825  92.0374371
  71.4446394  92.7646382  92.2461920  65.9104444  94.7544076  86.0250368
  66.3742789  95.0331779  85.2354990  65.6461242  93.8527521  85.8423458
  63.2953691  89.4678985  97.2091142  62.6652352  90.1495266  97.4426539
  63.1889779  89.3562067  96.2644281  72.6062473  96.4756021  90.8862347
  73.4279917  96.0736208  90.6045029  72.6024876  96.3724255  91.8378463
  80.6968466  92.8194769  87.2347319  79.9432175  92.2502167  87.0791323
  80.8316008  92.7857434  88.1817953  66.0867094  97.6908171  82.9102038
  65.9512769  98.5359707  83.3386886  66.6276907  97.8927449  82.1467972
  62.5734434  83.7699751  99.5716393  62.1801380  83.2165950 100.2464038
  63.3900574  84.0810330  99.9622911  61.3491377  98.3249366  85.5652716
  61.5258005  99.2467330  85.3773700  62.1448210  98.0107785  85.9947096
  65.4902395  85.1857630  97.1636650  66.2312109  85.7864784  97.0841112
  65.7220318  84.4435268  96.6054692  67.7135571  98.3131738  97.0402380
  67.2699425  97.5268117  96.7223285  68.3752784  98.5010888  96.3746271
  62.4722692  99.8427540  91.5663059  63.0230117  99.7144603  90.7940053
  61.6334168 100.1422429  91.2157951  69.8116809  98.5934538  95.0683781
  69.7935284  99.4143419  94.5764051  70.7336729  98.4688613  95.2933923
  66.2689863  96.1078667  95.9107290  66.8018200  95.3466956  95.6806598
  65.7403944  95.8152319  96.6531444  69.4359558  81.2138733  91.4400932
  69.0923827  82.1040375  91.3640042  69.8038521  81.0240391  90.5770517
  69.4009841  91.2047344  79.9473367  68.8856464  91.9751949  80.1861754
  69.1287149  90.5312481  80.5706428  74.3744115  93.9579699  81.8826540
  73.5973558  93.6190859  81.4381702  75.0535596  93.9632322  81.2081505
  67.6342576  95.2364660  83.4226102  67.1063937  94.5017419  83.1099339
  67.1330079  96.0139336  83.1766070  72.6135422  93.4313680  88.5393148
  71.9559096  94.1212942  88.6273277  73.4175821  93.8210112  88.8827134
  71.4240881  91.7858053  86.5897090  71.9372762  92.4188045  87.0918800
  72.0742105  91.1859249  86.2240450  65.7795176  93.0544870  76.4261075
  64.8722238  92.8234124  76.6252224  66.2766208  92.2582489  76.6135056
  68.6863255 101.7642377  79.3457761  68.0124954 102.0674074  79.9542719
  69.0729077 102.5671458  78.9963218  66.9583409  93.1557465  80.9485065
  66.0494629  92.8716498  81.0457535  66.9878493  93.5756544  80.0888372
  72.1902677  96.7664054  84.7176233  71.7365004  95.9254964  84.7741423
  71.5596644  97.4025453  85.0551013  70.6335616  98.6040551  85.6526051
  70.9258590  99.1645608  84.9338416  71.1434237  98.8969112  86.4079210
  66.6559497  94.6966209  78.2873144  66.2178927  93.9802068  77.8278781
  67.3969938  94.9242323  77.7258235  65.5969241  99.3820902  86.7419504
  65.5545420  99.6081749  85.8128036  66.5131940  99.1484277  86.8905305
  74.7732612  92.9723406  84.3449462  74.6350511  93.1625002  83.4170651
  74.4168831  93.7342789  84.8017513  74.8001992  95.0399933  89.3560734
  75.2338498  94.9475222  90.2043788  75.5133572  95.0157433  88.7180750
  68.5329887  98.6402027  90.8893834  68.5866909  99.2092963  91.6571550
  67.6644668  98.8103912  90.5247871  75.6617541  95.0823633  91.8893619
  75.8553431  95.9869444  92.1352894  75.5618159  94.6231052  92.7232204
  70.7232650  95.2330376  97.4634500  70.5718156  95.0040928  96.5464583
  70.7137329  96.1900978  97.4765845  66.8854470 101.9322050  81.5604840
  67.0606226 101.4610093  82.3750463  66.1987258 102.5587816  81.7886101
  67.8411533  96.2094556  87.6068141  67.5061366  96.1695326  88.5025791
  67.3415479  95.5439272  87.1338552  70.7770725  93.5550590  77.8805201
  70.1599895  92.8297418  77.7838254  70.3087213  94.3159951  77.5372275
  72.4324857  98.2649499  95.5410981  72.3737403  97.5808719  94.8741564
  72.8344375  99.0068489  95.0891607  61.4515555 105.0811412  88.3344700
  61.6912154 105.7129937  89.0123719  60.6084752 104.7299453  88.6210060
  72.4342264  96.2289083  93.7724961  71.5469043  95.8915004  93.8951360
  73.0040815  95.4972114  94.0093727  65.9643417 100.8890535  90.7386204
  65.8913589 101.6945506  91.2505509  65.5220810 101.0882501  89.9134226
  65.7533197 100.1262305  84.2489026  64.9700719 100.6683985  84.3427250
  66.4525942 100.6436285  84.6483267  76.9159604  91.6397300  88.5341523
  76.9049481  92.5222015  88.1635456  76.0476984  91.2868851  88.3396060
  68.4242101 100.7877369  92.8944363  69.1370073 101.4224834  92.8220264
  67.9332129 100.8841235  92.0784365  70.1459628  94.6928622  84.4661655
  69.2115906  94.8130084  84.2966359  70.3236296  93.7901088  84.2021665
  73.5332179  90.5345941  85.0011689  73.9992631  91.3673933  84.9271991
  73.9839679  90.0690922  85.7056947  63.4754014  98.5371812  93.7149934
  64.1763474  99.1708295  93.8679328  63.0049129  98.8786544  92.9545573
  71.6008410  96.8789762  81.9997841  71.8768254  96.7646357  82.9091715
  70.7312909  96.4807247  81.9610014  71.5048842  82.9026528  89.0402590
  70.5911921  83.1330755  89.2084797  71.9341943  82.9864972  89.8916623
  71.2755300  91.0916420  91.5402484  70.6226750  91.3392327  90.8854937
  71.6535680  90.2780558  91.2064961  68.2362474 101.1276113  85.6430654
  68.4184869 100.3097769  86.1058407  69.0595460 101.3443805  85.2055544
  68.5704640 100.0544298  82.9045703  69.0992406  99.5436753  82.2915865
  68.8332859  99.7386828  83.7691236  67.3242873  91.8336231  98.0268521
  66.6483510  91.7330360  98.6970896  68.1470507  91.6775445  98.4904518
  61.9260388 101.1059415  85.6643479  61.2570763 101.5905543  85.1807519
  61.7873257 101.3528635  86.5786857  66.0665656 103.1403158  92.2626137
  66.6183964 103.3034780  93.0275222  66.4071850 103.7307596  91.5906162
  70.9176530  97.9664416  98.1174792  71.4616434  98.5794374  97.6229746
  70.3363375  98.5243994  98.6341805  69.2034043 101.0885134  89.2489819
  69.0785183 100.2874874  88.7400765  69.8613134 101.5831327  88.7603789
  71.2668952  98.8894154  90.8769370  70.3199287  98.7699505  90.8047696
  71.6151725  98.0016652  90.9595631  68.2715385  98.6846870  87.0773722
  68.1240347  97.7563578  87.2581292  69.0968879  98.7066961  86.5930797
  71.8749507  99.5075429  88.1638594  72.7996054  99.3018290  88.0263046
  71.7064810  99.2591830  89.0727936  71.6644823 100.0261096  83.5200686
  71.8381701  99.4607519  82.7674538  72.1573714 100.8261991  83.3380176
  77.5184214  92.7897519  85.1390986  77.9615360  92.0404845  84.7410109
  76.6410725  92.7807656  84.7564718  72.6519996  99.3427861  80.6197584
  73.3470900  99.9634553  80.8384899  72.9943146  98.4923212  80.8949962
  74.5511419  96.7927566  82.1484915  75.0762743  97.1314839  81.4234235
  74.4633771  95.8574582  81.9648050  66.2131467 100.7061640  94.2774792
  66.5218594 100.4610787  95.1497491  67.0106949 100.9108278  93.7893662
  66.2352079 102.8599550  86.5080168  65.7957070 102.3675928  87.2013025
  66.9860196 102.3172517  86.2672243  63.6825952  98.4037559  88.5802470
  63.0605961  97.7408264  88.2804698  64.3530819  98.4298691  87.8976118
  63.7550479  86.8819347  98.1734976  63.8038635  87.7581470  97.7912745
  64.2972993  86.3396740  97.6006619  74.2405325  97.4260470  97.4536113
  73.4500868  97.4084609  96.9140612  74.0038679  97.9648764  98.2085150
  74.3603200  94.2752936  94.7668841  74.4101205  94.1102944  95.7084364
  74.2517123  93.4080195  94.3766722  63.2439459  96.9541482  82.0560930
  63.3927579  97.6376946  81.4027603  64.0505902  96.9346572  82.5710386
  71.6506962  90.2583864  96.0828148  72.5516825  90.1190329  95.7912146
  71.7254937  90.4238319  97.0226326  65.9849768  87.6350719  94.9281335
  65.1153077  87.9284285  94.6563923  66.2209248  88.2191164  95.6488598
  75.8621397  96.6949878  95.0110863  75.5706205  97.0579858  95.8474324
  75.2493528  95.9816886  94.8324195  77.0617079  94.2602758  87.5313433
  77.8963970  94.6992562  87.6950994  77.1976208  93.7841411  86.7121679
  74.1108585  91.8182492  93.4790921  74.5862706  92.0110139  92.6709772
  73.1874150  91.8741678  93.2334305  66.7434864  99.4489612  79.5272678
  66.1708831 100.0679800  79.0743150  67.3167658  99.9988974  80.0612600
  72.8110254  88.6948253  91.7119227  73.7627677  88.7946350  91.7331451
  72.6413704  87.9026521  92.2217311  70.8324633  85.7803836  91.8978628
  70.2374565  86.0608849  91.2025116  70.5474330  86.2697737  92.6695369
  69.9632124  99.7326763  80.6581260  70.8962797  99.6672324  80.8614136
  69.8755337 100.5683029  80.1995793  72.5920141  99.0492633  77.6185208
  72.5133772  98.7152497  78.5120966  73.4129807  99.5414401  77.6176680
  75.2898332  91.9154372  90.8261526  75.2574652  90.9770373  91.0121210
  75.8998955  91.9938409  90.0927351  67.1281663  90.7850425  76.8688730
  68.0740767  90.6556633  76.9377148  66.7495907  90.0465087  77.3458158
  75.4392820  88.7065416  90.8719809  74.9231869  87.9223872  90.6849738
  76.3232769  88.3784132  91.0366329  81.1074882  92.9770379  89.9667563
  81.8378270  92.7155667  90.5275266  80.4981827  92.2399101  90.0069631
  79.1890179  91.1178242  90.5642014  78.4623342  90.9834207  89.9558506
  78.7737466  91.4255070  91.3698732  67.0120355  94.8368171  98.3289387
  67.9323365  95.0146770  98.5229434  66.9769938  93.8924217  98.1769087
  65.3124580  88.7100402  76.8043616  64.4056035  88.4133514  76.8806329
  65.5900561  88.4130220  75.9377902  64.8810293  88.3202412 100.3614917
  64.7807020  89.2696769 100.2927008  64.6631835  87.9920651  99.4890987
  64.7441563  91.7499551  99.1779979  64.2608645  92.5499911  99.3843868
  64.8302502  91.7607496  98.2247423  74.3695415  86.6262475  86.8601505
  75.1455805  87.1158927  87.1326122  73.6443549  87.0520529  87.3173375
  76.8067974  87.3390094  87.9175446  77.4012464  87.0985830  87.2068754
  76.8794557  86.6197224  88.5448982  59.0265129 101.1823705  88.2318611
  58.8919597 100.4224106  87.6656609  58.6097192 101.9064605  87.7647400
  70.1624092  96.3660628  77.2395186  70.8659942  96.5710631  77.8552842
  69.4386741  96.9337390  77.5044270  70.9921903  92.1170490  83.3597456
  70.9357104  92.5739041  82.5205089  71.5450245  91.3561174  83.1820299
  74.8026708  87.9060221  84.1847576  74.5463643  87.5056857  85.0155783
  74.1779577  88.6204015  84.0597715  79.1139046  90.6456295  86.6918867
  78.5538604  90.7149484  87.4650429  78.5082550  90.4697279  85.9718363
  62.1834255 102.0793022  88.4437053  62.0666639 103.0238454  88.3415744
  61.3626701 101.7766583  88.8322853  72.0710790  96.8043158  79.2893646
  72.9056394  96.3724356  79.1071121  71.9095133  96.6325171  80.2170541
  71.7256682  93.3075271  80.6549985  71.6705486  93.1419542  79.7138429
  71.1002737  94.0151304  80.8112175  69.0402589  95.6124183  99.9803548
  69.9093749  95.7864835  99.6190183  68.5609341  96.4318600  99.8579277
  63.2088769 102.7321284  91.6592982  64.1116016 102.7644894  91.9759477
  62.9826139 101.8021735  91.6739318  64.9642371 101.4852270  88.3203060
  64.0138002 101.4854132  88.2067433  65.2674857 100.7385005  87.8039095
  60.8546688  85.6910952  98.5786422  61.7178149  85.3347757  98.7889746
  60.2812099  85.3524847  99.2661826  80.6995065 107.3212809  89.3848823
  81.3373475 107.2019556  88.6812163  80.5815908 108.2693653  89.4436775
  77.5084771 107.2740237  89.3210347  77.1703283 107.1581301  88.4330882
  78.3774539 106.8731402  89.3011354  73.3671587 109.1275713  85.3107238
  72.8036452 109.0365650  84.5423526  73.2523982 108.3075618  85.7909731
  77.9904554 108.4275089  95.2796553  77.9793195 108.0327887  94.4077057
  78.1525194 107.6941161  95.8730324  70.9136019 110.6226905  88.1491459
  71.7057311 110.2817729  87.7337758  71.1532669 110.7321880  89.0693612
  78.9471145 112.7946681  80.6221703  78.2959125 113.3800761  80.2355717
  79.7415508 113.3252876  80.6816741  72.8726773 109.8835818  81.0208838
  73.6457649 109.3364805  80.8821713  73.2252172 110.7480067  81.2323299
  74.7111815 111.2112200  94.2275737  74.4201681 112.1157831  94.1122403
  75.3468800 111.2528728  94.9419807  75.6368022 108.5889049  90.8177097
  76.2331594 108.3645071  90.1034060  75.6942994 107.8473794  91.4202544
  75.2093050 106.0428484  78.6527288  75.4618571 105.5210005  77.8910751
  74.2717610 105.8794630  78.7553971  80.2536333 105.0464263  86.4602031
  81.0399422 104.6283686  86.1092448  80.5175038 105.9510355  86.6283679
  80.4246411 110.4837113  81.1590688  79.7892244 110.5571739  81.8711592
  80.0943817 111.0730712  80.4809767  85.6544760 104.9839496  87.3635009
  86.3869932 104.4138713  87.5972839  84.8984116 104.5961096  87.8041515
  74.9289339 107.9456590  80.8551663  74.8125597 107.2701493  81.5232747
  75.0391599 107.4588964  80.0383816  77.2720880 107.4066737  84.5598352
  76.9079087 106.8797358  85.2711273  78.1287996 107.0165206  84.3864837
  83.1770181  98.6961070  91.8229618  82.8453506  99.5656481  91.5990833
  82.5815794  98.3797354  92.5023648  76.9126367 102.4356637  79.5559700
  77.0800769 103.3036873  79.9230171  76.7223536 102.5983919  78.6320990
  79.6701700 110.8973616  91.2225531  79.3702423 111.7998655  91.1141338
  79.3252760 110.6305799  92.0746684  73.1214182 107.3487413  87.2562235
  72.1964678 107.2163627  87.4639927  73.3698595 108.1281632  87.7532177
  83.0698844 103.4156156  88.9022968  82.1615721 103.3471564  88.6081729
  83.0186440 103.8928101  89.7304793  76.8915588 104.8914294  80.5406367
  76.7715213 105.3371345  81.3791847  76.1968176 105.2399612  79.9819905
  70.4822993 106.9920686  88.0906024  70.6115374 107.2455165  89.0045436
  69.8020444 107.5848394  87.7710679  74.6522480 117.6617936  84.1896498
  74.5746510 118.6125761  84.2684979  74.0484124 117.3163809  84.8471425
  77.1439710 104.8345802  96.8457865  76.3673044 105.3939722  96.8360730
  77.7830273 105.3202585  97.3672735  84.9360490 101.6172594  90.6800842
  84.2934871 101.9105128  90.0340636  84.4315419 101.5025515  91.4854039
  82.5900654 105.3635768  81.3686701  83.5018510 105.5963154  81.1934399
  82.0810301 105.9472812  80.8061780  75.3986082 107.6431255  96.4075832
  76.1400767 108.1816299  96.1310656  74.6923068 108.2697544  96.5647384
  80.8741422 109.7860395  95.0047994  81.2824778 109.3442806  94.2602626
  80.1518683 109.2113023  95.2582187  77.2272492 104.7233002  92.3781551
  78.0733687 105.1472416  92.5216200  77.1671130 104.0666627  93.0720114
  81.1970236 110.3461586  88.7600283  80.5679099 110.5107300  88.0576350
  80.8095899 110.7603196  89.5311247  85.0759468 111.2816024  86.1144646
  84.3910506 111.6614925  85.5641680  85.1603318 111.8911351  86.8476594
  80.3771937 102.3837371  94.0362724  80.1332869 103.1379431  93.4997000
  80.6531868 102.7622718  94.8709971  82.3310400 108.9275983  92.7139990
  82.5427295 109.5707743  92.0374371  82.2840148 108.0938299  92.2461920
  79.9336629 101.5393804  89.6176562  79.0721108 101.8375057  89.9093300
  79.9599064 101.7564202  88.6857595  76.7498198 110.0835994  86.0250368
  77.2136544 110.3623697  85.2354990  76.4854996 109.1819439  85.8423458
  73.6422279 109.6307476  88.9630131  74.2123636 110.0594744  88.3247615
  74.2330391 109.3490060  89.6614317  75.6867084 106.2059147  82.8339933
  76.3891128 106.6580190  83.3013859  75.3547713 105.5642965  83.4619826
  74.1347446 104.7970903  97.2091142  73.5046106 105.4787184  97.4426539
  74.0283534 104.6853985  96.2644281  69.4292418 104.4642699  88.1357066
  68.6391472 104.7200228  87.6597177  69.9203666 105.2791037  88.2409107
  83.4456228 111.8047938  90.8862347  84.2673672 111.4028126  90.6045029
  83.4418631 111.7016173  91.8378463  71.3807164 104.8287278  85.0940543
  70.5838327 104.9405973  85.6124039  71.1532756 105.1673931  84.2281434
  77.2112831 111.3531982  93.0423058  77.2757264 111.8152389  93.8781230
  76.5023755 110.7229347  93.1705368  67.7130121 104.7173190  90.5672057
  67.9638160 105.6020200  90.8329633  68.2489670 104.5377791  89.7947149
  91.5362221 108.1486687  87.2347319  90.7825929 107.5794085  87.0791323
  91.6709762 108.1149351  88.1817953  76.9260849 113.0200089  82.9102038
  76.7906524 113.8651625  83.3386886  77.4670661 113.2219367  82.1467972
  73.4128189  99.0991669  99.5716393  73.0195134  98.5457868 100.2464038
  74.2294329  99.4102247  99.9622911  70.3790246 110.5375527  83.4829963
  70.8914767 111.3318777  83.6335528  71.0312959 109.8401818  83.4163565
  72.1885131 113.6541283  85.5652716  72.3651759 114.5759248  85.3773700
  72.9841965 113.3399703  85.9947096  76.3296150 100.5149548  97.1636650
  77.0705863 101.1156701  97.0841112  76.5614072  99.7727186  96.6054692
  71.4737488 105.7005915  95.4414880  71.3591003 104.7991173  95.7421978
  70.6182005 105.9469612  95.0899696  78.5529325 113.6423656  97.0402380
  78.1093180 112.8560034  96.7223285  79.2146539 113.8302806  96.3746271
  73.3116447 115.1719457  91.5663059  73.8623872 115.0436521  90.7940053
  72.4727922 115.4714346  91.2157951  80.6510563 113.9226456  95.0683781
  80.6329039 114.7435337  94.5764051  81.5730483 113.7980531  95.2933923
  77.1083618 111.4370585  95.9107290  77.6411954 110.6758873  95.6806598
  76.5797699 111.1444237  96.6531444  80.2753313  96.5430651  91.4400932
  79.9317582  97.4332293  91.3640042  80.6432275  96.3532309  90.5770517
  68.3439163 108.8664181  84.2589534  69.1814385 109.2761190  84.0423241
  68.5217431 107.9263624  84.2289728  80.2403595 106.5339262  79.9473367
  79.7250219 107.3043867  80.1861754  79.9680904 105.8604398  80.5706428
  77.8250706 101.3788963  85.0058605  76.9692303 100.9895813  84.8264244
  78.2377658 101.4580924  84.1458391  79.3549853  98.9135306  89.4050165
  78.8514649  98.8765441  88.5917970  79.6480460  99.8228049  89.4646821
  75.5992739  98.9974036  88.4116347  76.4645736  98.8016845  88.0522236
  75.6670248  98.7684388  89.3385703  85.2137869 109.2871617  81.8826540
  84.4367312 108.9482776  81.4381702  85.8929350 109.2924240  81.2081505
  80.0289898 104.4066354  81.7733148  79.7240034 104.7212503  82.6243291
  80.9820341 104.4847774  81.8160481  78.4736330 110.5656578  83.4226102
  77.9457692 109.8309337  83.1099339  77.9723833 111.3431254  83.1766070
  83.4529176 108.7605598  88.5393148  82.7952851 109.4504859  88.6273277
  84.2569576 109.1502030  88.8827134  73.2055058 101.2276244  85.7832713
  73.7798810 101.0051425  85.0505906  73.7926040 101.2964938  86.5361315
  82.2634635 107.1149971  86.5897090  82.7766517 107.7479963  87.0918800
  82.9135859 106.5151166  86.2240450  73.5324645 103.2580705  79.8028599
  72.6961957 103.5955391  80.1237873  73.3929415 103.1229685  78.8655736
  75.5077726  98.1017493  84.5107783  74.8542138  97.7866510  83.8864398
  75.4658200  97.4793233  85.2367606  76.6188930 108.3836788  76.4261075
  75.7115992 108.1526041  76.6252224  77.1159962 107.5874407  76.6135056
  79.5257009 117.0934295  79.3457761  78.8518708 117.3965992  79.9542719
  79.9122831 117.8963375  78.9963218  78.7415466 104.5899426  88.8355430
  77.8238027 104.8114373  88.6777118  79.1575610 104.6645737  87.9767138
  79.5250514 105.9890842  83.9658111  80.2722333 106.5012239  83.6565233
  79.7942103 105.6674895  84.8262504  77.7977164 108.4849383  80.9485065
  76.8888383 108.2008415  81.0457535  77.8272248 108.9048461  80.0888372
  83.0296431 112.0955972  84.7176233  82.5758758 111.2546882  84.7741423
  82.3990398 112.7317371  85.0551013  81.9729351 103.0247958  85.9476900
  81.2352108 102.5125344  86.2787143  82.2256124 102.5848340  85.1360177
  81.4729371 113.9332469  85.6526051  81.7652345 114.4937526  84.9338416
  81.9827991 114.2261030  86.4079210  82.0740978  95.8024210  86.5418669
  82.3799855  94.9421574  86.2544584  82.7993583  96.3941830  86.3417663
  68.3665334 106.2054897  84.9300267  68.1689734 105.6124257  84.2051334
  67.8111998 105.9007107  85.6476206  76.3462058 106.0978003  87.0494860
  76.4010668 105.1451840  86.9737337  75.5353260 106.2537442  87.5336159
  77.4953252 110.0258126  78.2873144  77.0572682 109.3093985  77.8278781
  78.2363693 110.2534241  77.7258235  74.2854418 104.7155063  84.8085239
  73.4722283 105.0149234  85.2150431  74.7813412 104.3210752  85.5259721
  76.4362996 114.7112820  86.7419504  76.3939175 114.9373666  85.8128036
  77.3525695 114.4776195  86.8905305  79.8828630 105.1796887  93.6400133
  80.2378017 105.4068361  94.4994599  80.5300761 105.5115264  93.0177388
  85.6126367 108.3015323  84.3449462  85.4744265 108.4916919  83.4170651
  85.2562585 109.0634706  84.8017513  73.7768493 102.2873419  90.4246474
  74.4167872 102.1462178  89.7269437  72.9446023 102.0007932  90.0485076
  85.6395746 110.3691850  89.3560734  86.0732253 110.2767139  90.2043788
  86.3527327 110.3449351  88.7180750  74.5528797 111.5875849  86.5381467
  75.3469395 111.0926169  86.3364042  73.8420489 111.0593712  86.1749172
  79.3723641 113.9693944  90.8893834  79.4260663 114.5384881  91.6571550
  78.5038422 114.1395830  90.5247871  70.8611560 105.7318931  82.6141219
  69.9309148 105.6703386  82.8311181  70.9569032 105.2094883  81.8177861
  70.7797109 102.2573744  85.2019461  71.0403926 103.1719077  85.0928621
  71.6014281 101.7898186  85.3516074  72.2522034 103.6711501  92.3718285
  72.9245088 103.4628863  91.7230934  71.4251821 103.4733587  91.9323518
  86.5011296 110.4115551  91.8893619  86.6947186 111.3161362  92.1352894
  86.4011914 109.9522970  92.7232204  78.1547606 100.2973442  94.3883946
  77.5075521 100.9963391  94.2948423  78.9248622 100.7309586  94.7560195
  81.5626404 110.5622294  97.4634500  81.4111911 110.3332845  96.5464583
  81.5531084 111.5192895  97.4765845  78.3311741 108.1354207  92.4480766
  79.2603801 108.2865366  92.2749733  77.9102771 108.2238227  91.5929413
  77.1300073 112.1604871  90.2179304  76.9911158 111.7923655  91.0905242
  76.3414669 112.6752510  90.0463261  77.7248225 117.2613967  81.5604840
  77.8999980 116.7902011  82.3750463  77.0381013 117.8879734  81.7886101
  78.6805288 111.5386474  87.6068141  78.3455120 111.4987244  88.5025791
  78.1809233 110.8731190  87.1338552  72.6549532 106.9454104  93.1320723
  72.5169330 106.2134342  93.7332262  73.5654455 106.8563004  92.8504910
  81.6164479 108.8842508  77.8805201  80.9993650 108.1589336  77.7838254
  81.1480968 109.6451868  77.5372275  75.2831832 106.6574063  92.6204402
  75.9931451 106.0167255  92.5791021  75.2401140 106.9086958  93.5430583
  83.2718611 113.5941416  95.5410981  83.2131157 112.9100636  94.8741564
  83.6738129 114.3360406  95.0891607  73.9960766 103.6439281  94.4400042
  73.4598123 103.1930019  95.0921638  73.4077475 103.7785190  93.6970506
  72.2909310 120.4103330  88.3344700  72.5305908 121.0421854  89.0123719
  71.4478506 120.0591370  88.6210060  73.4063025 103.1027932  77.0026505
  72.5292492 102.9816733  76.6388752  73.8820778 102.3114011  76.7505394
  83.2736018 111.5581000  93.7724961  82.3862797 111.2206922  93.8951360
  83.8434569 110.8264031  94.0093727  64.9265165 107.8905092  87.0968013
  65.6136205 107.5766822  86.5089028  64.7713294 108.7946457  86.8235264
  69.7299888 102.7795289  91.5253036  69.6458076 102.1720958  90.7903446
  68.9082594 103.2704307  91.5262533  76.8037172 116.2182453  90.7386204
  76.7307343 117.0237424  91.2505509  76.3614565 116.4174418  89.9134226
  76.5926951 115.4554223  84.2489026  75.8094473 115.9975903  84.3427250
  77.2919696 115.9728202  84.6483267  79.9023601 101.2648852  86.8923231
  80.3992301 100.5118814  86.5724302  79.1310583 101.3013169  86.3266441
  87.7553359 106.9689218  88.5341523  87.7443235 107.8513933  88.1635456
  86.8870738 106.6160768  88.3396060  79.2635855 116.1169287  92.8944363
  79.9763827 116.7516751  92.8220264  78.7725884 116.2133153  92.0784365
  80.9853382 110.0220539  84.4661655  80.0509661 110.1422002  84.2966359
  81.1630051 109.1193006  84.2021665  76.4858570 103.4066235  86.6194916
  76.1156358 102.8537275  87.3075821  76.9817663 102.8024369  86.0669916
  84.3725933 105.8637859  85.0011689  84.8386386 106.6965850  84.9271991
  84.8233434 105.3982840  85.7056947  74.3147769 113.8663730  93.7149934
  75.0157228 114.5000213  93.8679328  73.8442884 114.2078462  92.9545573
  82.4402165 112.2081680  81.9997841  82.7162008 112.0938274  82.9091715
  81.5706663 111.8099165  81.9610014  82.3442596  98.2318446  89.0402590
  81.4305676  98.4622672  89.2084797  82.7735698  98.3156890  89.8916623
  82.1149055 106.4208338  91.5402484  81.4620505 106.6684245  90.8854937
  82.4929435 105.6072476  91.2064961  79.0756229 116.4568031  85.6430654
  79.2578623 115.6389687  86.1058407  79.8989215 116.6735723  85.2055544
  79.4098394 115.3836216  82.9045703  79.9386160 114.8728670  82.2915865
  79.6726614 115.0678746  83.7691236  78.1636628 107.1628149  98.0268521
  77.4877265 107.0622278  98.6970896  78.9864262 107.0067362  98.4904518
  69.9115487 113.4000085  90.6481037  70.4968924 112.6543773  90.7808941
  69.7140325 113.7104042  91.5317700  72.7654142 116.4351333  85.6643479
  72.0964517 116.9197460  85.1807519  72.6267012 116.6820553  86.5786857
  64.5033142 105.9705685  89.3685480  64.5417241 105.4369276  90.1622598
  63.9973434 105.4440891  88.7496457  76.9059411 118.4695076  92.2626137
  77.4577719 118.6326698  93.0275222  77.2465604 119.0599514  91.5906162
  71.8823904 100.8170226  92.8648022  71.9465230 101.6785057  92.4525420
  71.8191024 100.2044228  92.1320380  71.3576176 102.8893358  96.5121056
  71.9848215 102.5070436  97.1258581  70.5004095 102.6707560  96.8776749
  68.1341719 104.6969788  82.4439411  68.4295160 103.7880466  82.3906465
  67.2329755 104.6757527  82.1220413  80.0427798 116.4177052  89.2489819
  79.9178937 115.6166791  88.7400765  80.7006889 116.9123245  88.7603789
  71.6635966 102.7725784  88.4266960  70.9422552 103.3861752  88.2874433
  72.4529222 103.3083549  88.3483606  82.1062706 114.2186072  90.8769370
  81.1593042 114.0991423  90.8047696  82.4545479 113.3308570  90.9595631
  74.4662280 100.1080211  94.7007611  74.9896681 100.3542507  95.4633921
  74.2474613 100.9400245  94.2810749  69.8629561 102.3783885  82.5678736
  69.5342267 101.4981264  82.3853842  70.2168931 102.3231554  83.4555125
  79.1109140 114.0138788  87.0773722  78.9634102 113.0855495  87.2581292
  79.9362633 114.0358879  86.5930797  72.9771384 102.6656855  82.9354214
  73.3167456 103.1942776  82.2132822  73.4243504 103.0037261  83.7112780
  82.7143261 114.8367347  88.1638594  83.6389809 114.6310208  88.0263046
  82.5458565 114.5883748  89.0727936  75.6714825 101.0493906  92.3857282
  75.3311645 100.2501719  92.7877962  74.9653831 101.3495617  91.8134115
  76.3231296  98.1343218  90.8384605  77.1457366  97.6603696  90.7163495
  76.5669360  98.9133702  91.3383291  74.9639531 101.1631477  81.1347507
  75.6847893 101.5412729  80.6311224  74.3404835 101.8820353  81.2382485
  79.1070654 101.8676626  82.0705839  79.3234268 102.7501263  81.7694667
  78.6264721 101.4762839  81.3411481  73.8469875 104.8262339  88.6476584
  73.7014456 105.1402642  89.5400865  73.3695079 105.4447239  88.0947482
  75.7066258 101.8164887  88.6957473  75.6927827 100.9205980  88.3589771
  76.4238686 101.8235550  89.3295759  77.5592389 102.2502227  90.7410601
  77.3010167 103.1719298  90.7394931  77.0277429 101.8532661  91.4311065
  82.5038578 115.3553014  83.5200686  82.6775455 114.7899437  82.7674538
  82.9967469 116.1553909  83.3380176  68.3215537 107.3667683  91.5864245
  67.7769005 108.1427491  91.7184519  69.1994887 107.7138488  91.4283366
  75.1103154 100.6979267  83.9645043  75.2319065  99.7695913  84.1635931
  74.8205196 100.7117953  83.0523359  77.9794344  98.3834177  87.1011763
  78.0016041  98.4473511  86.1463743  78.3962403  97.5438686  87.2952269
  88.3577969 108.1189437  85.1390986  88.8009115 107.3696762  84.7410109
  87.4804479 108.1099573  84.7564718  83.4913750 114.6719778  80.6197584
  84.1864655 115.2926471  80.8384899  83.8336900 113.8215130  80.8949962
  69.1081559 106.4937579  94.4794402  68.3663295 106.6420215  95.0659032
  68.7874304 106.7545845  93.6161151  85.3905173 112.1219484  82.1484915
  85.9156497 112.4606757  81.4234235  85.3027526 111.1866499  81.9648050
  77.0525222 116.0353558  94.2774792  77.3612348 115.7902704  95.1497491
  77.8500704 116.2400196  93.7893662  77.0745834 118.1891467  86.5080168
  76.6350824 117.6967846  87.2013025  77.8253951 117.6464435  86.2672243
  69.5538173 114.3803008  86.5104796  70.3796193 114.0806780  86.1303440
  69.2032225 113.6110631  86.9594585  74.5219706 113.7329476  88.5802470
  73.8999715 113.0700181  88.2804698  75.1924573 113.7590608  87.8976118
  67.7546778 112.2989335  87.4693730  66.9178686 111.8711509  87.2877731
  67.7270423 112.4921778  88.4064521  74.5944234 102.2111264  98.1734976
  74.6432389 103.0873387  97.7912745  75.1366748 101.6688657  97.6006619
  85.1996954 109.6044854  94.7668841  85.2494959 109.4394861  95.7084364
  85.0910878 108.7372113  94.3766722  74.0833213 112.2833400  82.0560930
  74.2321333 112.9668864  81.4027603  74.8899656 112.2638490  82.5710386
  82.4900717 105.5875782  96.0828148  83.3910579 105.4482247  95.7912146
  82.5648691 105.7530237  97.0226326  76.8243522 102.9642637  94.9281335
  75.9546831 103.2576203  94.6563923  77.0603002 103.5483082  95.6488598
  86.7015151 112.0241796  95.0110863  86.4099959 112.3871776  95.8474324
  86.0887282 111.3108804  94.8324195  87.9010833 109.5894675  87.5313433
  88.7357725 110.0284479  87.6950994  88.0369962 109.1133329  86.7121679
  84.9502339 107.1474410  93.4790921  85.4256461 107.3402056  92.6709772
  84.0267905 107.2033596  93.2334305  71.8385846 108.3098577  83.0621999
  71.5931888 107.4060907  83.2602209  72.0081761 108.3115728  82.1201477
  79.5282556  99.1822254  92.4446755  80.0464500  99.9183281  92.1193243
  79.1737689  99.4886247  93.2793514  71.1081494 104.0426935  80.5608161
  70.4150738 104.1171290  79.9048197  70.8633245 103.2787279  81.0829678
  79.7795150  95.6022536  87.9647652  80.0596904  94.9345725  88.5908078
  80.5645757  95.7951632  87.4522315  77.5828619 114.7781530  79.5272678
  77.0102586 115.3971717  79.0743150  78.1561412 115.3280892  80.0612600
  83.6504008 104.0240170  91.7119227  84.6021431 104.1238268  91.7331451
  83.4807459 103.2318439  92.2217311  81.6718388 101.1095753  91.8978628
  81.0768320 101.3900766  91.2025116  81.3868085 101.5989654  92.6695369
  80.8025878 115.0618680  80.6581260  81.7356551 114.9964242  80.8614136
  80.7149091 115.8974947  80.1995793  83.4313895 114.3784551  77.6185208
  83.3527527 114.0444414  78.5120966  84.2523562 114.8706319  77.6176680
  86.1292086 107.2446290  90.8261526  86.0968406 106.3062291  91.0121210
  86.7392710 107.3230327  90.0927351  77.9675417 106.1142343  76.8688730
  78.9134522 105.9848551  76.9377148  77.5889662 105.3757005  77.3458158
  86.2786575 104.0357333  90.8719809  85.7625623 103.2515790  90.6849738
  87.1626523 103.7076050  91.0366329  83.9397302  97.7798349  86.8315622
  83.7422123  97.4713437  87.7158954  84.5497007  98.5059988  86.9613552
  91.9468636 108.3062297  89.9667563  92.6772025 108.0447585  90.5275266
  91.3375582 107.5691019  90.0069631  90.0283933 106.4470159  90.5642014
  89.3017097 106.3126124  89.9558506  89.6131220 106.7546988  91.3698732
  77.8514110 110.1660089  98.3289387  78.7717119 110.3438688  98.5229434
  77.8163693 109.2216134  98.1769087  76.1518334 104.0392319  76.8043616
  75.2449790 103.7425432  76.8806329  76.4294315 103.7422137  75.9377902
  67.0696275 105.3598683  87.2542662  66.7499059 104.5063991  86.9617036
  66.5229703 105.5747261  88.0100629  70.8476182 108.0761124  90.9712168
  71.0662192 109.0078232  90.9900202  71.2601956 107.7169098  91.7566972
  77.7680400  98.5829209  82.9587857  76.9581128  98.2376294  83.3343103
  78.4564817  98.2736753  83.5475468  79.6970948  97.6607256  84.5812153
  80.2501987  98.0802709  85.2402177  79.9341035  96.7343004  84.6235109
  75.7204047 103.6494329 100.3614917  75.6200774 104.5988686 100.2927008
  75.5025589 103.3212568  99.4890987  74.9217119 100.8979255  76.9455595
  75.7836283 101.2234153  77.2051412  75.1067463 100.1110750  76.4328661
  66.9384535 108.9801594  89.2235784  66.2448006 108.5655547  88.7105738
  67.6857526 109.0222131  88.6269202  83.0749755  99.7707781  84.0890818
  82.4948424 100.4292585  83.7068870  82.8085688  98.9485126  83.6778235
  81.5253322  99.1712839  86.2912138  82.0253100  99.2829373  85.4826457
  82.1688930  98.8673892  86.9312947  75.5835317 107.0791468  99.1779979
  75.1002399 107.8791828  99.3843868  75.6696257 107.0899413  98.2247423
  68.8521277 108.9119848  87.1001798  68.8291965 109.0107535  86.1483682
  69.1621914 109.7584999  87.4218965  71.5108655 110.9696003  91.2148413
  72.4651909 110.9379945  91.1478344  71.3121179 110.5086627  92.0298639
  72.1008037 109.5397119  93.7819210  72.9200926 110.0341198  93.8054048
  72.3744845 108.6229087  93.7536778  81.8574633 101.9307871  83.1447166
  80.9700488 102.2157522  82.9267361  82.2728622 101.7701635  82.2974443
  85.2089169 101.9554392  86.8601505  85.9849560 102.4450845  87.1326122
  84.4837304 102.3812447  87.3173375  87.6461728 102.6682012  87.9175446
  88.2406219 102.4277748  87.2068754  87.7188312 101.9489142  88.5448982
  69.8658884 116.5115623  88.2318611  69.7313352 115.7516023  87.6656609
  69.4490946 117.2356522  87.7647400  81.0017847 111.6952546  77.2395186
  81.7053697 111.9002549  77.8552842  80.2780496 112.2629308  77.5044270
  81.8315657 107.4462407  83.3597456  81.7750858 107.9030959  82.5205089
  82.3844000 106.6853092  83.1820299  85.6420463 103.2352139  84.1847576
  85.3857397 102.8348775  85.0155783  85.0173331 103.9495933  84.0597715
  89.9532801 105.9748212  86.6918867  89.3932359 106.0441402  87.4650429
  89.3476304 105.7989197  85.9718363  73.0228010 117.4084940  88.4437053
  72.9060394 118.3530372  88.3415744  72.2020456 117.1058501  88.8322853
  82.9104544 112.1335075  79.2893646  83.7450148 111.7016274  79.1071121
  82.7488887 111.9617089  80.2170541  82.5650436 108.6367189  80.6549985
  82.5099240 108.4711460  79.7138429  81.9396492 109.3443221  80.8112175
  67.3542951 103.8735253  94.4811408  68.0001815 103.3634207  94.9698633
  67.1460102 104.6103935  95.0554833  75.8746562  98.1375298  80.2335304
  75.8625232  99.0817137  80.3903575  76.7669984  97.9545443  79.9394765
  74.0482524 118.0613201  91.6592982  74.9509770 118.0936812  91.9759477
  73.8219894 117.1313652  91.6739318  75.8036126 116.8144188  88.3203060
  74.8531757 116.8146050  88.2067433  76.1068612 116.0676923  87.8039095
  79.6898681  94.7318074  84.4881241  78.9231077  94.1776561  84.6337923
  80.1009386  94.8039943  85.3495392  71.6940442 101.0202870  98.5786422
  72.5571904 100.6639675  98.7889746  71.1205853 100.6816765  99.2661826
  88.3478526 122.6032154  89.3210347  88.0097037 122.4873219  88.4330882
  89.2168294 122.2023320  89.3011354  84.2065341 124.4567631  85.3107238
  83.6430206 124.3657568  84.5423526  84.0917736 123.6367535  85.7909731
  81.7529773 125.9518822  88.1491459  82.5451065 125.6109647  87.7337758
  81.9926423 126.0613798  89.0693612  83.7120527 125.2127736  81.0208838
  84.4851403 124.6656723  80.8821713  84.0645926 126.0771985  81.2323299
  86.0486805 121.3720402  78.6527288  86.3012326 120.8501923  77.8910751
  85.1111364 121.2086547  78.7553971  91.0930088 120.3756180  86.4602031
  91.8793177 119.9575603  86.1092448  91.3568792 121.2802272  86.6283679
  91.2640165 125.8129031  81.1590688  90.6285998 125.8863657  81.8711592
  90.9337572 126.4022629  80.4809767  96.4938515 120.3131413  87.3635009
  97.2263687 119.7430630  87.5972839  95.7377871 119.9253014  87.8041515
  85.7683094 123.2748508  80.8551663  85.6519352 122.5993411  81.5232747
  85.8785354 122.7880882  80.0383816  88.1114635 122.7358655  84.5598352
  87.7472842 122.2089276  85.2711273  88.9681751 122.3457124  84.3864837
  94.0163935 114.0252988  91.8229618  93.6847260 114.8948398  91.5990833
  93.4209549 113.7089272  92.5023648  87.7520122 117.7648555  79.5559700
  87.9194524 118.6328791  79.9230171  87.5617291 117.9275836  78.6320990
  83.9607936 122.6779330  87.2562235  83.0358433 122.5455544  87.4639927
  84.2092349 123.4573550  87.7532177  87.7309342 120.2206212  80.5406367
  87.6108968 120.6663263  81.3791847  87.0361931 120.5691530  79.9819905
  81.3216747 122.3212604  88.0906024  81.4509128 122.5747083  89.0045436
  80.6414199 122.9140312  87.7710679  93.4294409 120.6927685  81.3686701
  94.3412265 120.9255072  81.1934399  92.9204056 121.2764729  80.8061780
  90.7730383 116.8685721  89.6176562  89.9114862 117.1666975  89.9093300
  90.7992818 117.0856120  88.6857595  87.5891953 125.4127912  86.0250368
  88.0530298 125.6915615  85.2354990  87.3248751 124.5111356  85.8423458
  84.4816034 124.9599393  88.9630131  85.0517391 125.3886662  88.3247615
  85.0724146 124.6781978  89.6614317  86.5260839 121.5351064  82.8339933
  87.2284882 121.9872108  83.3013859  86.1941467 120.8934883  83.4619826
  80.2686173 119.7934617  88.1357066  79.4785227 120.0492145  87.6597177
  80.7597420 120.6082955  88.2409107  82.2200918 120.1579196  85.0940543
  81.4232081 120.2697890  85.6124039  81.9926510 120.4965848  84.2281434
  78.5523876 120.0465107  90.5672057  78.8031914 120.9312117  90.8329633
  79.0883424 119.8669709  89.7947149  87.7654603 128.3492007  82.9102038
  87.6300278 129.1943543  83.3386886  88.3064416 128.5511284  82.1467972
  81.2184001 125.8667445  83.4829963  81.7308521 126.6610695  83.6335528
  81.8706714 125.1693735  83.4163565  83.0278886 128.9833201  85.5652716
  83.2045514 129.9051166  85.3773700  83.8235719 128.6691620  85.9947096
  91.1147067 111.8722569  91.4400932  90.7711336 112.7624210  91.3640042
  91.4826030 111.6824226  90.5770517  79.1832918 124.1956099  84.2589534
  80.0208140 124.6053108  84.0423241  79.3611185 123.2555541  84.2289728
  91.0797350 121.8631180  79.9473367  90.5643973 122.6335784  80.1861754
  90.8074658 121.1896316  80.5706428  88.6644461 116.7080881  85.0058605
  87.8086057 116.3187731  84.8264244  89.0771413 116.7872841  84.1458391
  90.1943607 114.2427224  89.4050165  89.6908403 114.2057359  88.5917970
  90.4874214 115.1519967  89.4646821  86.4386493 114.3265954  88.4116347
  87.3039490 114.1308762  88.0522236  86.5064002 114.0976305  89.3385703
  90.8683653 119.7358272  81.7733148  90.5633789 120.0504421  82.6243291
  91.8214095 119.8139692  81.8160481  89.3130085 125.8948495  83.4226102
  88.7851446 125.1601255  83.1099339  88.8117588 126.6723172  83.1766070
  84.0448812 116.5568161  85.7832713  84.6192564 116.3343343  85.0505906
  84.6319795 116.6256856  86.5361315  93.1028390 122.4441888  86.5897090
  93.6160271 123.0771880  87.0918800  93.7529613 121.8443084  86.2240450
  84.3718400 118.5872623  79.8028599  83.5355712 118.9247309  80.1237873
  84.2323169 118.4521602  78.8655736  86.3471480 113.4309410  84.5107783
  85.6935892 113.1158428  83.8864398  86.3051954 112.8085151  85.2367606
  87.4582685 123.7128705  76.4261075  86.5509747 123.4817959  76.6252224
  87.9553717 122.9166325  76.6135056  89.5809220 119.9191344  88.8355430
  88.6631782 120.1406291  88.6777118  89.9969364 119.9937654  87.9767138
  90.3644268 121.3182760  83.9658111  91.1116087 121.8304157  83.6565233
  90.6335858 120.9966812  84.8262504  88.6370918 123.8141300  80.9485065
  87.7282138 123.5300333  81.0457535  88.6666002 124.2340379  80.0888372
  92.8123105 118.3539876  85.9476900  92.0745862 117.8417262  86.2787143
  93.0649879 117.9140257  85.1360177  92.9134733 111.1316128  86.5418669
  93.2193610 110.2713491  86.2544584  93.6387338 111.7233748  86.3417663
  79.2059089 121.5346814  84.9300267  79.0083489 120.9416175  84.2051334
  78.6505753 121.2299025  85.6476206  87.1855812 121.4269921  87.0494860
  87.2404422 120.4743757  86.9737337  86.3747014 121.5829360  87.5336159
  88.3347006 125.3550044  78.2873144  87.8966436 124.6385903  77.8278781
  89.0757447 125.5826159  77.7258235  85.1248172 120.0446981  84.8085239
  84.3116038 120.3441151  85.2150431  85.6207167 119.6502669  85.5259721
  84.6162247 117.6165336  90.4246474  85.2561626 117.4754095  89.7269437
  83.7839778 117.3299850  90.0485076  85.3922551 126.9167767  86.5381467
  86.1863150 126.4218087  86.3364042  84.6814243 126.3885630  86.1749172
  81.7005314 121.0610848  82.6141219  80.7702903 120.9995304  82.8311181
  81.7962786 120.5386801  81.8177861  81.6190864 117.5865661  85.2019461
  81.8797681 118.5010994  85.0928621  82.4408036 117.1190104  85.3516074
  83.0915789 119.0003418  92.3718285  83.7638842 118.7920780  91.7230934
  82.2645575 118.8025504  91.9323518  92.4558234 124.2134426  77.8805201
  91.8387404 123.4881254  77.7838254  91.9874722 124.9743786  77.5372275
  84.2456780 118.4319850  77.0026505  83.3686246 118.3108651  76.6388752
  84.7214533 117.6405928  76.7505394  75.7658920 123.2197010  87.0968013
  76.4529960 122.9058740  86.5089028  75.6107049 124.1238374  86.8235264
  80.5693642 118.1087206  91.5253036  80.4851831 117.5012876  90.7903446
  79.7476348 118.5996225  91.5262533  90.7417356 116.5940770  86.8923231
  91.2386055 115.8410732  86.5724302  89.9704337 116.6305086  86.3266441
  91.8247137 125.3512457  84.4661655  90.8903415 125.4713919  84.2966359
  92.0023805 124.4484924  84.2021665  87.3252325 118.7358153  86.6194916
  86.9550112 118.1829193  87.3075821  87.8211417 118.1316286  86.0669916
  95.2119688 121.1929776  85.0011689  95.6780140 122.0257768  84.9271991
  95.6627188 120.7274758  85.7056947  93.1836351 113.5610363  89.0402590
  92.2699430 113.7914590  89.2084797  93.6129452 113.6448807  89.8916623
  75.3426896 121.2997603  89.3685480  75.3810996 120.7661194  90.1622598
  74.8367189 120.7732809  88.7496457  82.7217658 116.1462144  92.8648022
  82.7858985 117.0076974  92.4525420  82.6584779 115.5336145  92.1320380
  78.9735474 120.0261705  82.4439411  79.2688915 119.1172384  82.3906465
  78.0723509 120.0049445  82.1220413  82.5029721 118.1017702  88.4266960
  81.7816306 118.7153669  88.2874433  83.2922976 118.6375467  88.3483606
  80.7023315 117.7075803  82.5678736  80.3736021 116.8273182  82.3853842
  81.0562686 117.6523472  83.4555125  83.8165138 117.9948773  82.9354214
  84.1561211 118.5234694  82.2132822  84.2637259 118.3329179  83.7112780
  86.5108579 116.3785823  92.3857282  86.1705400 115.5793636  92.7877962
  85.8047585 116.6787534  91.8134115  87.1625051 113.4635136  90.8384605
  87.9851120 112.9895614  90.7163495  87.4063114 114.2425620  91.3383291
  85.8033285 116.4923394  81.1347507  86.5241648 116.8704647  80.6311224
  85.1798590 117.2112271  81.2382485  89.9464408 117.1968543  82.0705839
  90.1628023 118.0793181  81.7694667  89.4658475 116.8054757  81.3411481
  84.6863630 120.1554256  88.6476584  84.5408210 120.4694560  89.5400865
  84.2088833 120.7739157  88.0947482  86.5460013 117.1456804  88.6957473
  86.5321581 116.2497898  88.3589771  87.2632441 117.1527468  89.3295759
  88.3986143 117.5794145  90.7410601  88.1403921 118.5011215  90.7394931
  87.8671184 117.1824579  91.4311065  79.1609292 122.6959601  91.5864245
  78.6162760 123.4719409  91.7184519  80.0388642 123.0430405  91.4283366
  85.9496909 116.0271185  83.9645043  86.0712820 115.0987831  84.1635931
  85.6598951 116.0409871  83.0523359  88.8188099 113.7126095  87.1011763
  88.8409796 113.7765428  86.1463743  89.2356158 112.8730604  87.2952269
  80.3931927 129.7094926  86.5104796  81.2189947 129.4098698  86.1303440
  80.0425979 128.9402548  86.9594585  78.5940532 127.6281252  87.4693730
  77.7572441 127.2003427  87.2877731  78.5664178 127.8213696  88.4064521
  84.9226967 127.6125317  82.0560930  85.0715088 128.2960782  81.4027603
  85.7293411 127.5930407  82.5710386  82.6779600 123.6390495  83.0621999
  82.4325642 122.7352825  83.2602209  82.8475515 123.6407645  82.1201477
  90.3676310 114.5114171  92.4446755  90.8858254 115.2475198  92.1193243
  90.0131443 114.8178165  93.2793514  81.9475248 119.3718853  80.5608161
  81.2544493 119.4463208  79.9048197  81.7027000 118.6079196  81.0829678
  90.6188905 110.9314454  87.9647652  90.8990658 110.2637643  88.5908078
  91.4039511 111.1243550  87.4522315  88.8069172 121.4434261  76.8688730
  89.7528276 121.3140469  76.9377148  88.4283416 120.7048923  77.3458158
  94.7791056 113.1090267  86.8315622  94.5815877 112.8005355  87.7158954
  95.3890762 113.8351906  86.9613552  86.9912089 119.3684237  76.8043616
  86.0843544 119.0717350  76.8806329  87.2688070 119.0714055  75.9377902
  77.9090029 120.6890600  87.2542662  77.5892813 119.8355909  86.9617036
  77.3623457 120.9039179  88.0100629  81.6869937 123.4053041  90.9712168
  81.9055946 124.3370149  90.9900202  82.0995710 123.0461016  91.7566972
  88.6074154 113.9121127  82.9587857  87.7974883 113.5668212  83.3343103
  89.2958571 113.6028670  83.5475468  90.5364703 112.9899174  84.5812153
  91.0895741 113.4094627  85.2402177  90.7734789 112.0634922  84.6235109
  85.7610873 116.2271172  76.9455595  86.6230037 116.5526071  77.2051412
  85.9461217 115.4402668  76.4328661  77.7778289 124.3093512  89.2235784
  77.0841760 123.8947465  88.7105738  78.5251280 124.3514048  88.6269202
  93.9143510 115.0999699  84.0890818  93.3342179 115.7584503  83.7068870
  93.6479442 114.2777043  83.6778235  92.3647076 114.5004756  86.2912138
  92.8646855 114.6121291  85.4826457  93.0082684 114.1965809  86.9312947
  79.6915032 124.2411766  87.1001798  79.6685720 124.3399453  86.1483682
  80.0015668 125.0876916  87.4218965  92.6968388 117.2599789  83.1447166
  91.8094243 117.5449440  82.9267361  93.1122377 117.0993552  82.2974443
  96.0482924 117.2846310  86.8601505  96.8243314 117.7742762  87.1326122
  95.3231058 117.7104364  87.3173375  98.4855483 117.9973929  87.9175446
  99.0799973 117.7569665  87.2068754  98.5582066 117.2781060  88.5448982
  92.6709412 122.7754325  83.3597456  92.6144613 123.2322876  82.5205089
  93.2237754 122.0145010  83.1820299  96.4814217 118.5644057  84.1847576
  96.2251152 118.1640693  85.0155783  95.8567085 119.2787851  84.0597715
  93.4044191 123.9659106  80.6549985  93.3492995 123.8003378  79.7138429
  92.7790246 124.6735139  80.8112175  78.1936706 119.2027171  94.4811408
  78.8395569 118.6926125  94.9698633  77.9853857 119.9395852  95.0554833
  86.7140316 113.4667215  80.2335304  86.7018986 114.4109055  80.3903575
  87.6063738 113.2837361  79.9394765  90.5292436 110.0609992  84.4881241
  89.7624832 109.5068479  84.6337923  90.9403141 110.1331861  85.3495392
  26.5026294   7.6815343  76.1094129  27.1404704   7.5622090  75.4057469
  26.3847136   8.6296187  76.1682082  23.3116000   7.6342771  76.0455654
  22.9734511   7.5183836  75.1576189  24.1805768   7.2333936  76.0256660
  19.1702816   9.4878247  72.0352545  18.6067681   9.3968184  71.2668833
  19.0555211   8.6678152  72.5155038  23.7935783   8.7877623  82.0041860
  23.7824424   8.3930421  81.1322363  23.9556422   8.0543695  82.5975631
  16.7167248  10.9829439  74.8736766  17.5088539  10.6420264  74.4583065
  16.9563898  11.0924414  75.7938919  24.7502374  13.1549215  67.3467010
  24.0990354  13.7403296  66.9601024  25.5446737  13.6855410  67.4062047
  18.6758001  10.2438352  67.7454144  19.4488877   9.6967339  67.6067020
  19.0283400  11.1082602  67.9568606  20.5143044  11.5714735  80.9521044
  20.2232910  12.4760365  80.8367710  21.1500028  11.6131262  81.6665113
  21.4399251   8.9491583  77.5422403  22.0362823   8.7247605  76.8279366
  21.4974222   8.2076329  78.1447851  21.0124279   6.4031018  65.3772594
  21.2649800   5.8812540  64.6156057  20.0748838   6.2397164  65.4799278
  26.0567562   5.4066797  73.1847337  26.8430651   4.9886220  72.8337754
  26.3206266   6.3112889  73.3528986  26.2277639  10.8439647  67.8835994
  25.5923472  10.9174274  68.5956899  25.8975046  11.4333246  67.2055074
  31.4575989   5.3442030  74.0880316  32.1901161   4.7741247  74.3218145
  30.7015345   4.9563630  74.5286822  20.7320568   8.3059124  67.5796969
  20.6156826   7.6304028  68.2478054  20.8422828   7.8191498  66.7629122
  23.0752109   7.7669271  71.2843658  22.7110316   7.2399892  71.9956580
  23.9319225   7.3767740  71.1110144  28.9801410  -0.9436396  78.5474925
  28.6484734  -0.0740985  78.3236140  28.3847023  -1.2600112  79.2268955
  22.7157596   2.7959171  66.2805007  22.8831998   3.6639408  66.6475478
  22.5254765   2.9586453  65.3566296  25.4732929  11.2576150  77.9470837
  25.1733652  12.1601189  77.8386645  25.1283989  10.9908333  78.7991990
  18.9245411   7.7089947  73.9807542  17.9995907   7.5766161  74.1885234
  19.1729824   8.4884166  74.4777484  28.8730073   3.7758690  75.6268275
  27.9646950   3.7074099  75.3327036  28.8217669   4.2530635  76.4550100
  22.6946817   5.2516829  67.2651674  22.5746442   5.6973879  68.1037154
  21.9999405   5.6002146  66.7065212  16.2854222   7.3523220  74.8151331
  16.4146603   7.6057699  75.7290743  15.6051673   7.9450928  74.4955986
  20.4553709  18.0220470  70.9141805  20.3777739  18.9728295  70.9930286
  19.8515352  17.6766343  71.5716731  22.9470939   5.1948336  83.5703172
  22.1704273   5.7542256  83.5606037  23.5861502   5.6805119  84.0918042
  30.7391719   1.9775129  77.4046149  30.0966100   2.2707662  76.7585943
  30.2346648   1.8628049  78.2099345  28.3931883   5.7238302  68.0932008
  29.3049739   5.9565689  67.9179705  27.8841530   6.3075346  67.5307086
  21.2017311   8.0033789  83.1321139  21.9431995   8.5418833  82.8555963
  20.4954296   8.6300078  83.2892691  26.6772651  10.1462930  81.7293300
  27.0856007   9.7045340  80.9847933  25.9549912   9.5715557  81.9827493
  23.0303721   5.0835536  79.1026857  23.8764916   5.5074950  79.2461506
  22.9702358   4.4269161  79.7965420  27.0001465  10.7064120  75.4845589
  26.3710328  10.8709834  74.7821657  26.6127127  11.1205730  76.2556553
  30.8790697  11.6418558  72.8389953  30.1941735  12.0217459  72.2886986
  30.9634546  12.2513885  73.5721901  26.1803166   2.7439905  80.7608031
  25.9364098   3.4981965  80.2242307  26.4563096   3.1225252  81.5955278
  28.1341629   9.2878517  79.4385297  28.3458524   9.9310277  78.7619678
  28.0871377   8.4540834  78.9707227  25.7367858   1.8996338  76.3421869
  24.8752337   2.1977591  76.6338606  25.7630292   2.1166737  75.4102901
  22.5529427  10.4438528  72.7495674  23.0167773  10.7226231  71.9600297
  22.2886225   9.5421973  72.5668765  19.4453508   9.9910010  75.6875438
  20.0154865  10.4197278  75.0492922  20.0361620   9.7092595  76.3859623
  21.4898313   6.5661681  69.5585240  22.1922357   7.0182724  70.0259166
  21.1578942   5.9245500  70.1865133  19.9378675   5.1573437  83.9336449
  19.3077335   5.8389718  84.1671846  19.8314763   5.0456519  82.9889587
  29.2487457  12.1650473  77.6107654  30.0704900  11.7630660  77.3290336
  29.2449860  12.0618707  78.5623770  23.0144060  11.7134516  79.7668364
  23.0788493  12.1754923  80.6026536  22.3054984  11.0831881  79.8950674
  37.3393450   8.5089221  73.9592625  36.5857158   7.9396619  73.8036630
  37.4740991   8.4751886  74.9063260  22.7292078  13.3802623  69.6347345
  22.5937753  14.2254159  70.0632193  23.2701890  13.5821901  68.8713279
  16.1821475  10.8978061  70.2075270  16.6945996  11.6921312  70.3580835
  16.8344188  10.2004352  70.1408871  17.9916360  14.0143818  72.2898023
  18.1682988  14.9361782  72.1019007  18.7873193  13.7002237  72.7192403
  24.3560554  14.0026190  83.7647687  23.9124408  13.2162568  83.4468591
  25.0177768  14.1905340  83.0991578  19.1147675  15.5321991  78.2908365
  19.6655100  15.4039055  77.5185359  18.2759151  15.8316880  77.9403258
  26.4541792  14.2828990  81.7929088  26.4360268  15.1037871  81.3009357
  27.3761712  14.1583065  82.0179229  22.9114846  11.7973119  82.6352596
  23.4443183  11.0361407  82.4051904  22.3828928  11.5046771  83.3776751
  26.0434824   6.8941796  66.6718673  25.5281448   7.6646401  66.9107061
  25.7712133   6.2206932  67.2951735  31.0169098   9.6474151  68.6071847
  30.2398541   9.3085310  68.1627009  31.6960579   9.6526774  67.9326812
  25.8321127   4.7668888  68.4978454  25.5271263   5.0815038  69.3488598
  26.7851569   4.8450308  68.5405787  24.2767559  10.9259112  70.1471408
  23.7488921  10.1911871  69.8344646  23.7755062  11.7033788  69.9011377
  29.2560405   9.1208132  75.2638455  28.5984080   9.8107394  75.3518583
  30.0600804   9.5104564  75.6072441  28.0665864   7.4752505  73.3142397
  28.5797746   8.1082497  73.8164106  28.7167088   6.8753700  72.9485757
  22.4220159   8.7439322  63.1506381  21.5147221   8.5128575  63.3497530
  22.9191191   7.9476941  63.3380363  25.3288238  17.4536829  66.0703068
  24.6549937  17.7568526  66.6788025  25.7154060  18.2565910  65.7208525
  24.5446695   4.9501960  75.5600737  23.6269256   5.1716907  75.4022425
  24.9606838   5.0248271  74.7012444  25.3281743   6.3493376  70.6903417
  26.0753562   6.8614773  70.3810539  25.5973332   6.0277429  71.5507811
  23.6008393   8.8451917  67.6730372  22.6919612   8.5610950  67.7702841
  23.6303477   9.2650995  66.8133678  28.8327660  12.4558506  71.4421539
  28.3789987  11.6149416  71.4986730  28.2021627  13.0919905  71.7796319
  27.7760580   3.3850492  72.6722207  27.0383337   2.8727879  73.0032449
  28.0287353   2.9450874  71.8605483  27.2760599  14.2935003  72.3771357
  27.5683574  14.8540060  71.6583723  27.7859220  14.5863564  73.1324516
  22.1493287   6.4580537  73.7740167  22.2041897   5.5054374  73.6982644
  21.3384489   6.6139977  74.2581465  23.2984481  10.3860661  65.0118450
  22.8603910   9.6696519  64.5524088  24.0394921  10.6136775  64.4503542
  20.0885647   5.0757597  71.5330546  19.2753512   5.3751768  71.9395738
  20.5844641   4.6813286  72.2505028  22.2394225  15.0715354  73.4664810
  22.1970403  15.2976200  72.5373343  23.1556923  14.8378729  73.6150612
  25.6859858   5.5399422  80.3645440  26.0409246   5.7670895  81.2239905
  26.3331990   5.8717798  79.7422695  31.4157595   8.6617858  71.0694769
  31.2775494   8.8519454  70.1415958  31.0593814   9.4237240  71.5262820
  31.4426975  10.7294385  76.0806040  31.8763482  10.6369674  76.9289094
  32.1558556  10.7051885  75.4426056  20.3560025  11.9478383  73.2626773
  21.1500624  11.4528703  73.0609348  19.6451718  11.4196246  72.8994479
  25.1754870  14.3296479  77.6139141  25.2291892  14.8987415  78.3816857
  24.3069651  14.4998364  77.2493178  32.3042524  10.7718085  78.6138926
  32.4978415  11.6763896  78.8598201  32.2043143  10.3125504  79.4477511
  27.3657633  10.9224828  84.1879806  27.2143140  10.6935380  83.2709890
  27.3562313  11.8795429  84.2011151  24.1342970   8.4956741  79.1726073
  25.0635030   8.6467900  78.9995040  23.7134000   8.5840762  78.3174719
  22.9331301  12.5207405  76.9424610  22.7942387  12.1526190  77.8150548
  22.1445898  13.0355045  76.7708568  23.5279453  17.6216502  68.2850147
  23.7031209  17.1504545  69.0995770  22.8412241  18.2482268  68.5131408
  24.4836516  11.8989008  74.3313448  24.1486349  11.8589778  75.2271098
  23.9840462  11.2333724  73.8583858  18.4580760   7.3056638  79.8566029
  18.3200558   6.5736877  80.4577568  19.3685684   7.2165538  79.5750217
  27.4195708   9.2445042  64.6050508  26.8024879   8.5191870  64.5083560
  26.9512197  10.0054402  64.2617582  21.0863061   7.0176597  79.3449709
  21.7962680   6.3769789  79.3036327  21.0432369   7.2689492  80.2675890
  29.0749840  13.9543951  82.2656288  29.0162386  13.2703171  81.5986871
  29.4769358  14.6962941  81.8136914  18.0940539  20.7705864  75.0590007
  18.3337137  21.4024389  75.7369026  17.2509735  20.4193904  75.3455366
  29.0767247  11.9183534  80.4970268  28.1894026  11.5809456  80.6196667
  29.6465798  11.1866566  80.7339033  22.6068400  16.5784987  77.4631511
  22.5338572  17.3839958  77.9750816  22.1645794  16.7776953  76.6379532
  22.3958180  15.8156757  70.9734333  21.6125702  16.3578437  71.0672557
  23.0950925  16.3330736  71.3728574  25.7054830   1.6251386  73.6168538
  26.2023530   0.8721349  73.2969608  24.9341812   1.6615703  73.0511747
  33.5584588   7.3291752  75.2586829  33.5474464   8.2116467  74.8880763
  32.6901967   6.9763303  75.0641366  25.0667084  16.4771821  79.6189670
  25.7795056  17.1119286  79.5465571  24.5757113  16.5735687  78.8029671
  26.7884611  10.3823074  71.1906961  25.8540890  10.5024536  71.0211666
  26.9661279   9.4795540  70.9266971  22.2889799   3.7668769  73.3440223
  21.9187586   3.2139810  74.0321128  22.7848891   3.1626903  72.7915223
  30.1757162   6.2240393  71.7256995  30.6417614   7.0568384  71.6517298
  30.6264663   5.7585374  72.4302254  20.1178998  14.2266264  80.4395240
  20.8188457  14.8602747  80.5924635  19.6474113  14.5680996  79.6790880
  28.2433393  12.5684214  68.7243148  28.5193237  12.4540809  69.6337022
  27.3737892  12.1701699  68.6855321  27.9180283   6.7810872  78.2647791
  27.2651734   7.0286779  77.6100244  28.2960663   5.9675010  77.9310268
  24.8787457  16.8170565  72.3675961  25.0609852  15.9992221  72.8303713
  25.7020443  17.0338257  71.9300851  25.2129623  15.7438750  69.6291010
  25.7417389  15.2331205  69.0161172  25.4757842  15.4281280  70.4936543
  23.9667857   7.5230683  84.7513828  23.2908494   7.4224812  85.4216203
  24.7895490   7.3669897  85.2149825  15.7146716  13.7602619  77.3726343
  16.3000152  13.0146307  77.5054247  15.5171554  14.0706576  78.2563007
  18.5685371  16.7953867  72.3888786  17.8995746  17.2799994  71.9052826
  18.4298241  17.0423087  73.3032164  22.7090639  18.8297610  78.9871444
  23.2608947  18.9929232  79.7520529  23.0496833  19.4202048  78.3151469
  27.5601514  13.6558868  84.8420098  28.1041418  14.2688826  84.3475053
  26.9788359  14.2138446  85.3587111  25.8459027  16.7779586  75.9735126
  25.7210166  15.9769326  75.4646072  26.5038118  17.2725779  75.4849096
  27.9093935  14.5788606  77.6014676  26.9624271  14.4593957  77.5293003
  28.2576708  13.6911104  77.6840938  24.9140368  14.3741322  73.8019028
  24.7665331  13.4458030  73.9826598  25.7393862  14.3961413  73.3176104
  28.5174490  15.1969881  74.8883901  29.4421038  14.9912742  74.7508352
  28.3489794  14.9486282  75.7973243  24.9101883   2.2279160  68.7951146
  25.1265497   3.1103798  68.4939974  24.4295950   1.8365373  68.0656788
  19.6501104   5.1864873  75.3721890  19.5045685   5.5005176  76.2646172
  19.1726308   5.8049773  74.8192789  28.3069806  15.7155548  70.2445993
  28.4806684  15.1501971  69.4919845  28.7998698  16.5156443  70.0625483
  34.1609198   8.4791971  71.8636292  34.6040344   7.7299296  71.4655416
  33.2835708   8.4702108  71.4810024  29.2944979  15.0322313  67.3442891
  29.9895884  15.6529005  67.5630206  29.6368129  14.1817664  67.6195269
  31.1936402  12.4822018  68.8730222  31.7187726  12.8209291  68.1479542
  31.1058755  11.5469034  68.6893356  22.8556451  16.3956092  81.0020098
  23.1643577  16.1505239  81.8742798  23.6531933  16.6002730  80.5138968
  22.8777063  18.5494002  73.2325475  22.4382053  18.0570380  73.9258332
  23.6285180  18.0066969  72.9917550  15.3569402  14.7405542  73.2350103
  16.1827422  14.4409314  72.8548746  15.0063454  13.9713165  73.6839892
  20.3250935  14.0932011  75.3047776  19.7030944  13.4302716  75.0050004
  20.9955802  14.1193142  74.6221424  13.5578007  12.6591869  74.1939036
  12.7209915  12.2314043  74.0123038  13.5301652  12.8524312  75.1309828
  30.8830308  13.1154922  84.1781420  30.0925852  13.0979061  83.6385919
  30.6463663  13.6543216  84.9330456  31.0028183   9.9647388  81.4914148
  31.0526188   9.7997396  82.4329671  30.8942106   9.0974647  81.1012029
  19.8864442  12.6435934  68.7806237  20.0352562  13.3271398  68.1272910
  20.6930885  12.6241024  69.2955693  28.2931946   5.9478316  82.8073455
  29.1941808   5.8084781  82.5157453  28.3679920   6.1132771  83.7471632
  22.6274751   3.3245171  81.6526641  21.7578060   3.6178737  81.3809230
  22.8634231   3.9085616  82.3733905  32.5046380  12.3844330  81.7356170
  32.2131188  12.7474310  82.5719631  31.8918511  11.6711338  81.5569502
  33.7042062   9.9497210  74.2558740  34.5388954  10.3887014  74.4196300
  33.8401191   9.4735863  73.4366986  30.7533568   7.5076944  80.2036228
  31.2287690   7.7004591  79.3955079  29.8299134   7.5636130  79.9579611
  17.6417075   8.6701112  69.7867306  17.3963117   7.7663442  69.9847516
  17.8112989   8.6718262  68.8446784  23.3859847  15.1384064  66.2517984
  22.8133814  15.7574252  65.7988456  23.9592641  15.6883426  66.7857906
  29.4535237   4.3842704  78.4364533  30.4052660   4.4840802  78.4576757
  29.2838688   3.5920973  78.9462618  27.4749617   1.4698288  78.6223934
  26.8799549   1.7503300  77.9270423  27.1899313   1.9592189  79.3940675
  26.6057107  15.4221215  67.3826567  27.5387780  15.3566776  67.5859442
  26.5180320  16.2577481  66.9241099  29.2345124  14.7387085  64.3430514
  29.1558755  14.4046948  65.2366272  30.0554791  15.2308853  64.3421987
  31.9323315   7.6048824  77.5506833  31.8999635   6.6664825  77.7366517
  32.5423939   7.6832861  76.8172658  23.7706646   6.4744877  63.5934037
  24.7165751   6.3451085  63.6622455  23.3920891   5.7359539  64.0703465
  32.0817803   4.3959868  77.5965116  31.5656852   3.6118324  77.4095045
  32.9657752   4.0678584  77.7611636  29.7428530  -1.8599117  73.5560929
  29.5453352  -2.1684029  74.4404261  30.3528236  -1.1337478  73.6858859
  37.7499865   8.6664831  76.6912870  38.4803253   8.4050119  77.2520573
  37.1406810   7.9293553  76.7314938  35.8315162   6.8072694  77.2887321
  35.1048326   6.6728659  76.6803813  35.4162449   7.1149522  78.0944039
  23.6545338  10.5262623  85.0534694  24.5748348  10.7041222  85.2474740
  23.6194921   9.5818669  84.9014393  21.9549563   4.3994854  63.5288922
  21.0481018   4.1027966  63.6051636  22.2325544   4.1024672  62.6623208
  16.6507411   8.4363658  77.6957475  16.8693421   9.3680766  77.7145509
  17.0633185   8.0771632  78.4812279  28.8780984   0.1310315  70.8136124
  28.2979653   0.7895119  70.4314177  28.6116917  -0.6912340  70.4023542
  27.3284550  -0.4684627  73.0157445  27.8284329  -0.3568093  72.2071764
  27.9720158  -0.7723574  73.6558253  21.3866546   7.4394003  85.9025286
  20.9033628   8.2394363  86.1089175  21.4727485   7.4501947  84.9492730
  14.6552506   9.2722382  73.8247105  14.6323194   9.3710069  72.8728988
  14.9653142  10.1187533  74.1464271  17.3139884  11.3298537  77.9393719
  18.2683137  11.2982480  77.8723651  17.1152407  10.8689161  78.7543945
  17.9039266   9.8999653  80.5064517  18.7232155  10.3943732  80.5299354
  18.1776074   8.9831621  80.4782085  27.6605862   2.2910406  69.8692473
  26.7731717   2.5760056  69.6512667  28.0759851   2.1304169  69.0219750
  31.0120398   2.3156927  73.5846812  31.7880788   2.8053379  73.8571429
  30.2868532   2.7414981  74.0418681  33.4492957   3.0284546  74.6420753
  34.0437448   2.7880282  73.9314061  33.5219541   2.3091676  75.2694289
  15.6690113  16.8718157  74.9563917  15.5344581  16.1118558  74.3901915
  15.2522175  17.5959057  74.4892706  26.8049076  12.0555080  63.9640493
  27.5084926  12.2605083  64.5798148  26.0811724  12.6231842  64.2289576
  27.6346886   7.8064942  70.0842763  27.5782087   8.2633493  69.2450395
  28.1875228   7.0455626  69.9065606  31.4451692   3.5954673  70.9092882
  31.1888626   3.1951309  71.7401090  30.8204560   4.3098467  70.7843021
  35.7564030   6.3350747  73.4164174  35.1963588   6.4043936  74.1895736
  35.1507533   6.1591731  72.6963670  18.8259238  17.7687474  75.1682360
  18.7091623  18.7132906  75.0661050  18.0051685  17.4661035  75.5568159
  28.7135773  12.4937609  66.0138953  29.5481377  12.0618808  65.8316427
  28.5520116  12.3219623  66.9415847  28.3681665   8.9969723  67.3795292
  28.3130469   8.8313994  66.4383736  27.7427720   9.7045756  67.5357482
  25.6827572  11.3018635  86.7048855  26.5518732  11.4759287  86.3435490
  25.2034324  12.1213051  86.5824584  19.8513753  18.4215736  78.3838288
  20.7540999  18.4539346  78.7004783  19.6251123  17.4916187  78.3984624
  21.6067355  17.1746722  75.0448367  20.6562986  17.1748584  74.9312739
  21.9099841  16.4279457  74.5284402  37.3420048  23.0107261  76.1094129
  37.9798458  22.8914008  75.4057469  37.2240891  23.9588105  76.1682082
  34.1509754  22.9634689  76.0455654  33.8128266  22.8475753  75.1576189
  35.0199523  22.5625854  76.0256660  30.0096570  24.8170165  72.0352545
  29.4461435  24.7260102  71.2668833  29.8948965  23.9970070  72.5155038
  34.6329537  24.1169540  82.0041860  34.6218178  23.7222339  81.1322363
  34.7950177  23.3835613  82.5975631  27.5561002  26.3121357  74.8736766
  28.3482294  25.9712181  74.4583065  27.7957652  26.4216332  75.7938919
  35.5896129  28.4841133  67.3467010  34.9384109  29.0695213  66.9601024
  36.3840492  29.0147328  67.4062047  29.5151756  25.5730270  67.7454144
  30.2882632  25.0259257  67.6067020  29.8677155  26.4374519  67.9568606
  31.3536798  26.9006652  80.9521044  31.0626664  27.8052283  80.8367710
  31.9893783  26.9423180  81.6665113  32.2793005  24.2783501  77.5422403
  32.8756578  24.0539523  76.8279366  32.3367977  23.5368246  78.1447851
  31.8518034  21.7322936  65.3772594  32.1043554  21.2104457  64.6156057
  30.9142593  21.5689081  65.4799278  36.8961317  20.7358714  73.1847337
  37.6824406  20.3178138  72.8337754  37.1600021  21.6404807  73.3528986
  37.0671394  26.1731565  67.8835994  36.4317227  26.2466191  68.5956899
  36.7368800  26.7625164  67.2055074  42.2969744  20.6733948  74.0880316
  43.0294916  20.1033164  74.3218145  41.5409099  20.2855548  74.5286822
  31.5714322  23.6351042  67.5796969  31.4550581  22.9595945  68.2478054
  31.6816582  23.1483416  66.7629122  33.9145863  23.0961189  71.2843658
  33.5504071  22.5691810  71.9956580  34.7712979  22.7059658  71.1110144
  39.8195164  14.3855522  78.5474925  39.4878489  15.2550933  78.3236140
  39.2240777  14.0691806  79.2268955  33.5551350  18.1251089  66.2805007
  33.7225753  18.9931325  66.6475478  33.3648519  18.2878371  65.3566296
  36.3126684  26.5868068  77.9470837  36.0127407  27.4893107  77.8386645
  35.9677743  26.3200251  78.7991990  29.7639165  23.0381865  73.9807542
  28.8389662  22.9058079  74.1885234  30.0123578  23.8176084  74.4777484
  39.7123827  19.1050608  75.6268275  38.8040705  19.0366016  75.3327036
  39.6611423  19.5822553  76.4550100  33.5340571  20.5808746  67.2651674
  33.4140196  21.0265797  68.1037154  32.8393160  20.9294064  66.7065212
  27.1247976  22.6815138  74.8151331  27.2540357  22.9349617  75.7290743
  26.4445427  23.2742846  74.4955986  31.2947463  33.3512388  70.9141805
  31.2171493  34.3020213  70.9930286  30.6909107  33.0058261  71.5716731
  33.7864693  20.5240253  83.5703172  33.0098027  21.0834174  83.5606037
  34.4255256  21.0097036  84.0918042  41.5785474  17.3067046  77.4046149
  40.9359854  17.5999579  76.7585943  41.0740402  17.1919967  78.2099345
  39.2325637  21.0530219  68.0932008  40.1443494  21.2857606  67.9179705
  38.7235285  21.6367264  67.5307086  32.0411065  23.3325707  83.1321139
  32.7825750  23.8710751  82.8555963  31.3348051  23.9591996  83.2892691
  37.5166405  25.4754847  81.7293300  37.9249761  25.0337258  80.9847933
  36.7943667  24.9007475  81.9827493  33.8697475  20.4127454  79.1026857
  34.7158670  20.8366868  79.2461506  33.8096113  19.7561078  79.7965420
  37.8395220  26.0356038  75.4845589  37.2104082  26.2001752  74.7821657
  37.4520882  26.4497647  76.2556553  41.7184452  26.9710476  72.8389953
  41.0335490  27.3509377  72.2886986  41.8028301  27.5805802  73.5721901
  37.0196920  18.0731822  80.7608031  36.7757852  18.8273883  80.2242307
  37.2956851  18.4517170  81.5955278  38.9735383  24.6170435  79.4385297
  39.1852278  25.2602195  78.7619678  38.9265131  23.7832751  78.9707227
  36.5761612  17.2288255  76.3421869  35.7146091  17.5269509  76.6338606
  36.6024047  17.4458654  75.4102901  33.3923182  25.7730446  72.7495674
  33.8561527  26.0518149  71.9600297  33.1279980  24.8713891  72.5668765
  30.2847263  25.3201928  75.6875438  30.8548620  25.7489196  75.0492922
  30.8755375  25.0384512  76.3859623  32.3292068  21.8953598  69.5585240
  33.0316111  22.3474642  70.0259166  31.9972696  21.2537417  70.1865133
  30.7772429  20.4865355  83.9336449  30.1471090  21.1681636  84.1671846
  30.6708517  20.3748437  82.9889587  26.0717402  20.1537151  74.8602373
  25.2816456  20.4094680  74.3842484  26.5628649  20.9685489  74.9654414
  40.0881211  27.4942390  77.6107654  40.9098655  27.0922578  77.3290336
  40.0843614  27.3910624  78.5623770  28.0232147  20.5181730  71.8185850
  27.2263310  20.6300425  72.3369345  27.7957739  20.8568383  70.9526740
  33.8537815  27.0426434  79.7668364  33.9182247  27.5046841  80.6026536
  33.1448739  26.4123798  79.8950674  24.3555105  20.4067642  77.2917364
  24.6063143  21.2914651  77.5574940  24.8914653  20.2272243  76.5192456
  48.1787204  23.8381139  73.9592625  47.4250913  23.2688537  73.8036630
  48.3134745  23.8043803  74.9063260  33.5685832  28.7094541  69.6347345
  33.4331507  29.5546077  70.0632193  34.1095645  28.9113819  68.8713279
  30.0553172  14.7886121  86.2961700  29.6620117  14.2352319  86.9709344
  30.8719312  15.0996699  86.6868217  27.0215230  26.2269979  70.2075270
  27.5339750  27.0213229  70.3580835  27.6737943  25.5296270  70.1408871
  28.8310114  29.3435735  72.2898023  29.0076743  30.2653700  72.1019007
  29.6266948  29.0294155  72.7192403  32.9721133  16.2044000  83.8881957
  33.7130846  16.8051153  83.8086419  33.2039056  15.4621638  83.3299999
  28.1162471  21.3900367  82.1660186  28.0015986  20.4885624  82.4667285
  27.2606989  21.6364064  81.8145003  35.1954309  29.3318108  83.7647687
  34.7518163  28.5454486  83.4468591  35.8571522  29.5197258  83.0991578
  29.9541430  30.8613909  78.2908365  30.5048855  30.7330972  77.5185359
  29.1152906  31.1608798  77.9403258  37.2935547  29.6120907  81.7929088
  37.2754022  30.4329789  81.3009357  38.2155467  29.4874983  82.0179229
  33.7508601  27.1265037  82.6352596  34.2836938  26.3653325  82.4051904
  33.2222682  26.8338689  83.3776751  36.9178296  12.2325103  78.1646238
  36.5742565  13.1226745  78.0885349  37.2857258  12.0426761  77.3015823
  24.9864146  24.5558633  70.9834840  25.8239368  24.9655642  70.7668548
  25.1642414  23.6158076  70.9535034  36.8828579  22.2233714  66.6718673
  36.3675202  22.9938319  66.9107061  36.6105887  21.5498850  67.2951735
  34.4675690  17.0683415  71.7303912  33.6117286  16.6790265  71.5509550
  34.8802641  17.1475376  70.8703697  35.9974836  14.6029758  76.1295471
  35.4939632  14.5659893  75.3163277  36.2905443  15.5122501  76.1892128
  32.2417722  14.6868488  75.1361653  33.1070719  14.4911296  74.7767543
  32.3095231  14.4578840  76.0631010  41.8562853  24.9766069  68.6071847
  41.0792295  24.6377228  68.1627009  42.5354334  24.9818692  67.9326812
  36.6714882  20.0960806  68.4978454  36.3665017  20.4106955  69.3488598
  37.6245324  20.1742226  68.5405787  35.1161314  26.2551029  70.1471408
  34.5882675  25.5203789  69.8344646  34.6148816  27.0325706  69.9011377
  40.0954160  24.4500050  75.2638455  39.4377834  25.1399311  75.3518583
  40.8994559  24.8396482  75.6072441  29.8480041  16.9170696  72.5078020
  30.4223793  16.6945877  71.7751213  30.4351024  16.9859390  73.2606621
  38.9059618  22.8044423  73.3142397  39.4191500  23.4374414  73.8164106
  39.5560842  22.2045618  72.9485757  30.1749628  18.9475157  66.5273905
  29.3386941  19.2849843  66.8483180  30.0354398  18.8124137  65.5901042
  32.1502709  13.7911945  71.2353089  31.4967121  13.4760962  70.6109704
  32.1083183  13.1687685  71.9612912  33.2613914  24.0731240  63.1506381
  32.3540976  23.8420493  63.3497530  33.7584946  23.2768859  63.3380363
  36.1681993  32.7828747  66.0703068  35.4943691  33.0860444  66.6788025
  36.5547815  33.5857827  65.7208525  35.3840449  20.2793878  75.5600737
  34.4663011  20.5008825  75.4022425  35.8000593  20.3540189  74.7012444
  36.1675497  21.6785294  70.6903417  36.9147316  22.1906691  70.3810539
  36.4367087  21.3569347  71.5507811  34.4402147  24.1743835  67.6730372
  33.5313366  23.8902867  67.7702841  34.4697231  24.5942913  66.8133678
  39.6721415  27.7850424  71.4421539  39.2183742  26.9441334  71.4986730
  39.0415381  28.4211822  71.7796319  38.6154334  18.7142410  72.6722207
  37.8777091  18.2019796  73.0032449  38.8681108  18.2742792  71.8605483
  38.1154354  29.6226921  72.3771357  38.4077328  30.1831978  71.6583723
  38.6252974  29.9155482  73.1324516  38.7165962  11.4918662  73.2663976
  39.0224838  10.6316026  72.9789891  39.4418566  12.0836282  73.0662970
  25.0090318  21.8949349  71.6545574  24.8114717  21.3018709  70.9296640
  24.4536982  21.5901559  72.3721513  32.9887041  21.7872455  73.7740167
  33.0435651  20.8346292  73.6982644  32.1778243  21.9431894  74.2581465
  34.1378235  25.7152578  65.0118450  33.6997665  24.9988437  64.5524088
  34.8788676  25.9428693  64.4503542  30.9279401  20.4049515  71.5330546
  30.1147267  20.7043685  71.9395738  31.4238395  20.0105204  72.2505028
  33.0787979  30.4007272  73.4664810  33.0364158  30.6268118  72.5373343
  33.9950678  30.1670646  73.6150612  36.5253613  20.8691339  80.3645440
  36.8803001  21.0962813  81.2239905  37.1725744  21.2009716  79.7422695
  42.2551350  23.9909775  71.0694769  42.1169248  24.1811371  70.1415958
  41.8987569  24.7529158  71.5262820  30.4193476  17.9767870  77.1491781
  31.0592855  17.8356630  76.4514744  29.5871006  17.6902384  76.7730383
  42.2820729  26.0586302  76.0806040  42.7157236  25.9661591  76.9289094
  42.9952310  26.0343803  75.4426056  31.1953780  27.2770301  73.2626773
  31.9894378  26.7820621  73.0609348  30.4845472  26.7488164  72.8994479
  36.0148624  29.6588396  77.6139141  36.0685647  30.2279333  78.3816857
  35.1463406  29.8290281  77.2493178  27.5036543  21.4213383  69.3386526
  26.5734131  21.3597838  69.5556488  27.5994015  20.8989335  68.5423167
  27.4222092  17.9468195  71.9264768  27.6828910  18.8613529  71.8173928
  28.2439265  17.4792638  72.0761380  28.8947018  19.3605953  79.0963592
  29.5670071  19.1523315  78.4476241  28.0676804  19.1628039  78.6568824
  43.1436279  26.1010003  78.6138926  43.3372169  27.0055813  78.8598201
  43.0436897  25.6417422  79.4477511  34.7972590  15.9867893  81.1129253
  34.1500505  16.6857843  81.0193729  35.5673605  16.4204037  81.4805501
  38.2051388  26.2516746  84.1879806  38.0536894  26.0227297  83.2709890
  38.1956067  27.2087347  84.2011151  34.9736724  23.8248658  79.1726073
  35.9028784  23.9759818  78.9995040  34.5527754  23.9132679  78.3174719
  33.7725056  27.8499323  76.9424610  33.6336142  27.4818107  77.8150548
  32.9839652  28.3646962  76.7708568  34.3673208  32.9508419  68.2850147
  34.5424963  32.4796462  69.0995770  33.6805996  33.5774185  68.5131408
  35.3230271  27.2280926  74.3313448  34.9880104  27.1881695  75.2271098
  34.8234217  26.5625641  73.8583858  29.2974515  22.6348556  79.8566029
  29.1594313  21.9028794  80.4577568  30.2079438  22.5457456  79.5750217
  38.2589463  24.5736960  64.6050508  37.6418633  23.8483788  64.5083560
  37.7905951  25.3346320  64.2617582  31.9256816  22.3468515  79.3449709
  32.6356434  21.7061707  79.3036327  31.8826124  22.5981410  80.2675890
  39.9143594  29.2835868  82.2656288  39.8556140  28.5995088  81.5986871
  40.3163113  30.0254858  81.8136914  30.6385750  19.3333733  81.1645348
  30.1023107  18.8824471  81.8166945  30.0502458  19.4679642  80.4215813
  28.9334293  36.0997782  75.0590007  29.1730891  36.7316306  75.7369026
  28.0903490  35.7485822  75.3455366  30.0488009  18.7922384  63.7271812
  29.1717475  18.6711185  63.3634059  30.5245762  18.0008462  63.4750701
  39.9161002  27.2475452  80.4970268  39.0287780  26.9101374  80.6196667
  40.4859553  26.5158483  80.7339033  21.5690149  23.5799544  73.8213319
  22.2561189  23.2661274  73.2334334  21.4138277  24.4840909  73.5480571
  26.3724871  18.4689740  78.2498343  26.2883060  17.8615410  77.5148753
  25.5507577  18.9598759  78.2507839  33.4462155  31.9076904  77.4631511
  33.3732326  32.7131876  77.9750816  33.0039548  32.1068870  76.6379532
  33.2351935  31.1448675  70.9734333  32.4519456  31.6870355  71.0672557
  33.9344680  31.6622654  71.3728574  36.5448585  16.9543304  73.6168538
  37.0417284  16.2013266  73.2969608  35.7735566  16.9907621  73.0511747
  44.3978342  22.6583670  75.2586829  44.3868218  23.5408385  74.8880763
  43.5295722  22.3055220  75.0641366  35.9060838  31.8063739  79.6189670
  36.6188811  32.4411203  79.5465571  35.4150867  31.9027605  78.8029671
  37.6278365  25.7114991  71.1906961  36.6934644  25.8316454  71.0211666
  37.8055034  24.8087458  70.9266971  33.1283553  19.0960687  73.3440223
  32.7581341  18.5431727  74.0321128  33.6242646  18.4918820  72.7915223
  41.0150917  21.5532310  71.7256995  41.4811369  22.3860302  71.6517298
  41.4658417  21.0877292  72.4302254  30.9572752  29.5558182  80.4395240
  31.6582212  30.1894665  80.5924635  30.4867867  29.8972914  79.6790880
  39.0827148  27.8976132  68.7243148  39.3586992  27.7832726  69.6337022
  38.2131647  27.4993617  68.6855321  38.9867579  13.9212897  75.7647897
  38.0730659  14.1517124  75.9330104  39.4160681  14.0051342  76.6161929
  38.7574038  22.1102789  78.2647791  38.1045488  22.3578697  77.6100244
  39.1354418  21.2966928  77.9310268  35.7181212  32.1462483  72.3675961
  35.9003606  31.3284139  72.8303713  36.5414198  32.3630175  71.9300851
  36.0523377  31.0730668  69.6291010  36.5811144  30.5623122  69.0161172
  36.3151597  30.7573198  70.4936543  34.8061611  22.8522601  84.7513828
  34.1302248  22.7516730  85.4216203  35.6289245  22.6961814  85.2149825
  26.5540470  29.0894537  77.3726343  27.1393907  28.3438225  77.5054247
  26.3565309  29.3998494  78.2563007  29.4079125  32.1245784  72.3888786
  28.7389501  32.6091912  71.9052826  29.2691995  32.3715005  73.3032164
  21.1458125  21.6600137  76.0930786  21.1842224  21.1263728  76.8867904
  20.6398418  21.1335343  75.4741763  33.5484394  34.1589528  78.9871444
  34.1002702  34.3221149  79.7520529  33.8890587  34.7493966  78.3151469
  28.5248887  16.5064678  79.5893329  28.5890214  17.3679509  79.1770726
  28.4616007  15.8938679  78.8565687  28.0001160  18.5787810  83.2366363
  28.6273198  18.1964888  83.8503887  27.1429078  18.3602012  83.6022055
  38.3995268  28.9850785  84.8420098  38.9435172  29.5980744  84.3475053
  37.8182113  29.5430364  85.3587111  24.7766702  20.3864239  69.1684718
  25.0720143  19.4774918  69.1151771  23.8754738  20.3651979  68.8465720
  36.6852781  32.1071503  75.9735126  36.5603921  31.3061243  75.4646072
  37.3431872  32.6017697  75.4849096  28.3060949  18.4620236  75.1512266
  27.5847535  19.0756204  75.0119740  29.0954205  18.9978001  75.0728912
  38.7487690  29.9080524  77.6014676  37.8018025  29.7885875  77.5293003
  39.0970463  29.0203022  77.6840938  31.1087263  15.7974662  81.4252918
  31.6321665  16.0436959  82.1879227  30.8899596  16.6294697  81.0056055
  26.5054544  18.0678337  69.2924043  26.1767250  17.1875716  69.1099149
  26.8593915  18.0126006  70.1800432  35.7534123  29.7033240  73.8019028
  35.6059085  28.7749947  73.9826598  36.5787616  29.7253330  73.3176104
  29.6196367  18.3551307  69.6599521  29.9592440  18.8837228  68.9378129
  30.0668488  18.6931713  70.4358087  39.3568245  30.5261799  74.8883901
  40.2814792  30.3204660  74.7508352  39.1883548  30.2778200  75.7973243
  32.3139808  16.7388358  79.1102589  31.9736628  15.9396171  79.5123268
  31.6078814  17.0390068  78.5379422  32.9656280  13.8237670  77.5629912
  33.7882349  13.3498148  77.4408802  33.2094343  14.6028154  78.0628598
  31.6064514  16.8525928  67.8592813  32.3272877  17.2307181  67.3556530
  30.9829818  17.5714805  67.9627791  35.7495637  17.5571077  68.7951146
  35.9659252  18.4395715  68.4939974  35.2689704  17.1657291  68.0656788
  30.4894859  20.5156791  75.3721890  30.3439439  20.8297094  76.2646172
  30.0120062  21.1341691  74.8192789  32.3491241  17.5059339  75.4202780
  32.3352810  16.6100432  75.0835078  33.0663670  17.5130002  76.0541066
  34.2017372  17.9396679  77.4655907  33.9435150  18.8613749  77.4640238
  33.6702413  17.5427113  78.1556371  39.1463561  31.0447466  70.2445993
  39.3200438  30.4793888  69.4919845  39.6392452  31.8448361  70.0625483
  24.9640521  23.0562135  78.3109551  24.4193989  23.8321943  78.4429826
  25.8419871  23.4032940  78.1528673  31.7528137  16.3873719  70.6890350
  31.8744049  15.4590365  70.8881237  31.4630180  16.4012405  69.7768665
  34.6219328  14.0728629  73.8257070  34.6441025  14.1367962  72.8709049
  35.0387387  13.2333138  74.0197576  45.0002952  23.8083889  71.8636292
  45.4434098  23.0591214  71.4655416  44.1229462  23.7994025  71.4810024
  40.1338733  30.3614230  67.3442891  40.8289638  30.9820923  67.5630206
  40.4761884  29.5109582  67.6195269  25.7506543  22.1832031  81.2039708
  25.0088279  22.3314667  81.7904339  25.4299287  22.4440297  80.3406458
  42.0330157  27.8113936  68.8730222  42.5581481  28.1501209  68.1479542
  41.9452509  26.8760951  68.6893356  33.6950205  31.7248010  81.0020098
  34.0037332  31.4797156  81.8742798  34.4925687  31.9294648  80.5138968
  33.7170817  33.8785919  73.2325475  33.2775808  33.3862298  73.9258332
  34.4678934  33.3358887  72.9917550  26.1963156  30.0697460  73.2350103
  27.0221176  29.7701232  72.8548746  25.8457208  29.3005082  73.6839892
  31.1644689  29.4223928  75.3047776  30.5424699  28.7594633  75.0050004
  31.8349556  29.4485060  74.6221424  24.3971761  27.9883786  74.1939036
  23.5603670  27.5605961  74.0123038  24.3695407  28.1816230  75.1309828
  31.2369217  17.9005716  84.8980283  31.2857372  18.7767839  84.5158052
  31.7791731  17.3583109  84.3251926  41.7224063  28.4446840  84.1781420
  40.9319606  28.4270978  83.6385919  41.4857417  28.9835133  84.9330456
  41.8421938  25.2939306  81.4914148  41.8919943  25.1289313  82.4329671
  41.7335861  24.4266565  81.1012029  30.7258196  27.9727852  68.7806237
  30.8746317  28.6563316  68.1272910  31.5324640  27.9532942  69.2955693
  39.1325700  21.2770234  82.8073455  40.0335563  21.1376699  82.5157453
  39.2073675  21.4424689  83.7471632  33.4668505  18.6537089  81.6526641
  32.5971815  18.9470655  81.3809230  33.7027986  19.2377534  82.3733905
  43.3440134  27.7136247  81.7356170  43.0524943  28.0766228  82.5719631
  42.7312266  27.0003256  81.5569502  44.5435817  25.2789127  74.2558740
  45.3782708  25.7178931  74.4196300  44.6794946  24.8027780  73.4366986
  41.5927323  22.8368862  80.2036228  42.0681444  23.0296508  79.3955079
  40.6692888  22.8928048  79.9579611  28.4810829  23.9993029  69.7867306
  28.2356871  23.0955359  69.9847516  28.6506744  24.0010180  68.8446784
  36.1707539  14.8716706  79.1692062  36.6889483  15.6077733  78.8438550
  35.8162672  15.1780699  80.0038821  27.7506477  19.7321387  67.2853467
  27.0575722  19.8065742  66.6293503  27.5058229  18.9681730  67.8074984
  36.4220133  11.2916988  74.6892958  36.7021887  10.6240177  75.3153385
  37.2070740  11.4846084  74.1767622  34.2253602  30.4675982  66.2517984
  33.6527569  31.0866169  65.7988456  34.7986396  31.0175344  66.7857906
  40.2928992  19.7134622  78.4364533  41.2446415  19.8132720  78.4576757
  40.1232442  18.9212891  78.9462618  38.3143371  16.7990205  78.6223934
  37.7193303  17.0795218  77.9270423  38.0293068  17.2884106  79.3940675
  37.4450862  30.7513132  67.3826567  38.3781535  30.6858694  67.5859442
  37.3574074  31.5869399  66.9241099  40.0738878  30.0679003  64.3430514
  39.9952510  29.7338866  65.2366272  40.8948545  30.5600770  64.3421987
  42.7717069  22.9340742  77.5506833  42.7393390  21.9956743  77.7366517
  43.3817693  23.0124779  76.8172658  34.6100400  21.8036795  63.5934037
  35.5559505  21.6743003  63.6622455  34.2314645  21.0651457  64.0703465
  42.9211558  19.7251785  77.5965116  42.4050607  18.9410242  77.4095045
  43.8051506  19.3970502  77.7611636  40.5822285  13.4692801  73.5560929
  40.3847106  13.1607889  74.4404261  41.1921990  14.1954440  73.6858859
  48.5893619  23.9956749  76.6912870  49.3197008  23.7342037  77.2520573
  47.9800565  23.2585471  76.7314938  46.6708916  22.1364611  77.2887321
  45.9442080  22.0020576  76.6803813  46.2556203  22.4441440  78.0944039
  34.4939093  25.8554541  85.0534694  35.4142102  26.0333140  85.2474740
  34.4588676  24.9110586  84.9014393  32.7943317  19.7286771  63.5288922
  31.8874773  19.4319884  63.6051636  33.0719298  19.4316589  62.6623208
  23.7121258  21.0493135  73.9787969  23.3924042  20.1958443  73.6862343
  23.1654686  21.2641713  74.7345936  27.4901165  23.7655576  77.6957475
  27.7087175  24.6972683  77.7145509  27.9026939  23.4063550  78.4812279
  34.4105383  14.2723661  69.6833163  33.6006112  13.9270746  70.0588410
  35.0989800  13.9631205  70.2720775  36.3395932  13.3501708  71.3057460
  36.8926970  13.7697161  71.9647483  36.5766018  12.4237456  71.3480416
  32.3629031  19.3388781  87.0860224  32.2625758  20.2883138  87.0172315
  32.1450573  19.0107020  86.2136294  31.5642102  16.5873706  63.6700901
  32.4261266  16.9128605  63.9296719  31.7492446  15.8005202  63.1573967
  23.5809518  24.6696046  75.9481090  22.8872989  24.2549999  75.4351045
  24.3282509  24.7116583  75.3514509  39.7174739  15.4602233  70.8136124
  39.1373408  16.1187037  70.4314177  39.4510671  14.6379577  70.4023542
  38.1678305  14.8607291  73.0157445  38.6678083  14.9723825  72.2071764
  38.8113913  14.5568343  73.6558253  32.2260301  22.7685920  85.9025286
  31.7427382  23.5686280  86.1089175  32.3121240  22.7793865  84.9492730
  25.4946260  24.6014300  73.8247105  25.4716949  24.7001987  72.8728988
  25.8046897  25.4479451  74.1464271  28.1533638  26.6590455  77.9393719
  29.1076892  26.6274397  77.8723651  27.9546162  26.1981079  78.7543945
  28.7433020  25.2291571  80.5064517  29.5625909  25.7235650  80.5299354
  29.0169828  24.3123539  80.4782085  38.4999617  17.6202323  69.8692473
  37.6125472  17.9051974  69.6512667  38.9153606  17.4596087  69.0219750
  41.8514153  17.6448844  73.5846812  42.6274543  18.1345297  73.8571429
  41.1262287  18.0706898  74.0418681  44.2886711  18.3576463  74.6420753
  44.8831202  18.1172199  73.9314061  44.3613295  17.6383594  75.2694289
  26.5083867  32.2010074  74.9563917  26.3738335  31.4410475  74.3901915
  26.0915929  32.9250974  74.4892706  37.6442830  27.3846998  63.9640493
  38.3478680  27.5897000  64.5798148  36.9205479  27.9523760  64.2289576
  38.4740640  23.1356859  70.0842763  38.4175842  23.5925411  69.2450395
  39.0268983  22.3747544  69.9065606  42.2845446  18.9246591  70.9092882
  42.0282380  18.5243227  71.7401090  41.6598314  19.6390385  70.7843021
  46.5957784  21.6642664  73.4164174  46.0357342  21.7335854  74.1895736
  45.9901287  21.4883649  72.6963670  29.6652993  33.0979391  75.1682360
  29.5485377  34.0424824  75.0661050  28.8445439  32.7952953  75.5568159
  39.5529527  27.8229527  66.0138953  40.3875131  27.3910726  65.8316427
  39.3913870  27.6511541  66.9415847  39.2075420  24.3261640  67.3795292
  39.1524223  24.1605912  66.4383736  38.5821475  25.0337673  67.5357482
  23.9967935  19.5629705  81.2056714  24.6426798  19.0528659  81.6943939
  23.7885086  20.2998386  81.7800139  36.5221327  26.6310552  86.7048855
  37.3912486  26.8051205  86.3435490  36.0428078  27.4504969  86.5824584
  32.5171545  13.8269749  66.9580610  32.5050215  14.7711589  67.1148881
  33.4094967  13.6439895  66.6640072  30.6907507  33.7507653  78.3838288
  31.5934754  33.7831264  78.7004783  30.4644877  32.8208104  78.3984624
  32.4461109  32.5038640  75.0448367  31.4956740  32.5040501  74.9312739
  32.7493595  31.7571374  74.5284402  36.3323665  10.4212526  71.2126547
  35.5656060   9.8671013  71.3583230  36.7434370  10.4934395  72.0740699
  28.3365426  16.7097322  85.3031728  29.1996887  16.3534127  85.5135053
  27.7630836  16.3711217  85.9907133  48.1813803  38.3399178  76.1094129
  48.8192213  38.2205926  75.4057469  48.0634645  39.2880022  76.1682082
  44.9903509  38.2926606  76.0455654  44.6522020  38.1767671  75.1576189
  45.8593277  37.8917771  76.0256660  45.4723292  39.4461458  82.0041860
  45.4611933  39.0514256  81.1322363  45.6343931  38.7127531  82.5975631
  42.1930553  42.2298570  80.9521044  41.9020419  43.1344201  80.8367710
  42.8287537  42.2715097  81.6665113  43.1186760  39.6075418  77.5422403
  43.7150332  39.3831441  76.8279366  43.1761731  38.8660164  78.1447851
  42.6911788  37.0614854  65.3772594  42.9437309  36.5396375  64.6156057
  41.7536347  36.8980999  65.4799278  47.7355071  36.0650632  73.1847337
  48.5218160  35.6470055  72.8337754  47.9993775  36.9696724  73.3528986
  53.1363498  36.0025865  74.0880316  53.8688670  35.4325082  74.3218145
  52.3802854  35.6147466  74.5286822  50.6588919  29.7147439  78.5474925
  50.3272243  30.5842850  78.3236140  50.0634532  29.3983723  79.2268955
  44.3945105  33.4543006  66.2805007  44.5619507  34.3223243  66.6475478
  44.2042274  33.6170288  65.3566296  47.1520438  41.9159985  77.9470837
  46.8521161  42.8185024  77.8386645  46.8071498  41.6492169  78.7991990
  40.6032920  38.3673782  73.9807542  39.6783416  38.2349996  74.1885234
  40.8517333  39.1468001  74.4777484  50.5517582  34.4342526  75.6268275
  49.6434459  34.3657934  75.3327036  50.5005178  34.9114471  76.4550100
  44.3734326  35.9100664  67.2651674  44.2533951  36.3557715  68.1037154
  43.6786914  36.2585982  66.7065212  37.9641731  38.0107056  74.8151331
  38.0934112  38.2641535  75.7290743  37.2839182  38.6034764  74.4955986
  44.6258448  35.8532171  83.5703172  43.8491782  36.4126091  83.5606037
  45.2649011  36.3388954  84.0918042  52.4179228  32.6358964  77.4046149
  51.7753609  32.9291497  76.7585943  51.9134157  32.5211884  78.2099345
  50.0719392  36.3822137  68.0932008  50.9837248  36.6149524  67.9179705
  49.5629039  36.9659181  67.5307086  42.8804820  38.6617625  83.1321139
  43.6219504  39.2002668  82.8555963  42.1741805  39.2883913  83.2892691
  48.3560160  40.8046765  81.7293300  48.7643516  40.3629176  80.9847933
  47.6337421  40.2299393  81.9827493  44.7091230  35.7419372  79.1026857
  45.5552425  36.1658785  79.2461506  44.6489867  35.0852996  79.7965420
  47.8590675  33.4023740  80.7608031  47.6151607  34.1565801  80.2242307
  48.1350605  33.7809088  81.5955278  49.8129138  39.9462352  79.4385297
  50.0246033  40.5894112  78.7619678  49.7658886  39.1124669  78.9707227
  47.4155367  32.5580173  76.3421869  46.5539846  32.8561427  76.6338606
  47.4417801  32.7750572  75.4102901  41.1241017  40.6493845  75.6875438
  41.6942374  41.0781114  75.0492922  41.7149129  40.3676430  76.3859623
  43.1685822  37.2245516  69.5585240  43.8709866  37.6766560  70.0259166
  42.8366451  36.5829335  70.1865133  41.6166184  35.8157273  83.9336449
  40.9864844  36.4973554  84.1671846  41.5102272  35.7040354  82.9889587
  36.9111156  35.4829069  74.8602373  36.1210210  35.7386597  74.3842484
  37.4022403  36.2977407  74.9654414  50.9274966  42.8234308  77.6107654
  51.7492409  42.4214495  77.3290336  50.9237369  42.7202542  78.5623770
  38.8625902  35.8473648  71.8185850  38.0657065  35.9592342  72.3369345
  38.6351494  36.1860300  70.9526740  44.6931569  42.3718351  79.7668364
  44.7576002  42.8338758  80.6026536  43.9842493  41.7415716  79.8950674
  35.1948859  35.7359559  77.2917364  35.4456898  36.6206569  77.5574940
  35.7308408  35.5564161  76.5192456  59.0180959  39.1673056  73.9592625
  58.2644667  38.5980454  73.8036630  59.1528500  39.1335721  74.9063260
  40.8946926  30.1178039  86.2961700  40.5013872  29.5644237  86.9709344
  41.7113067  30.4288617  86.6868217  43.8114887  31.5335918  83.8881957
  44.5524601  32.1343071  83.8086419  44.0432810  30.7913555  83.3299999
  38.9556225  36.7192285  82.1660186  38.8409741  35.8177542  82.4667285
  38.1000743  36.9655982  81.8145003  46.0348063  44.6610025  83.7647687
  45.5911917  43.8746404  83.4468591  46.6965277  44.8489176  83.0991578
  48.1329301  44.9412825  81.7929088  48.1147777  45.7621706  81.3009357
  49.0549221  44.8166900  82.0179229  44.5902355  42.4556955  82.6352596
  45.1230692  41.6945243  82.4051904  44.0616436  42.1630606  83.3776751
  47.7572050  27.5617021  78.1646238  47.4136320  28.4518662  78.0885349
  48.1251013  27.3718678  77.3015823  47.7222333  37.5525632  66.6718673
  47.2068957  38.3230236  66.9107061  47.4499642  36.8790768  67.2951735
  45.3069444  32.3975332  71.7303912  44.4511040  32.0082183  71.5509550
  45.7196396  32.4767293  70.8703697  46.8368591  29.9321676  76.1295471
  46.3333386  29.8951811  75.3163277  47.1299198  30.8414418  76.1892128
  43.0811477  30.0160405  75.1361653  43.9464473  29.8203214  74.7767543
  43.1488986  29.7870757  76.0631010  47.5108636  35.4252724  68.4978454
  47.2058772  35.7398873  69.3488598  48.4639078  35.5034144  68.5405787
  50.9347914  39.7791968  75.2638455  50.2771589  40.4691229  75.3518583
  51.7388313  40.1688400  75.6072441  40.6873796  32.2462613  72.5078020
  41.2617548  32.0237795  71.7751213  41.2744778  32.3151308  73.2606621
  49.7453373  38.1336340  73.3142397  50.2585255  38.7666332  73.8164106
  50.3954597  37.5337536  72.9485757  41.0143383  34.2767074  66.5273905
  40.1780695  34.6141761  66.8483180  40.8748152  34.1416054  65.5901042
  42.9896463  29.1203862  71.2353089  42.3360876  28.8052879  70.6109704
  42.9476938  28.4979603  71.9612912  44.1007668  39.4023157  63.1506381
  43.1934730  39.1712411  63.3497530  44.5978700  38.6060777  63.3380363
  46.2234204  35.6085796  75.5600737  45.3056765  35.8300743  75.4022425
  46.6394347  35.6832106  74.7012444  47.0069252  37.0077212  70.6903417
  47.7541070  37.5198609  70.3810539  47.2760841  36.6861264  71.5507811
  49.4548089  34.0434328  72.6722207  48.7170845  33.5311714  73.0032449
  49.7074862  33.6034709  71.8605483  49.5559716  26.8210580  73.2663976
  49.8618593  25.9607943  72.9789891  50.2812321  27.4128200  73.0662970
  35.8484072  37.2241266  71.6545574  35.6508472  36.6310627  70.9296640
  35.2930736  36.9193477  72.3721513  43.8280796  37.1164373  73.7740167
  43.8829406  36.1638209  73.6982644  43.0171998  37.2723812  74.2581465
  41.7673156  35.7341433  71.5330546  40.9541021  36.0335603  71.9395738
  42.2632150  35.3397121  72.2505028  47.3647367  36.1983257  80.3645440
  47.7196755  36.4254730  81.2239905  48.0119499  36.5301634  79.7422695
  53.0945104  39.3201693  71.0694769  52.9563003  39.5103289  70.1415958
  52.7381323  40.0821076  71.5262820  41.2587230  33.3059788  77.1491781
  41.8986610  33.1648547  76.4514744  40.4264761  33.0194301  76.7730383
  53.1214484  41.3878220  76.0806040  53.5550991  41.2953509  76.9289094
  53.8346065  41.3635720  75.4426056  46.8542379  44.9880314  77.6139141
  46.9079401  45.5571250  78.3816857  45.9857160  45.1582199  77.2493178
  38.3430298  36.7505300  69.3386526  37.4127886  36.6889756  69.5556488
  38.4387770  36.2281253  68.5423167  38.2615847  33.2760113  71.9264768
  38.5222664  34.1905446  71.8173928  39.0833019  32.8084556  72.0761380
  39.7340772  34.6897870  79.0963592  40.4063826  34.4815232  78.4476241
  38.9070559  34.4919956  78.6568824  53.9830033  41.4301921  78.6138926
  54.1765924  42.3347731  78.8598201  53.8830652  40.9709340  79.4477511
  45.6366344  31.3159811  81.1129253  44.9894259  32.0149761  81.0193729
  46.4067360  31.7495955  81.4805501  49.0445142  41.5808663  84.1879806
  48.8930649  41.3519215  83.2709890  49.0349822  42.5379265  84.2011151
  45.8130479  39.1540576  79.1726073  46.7422539  39.3051736  78.9995040
  45.3921509  39.2424597  78.3174719  44.6118810  43.1791241  76.9424610
  44.4729896  42.8110025  77.8150548  43.8233407  43.6938880  76.7708568
  40.1368269  37.9640473  79.8566029  39.9988067  37.2320712  80.4577568
  41.0473193  37.8749373  79.5750217  42.7650570  37.6760433  79.3449709
  43.4750189  37.0353625  79.3036327  42.7219878  37.9273327  80.2675890
  50.7537349  44.6127786  82.2656288  50.6949895  43.9287006  81.5986871
  51.1556867  45.3546776  81.8136914  41.4779504  34.6625650  81.1645348
  40.9416861  34.2116389  81.8166945  40.8896213  34.7971559  80.4215813
  40.8881763  34.1214302  63.7271812  40.0111229  34.0003103  63.3634059
  41.3639516  33.3300380  63.4750701  50.7554756  42.5767370  80.4970268
  49.8681535  42.2393292  80.6196667  51.3253307  41.8450401  80.7339033
  32.4083903  38.9091462  73.8213319  33.0954943  38.5953192  73.2334334
  32.2532032  39.8132826  73.5480571  37.2118625  33.7981658  78.2498343
  37.1276814  33.1907328  77.5148753  36.3901332  34.2890676  78.2507839
  47.3842339  32.2835222  73.6168538  47.8811039  31.5305184  73.2969608
  46.6129321  32.3199538  73.0511747  55.2372097  37.9875587  75.2586829
  55.2261973  38.8700303  74.8880763  54.3689476  37.6347138  75.0641366
  46.7454593  47.1355656  79.6189670  47.4582565  47.7703121  79.5465571
  46.2544622  47.2319522  78.8029671  43.9677308  34.4252605  73.3440223
  43.5975095  33.8723645  74.0321128  44.4636400  33.8210738  72.7915223
  51.8544671  36.8824228  71.7256995  52.3205123  37.7152220  71.6517298
  52.3052172  36.4169210  72.4302254  41.7966507  44.8850100  80.4395240
  42.4975966  45.5186583  80.5924635  41.3261621  45.2264831  79.6790880
  49.8261334  29.2504815  75.7647897  48.9124414  29.4809042  75.9330104
  50.2554435  29.3343259  76.6161929  49.5967792  37.4394707  78.2647791
  48.9439243  37.6870615  77.6100244  49.9748172  36.6258845  77.9310268
  45.6455365  38.1814518  84.7513828  44.9696003  38.0808648  85.4216203
  46.4682999  38.0253732  85.2149825  37.3934225  44.4186455  77.3726343
  37.9787661  43.6730143  77.5054247  37.1959063  44.7290411  78.2563007
  31.9851879  36.9892055  76.0930786  32.0235979  36.4555646  76.8867904
  31.4792172  36.4627260  75.4741763  39.3642642  31.8356595  79.5893329
  39.4283968  32.6971426  79.1770726  39.3009762  31.2230597  78.8565687
  38.8394914  33.9079728  83.2366363  39.4666953  33.5256805  83.8503887
  37.9822833  33.6893930  83.6022055  49.2389023  44.3142703  84.8420098
  49.7828927  44.9272661  84.3475053  48.6575868  44.8722282  85.3587111
  35.6160457  35.7156157  69.1684718  35.9113898  34.8066835  69.1151771
  34.7148493  35.6943897  68.8465720  39.1454704  33.7912154  75.1512266
  38.4241290  34.4048121  75.0119740  39.9347960  34.3269918  75.0728912
  49.5881444  45.2372441  77.6014676  48.6411780  45.1177792  77.5293003
  49.9364217  44.3494939  77.6840938  41.9481017  31.1266580  81.4252918
  42.4715419  31.3728877  82.1879227  41.7293351  31.9586615  81.0056055
  37.3448298  33.3970255  69.2924043  37.0161005  32.5167634  69.1099149
  37.6987669  33.3417923  70.1800432  40.4590122  33.6843225  69.6599521
  40.7986194  34.2129146  68.9378129  40.9062242  34.0223631  70.4358087
  43.1533562  32.0680275  79.1102589  42.8130383  31.2688088  79.5123268
  42.4472569  32.3681986  78.5379422  43.8050034  29.1529588  77.5629912
  44.6276104  28.6790066  77.4408802  44.0488098  29.9320071  78.0628598
  42.4458269  32.1817846  67.8592813  43.1666631  32.5599099  67.3556530
  41.8223573  32.9006723  67.9627791  46.5889392  32.8862995  68.7951146
  46.8053006  33.7687633  68.4939974  46.1083459  32.4949209  68.0656788
  41.3288613  35.8448708  75.3721890  41.1833194  36.1589011  76.2646172
  40.8513817  36.4633609  74.8192789  43.1884996  32.8351256  75.4202780
  43.1746565  31.9392350  75.0835078  43.9057424  32.8421920  76.0541066
  45.0411127  33.2688597  77.4655907  44.7828904  34.1905667  77.4640238
  44.5096167  32.8719031  78.1556371  35.8034275  38.3854053  78.3109551
  35.2587743  39.1613861  78.4429826  36.6813625  38.7324857  78.1528673
  42.5921892  31.7165637  70.6890350  42.7137803  30.7882283  70.8881237
  42.3023934  31.7304323  69.7768665  45.4613082  29.4020547  73.8257070
  45.4834779  29.4659880  72.8709049  45.8781141  28.5625056  74.0197576
  55.8396707  39.1375807  71.8636292  56.2827853  38.3883132  71.4655416
  54.9623217  39.1285943  71.4810024  36.5900297  37.5123949  81.2039708
  35.8482033  37.6606584  81.7904339  36.2693041  37.7732215  80.3406458
  44.5343960  47.0539927  81.0020098  44.8431086  46.8089074  81.8742798
  45.3319442  47.2586566  80.5138968  35.2365516  43.3175704  74.1939036
  34.3997424  42.8897879  74.0123038  35.2089161  43.5108148  75.1309828
  42.0762971  33.2297634  84.8980283  42.1251127  34.1059757  84.5158052
  42.6185486  32.6875027  84.3251926  52.5617817  43.7738757  84.1781420
  51.7713361  43.7562896  83.6385919  52.3251172  44.3127051  84.9330456
  52.6815692  40.6231224  81.4914148  52.7313697  40.4581231  82.4329671
  52.5729615  39.7558483  81.1012029  49.9719455  36.6062152  82.8073455
  50.8729317  36.4668616  82.5157453  50.0467429  36.7716606  83.7471632
  44.3062260  33.9829006  81.6526641  43.4365569  34.2762572  81.3809230
  44.5421740  34.5669451  82.3733905  52.4321077  38.1660780  80.2036228
  52.9075199  38.3588426  79.3955079  51.5086643  38.2219966  79.9579611
  47.0101294  30.2008623  79.1692062  47.5283238  30.9369650  78.8438550
  46.6556426  30.5072617  80.0038821  38.5900231  35.0613305  67.2853467
  37.8969476  35.1357659  66.6293503  38.3451983  34.2973648  67.8074984
  47.2613888  26.6208906  74.6892958  47.5415642  25.9532095  75.3153385
  48.0464495  26.8138001  74.1767622  51.1322746  35.0426540  78.4364533
  52.0840169  35.1424637  78.4576757  50.9626197  34.2504808  78.9462618
  49.1537126  32.1282123  78.6223934  48.5587058  32.4087136  77.9270423
  48.8686822  32.6176024  79.3940675  53.6110824  38.2632660  77.5506833
  53.5787144  37.3248660  77.7366517  54.2211448  38.3416696  76.8172658
  45.4494155  37.1328712  63.5934037  46.3953260  37.0034921  63.6622455
  45.0708400  36.3943374  64.0703465  53.7605312  35.0543703  77.5965116
  53.2444361  34.2702160  77.4095045  54.6445261  34.7262420  77.7611636
  51.4216039  28.7984719  73.5560929  51.2240861  28.4899807  74.4404261
  52.0315745  29.5246357  73.6858859  59.4287374  39.3248666  76.6912870
  60.1590762  39.0633954  77.2520573  58.8194319  38.5877388  76.7314938
  57.5102671  37.4656529  77.2887321  56.7835835  37.3312494  76.6803813
  57.0949958  37.7733358  78.0944039  45.3332847  41.1846459  85.0534694
  46.2535857  41.3625058  85.2474740  45.2982430  40.2402504  84.9014393
  43.6337072  35.0578689  63.5288922  42.7268527  34.7611802  63.6051636
  43.9113053  34.7608507  62.6623208  34.5515012  36.3785052  73.9787969
  34.2317797  35.5250360  73.6862343  34.0048441  36.5933630  74.7345936
  38.3294920  39.0947493  77.6957475  38.5480930  40.0264601  77.7145509
  38.7420694  38.7355468  78.4812279  45.2499138  29.6015579  69.6833163
  44.4399866  29.2562664  70.0588410  45.9383555  29.2923122  70.2720775
  47.1789686  28.6793625  71.3057460  47.7320725  29.0989079  71.9647483
  47.4159772  27.7529374  71.3480416  43.2022785  34.6680699  87.0860224
  43.1019512  35.6175056  87.0172315  42.9844327  34.3398938  86.2136294
  42.4035857  31.9165624  63.6700901  43.2655021  32.2420522  63.9296719
  42.5886201  31.1297120  63.1573967  34.4203272  39.9987964  75.9481090
  33.7266744  39.5841917  75.4351045  35.1676263  40.0408500  75.3514509
  50.5568493  30.7894151  70.8136124  49.9767162  31.4478955  70.4314177
  50.2904426  29.9671495  70.4023542  49.0072059  30.1899208  73.0157445
  49.5071838  30.3015743  72.2071764  49.6507667  29.8860261  73.6558253
  43.0654055  38.0977838  85.9025286  42.5821137  38.8978198  86.1089175
  43.1514994  38.1085783  84.9492730  36.3340015  39.9306218  73.8247105
  36.3110703  40.0293905  72.8728988  36.6440651  40.7771368  74.1464271
  38.9927393  41.9882373  77.9393719  39.9470646  41.9566315  77.8723651
  38.7939916  41.5272996  78.7543945  39.5826775  40.5583489  80.5064517
  40.4019664  41.0527567  80.5299354  39.8563583  39.6415457  80.4782085
  49.3393371  32.9494241  69.8692473  48.4519226  33.2343892  69.6512667
  49.7547360  32.7888004  69.0219750  52.6907907  32.9740762  73.5846812
  53.4668297  33.4637214  73.8571429  51.9656041  33.3998816  74.0418681
  55.1280466  33.6868381  74.6420753  55.7224957  33.4464117  73.9314061
  55.2007050  32.9675512  75.2694289  49.3134395  38.4648777  70.0842763
  49.2569596  38.9217328  69.2450395  49.8662737  37.7039461  69.9065606
  53.1239201  34.2538509  70.9092882  52.8676135  33.8535144  71.7401090
  52.4992069  34.9682303  70.7843021  57.4351539  36.9934582  73.4164174
  56.8751097  37.0627771  74.1895736  56.8295042  36.8175567  72.6963670
  34.8361689  34.8921622  81.2056714  35.4820553  34.3820576  81.6943939
  34.6278840  35.6290304  81.7800139  47.3615081  41.9602470  86.7048855
  48.2306241  42.1343122  86.3435490  46.8821833  42.7796887  86.5824584
  43.3565300  29.1561667  66.9580610  43.3443969  30.1003507  67.1148881
  44.2488721  28.9731813  66.6640072  47.1717419  25.7504444  71.2126547
  46.4049815  25.1962930  71.3583230  47.5828124  25.8226313  72.0740699
  39.1759180  32.0389240  85.3031728  40.0390642  31.6826044  85.5135053
  38.6024591  31.7003134  85.9907133  51.7340681  45.4469956  86.2961700
  51.3407626  44.8936155  86.9709344  52.5506821  45.7580535  86.6868217
  55.4296110  57.7848872  82.6352596  55.9624447  57.0237160  82.4051904
  54.9010191  57.4922524  83.3776751  58.5965805  42.8908938  78.1646238
  58.2530074  43.7810580  78.0885349  58.9644767  42.7010596  77.3015823
  60.3953470  42.1502497  73.2663976  60.7012347  41.2899861  72.9789891
  61.1206075  42.7420118  73.0662970  64.8223788  56.7593838  78.6138926
  65.0159678  57.6639649  78.8598201  64.7224406  56.3001257  79.4477511
  59.8838897  56.9100581  84.1879806  59.7324403  56.6811133  83.2709890
  59.8743576  57.8671182  84.2011151  61.5948511  57.9059288  80.4970268
  60.7075289  57.5685209  80.6196667  62.1647062  57.1742319  80.7339033
  52.6360261  60.2142017  80.4395240  53.3369720  60.8478500  80.5924635
  52.1655376  60.5556749  79.6790880  56.4849120  53.5106436  84.7513828
  55.8089757  53.4100565  85.4216203  57.3076754  53.3545650  85.2149825
  49.6788669  49.2371646  83.2366363  50.3060707  48.8548723  83.8503887
  48.8216587  49.0185848  83.6022055  52.9156726  48.5589552  84.8980283
  52.9644881  49.4351674  84.5158052  53.4579240  48.0166945  84.3251926
  63.4011572  59.1030675  84.1781420  62.6107115  59.0854814  83.6385919
  63.1644926  59.6418969  84.9330456  63.5209447  55.9523141  81.4914148
  63.5707452  55.7873149  82.4329671  63.4123370  55.0850400  81.1012029
  65.0227643  58.3720083  81.7356170  64.7312452  58.7350063  82.5719631
  64.4099775  57.6587091  81.5569502  70.2681128  54.6540584  76.6912870
  70.9984517  54.3925872  77.2520573  69.6588074  53.9169306  76.7314938
  56.1726602  56.5138376  85.0534694  57.0929611  56.6916975  85.2474740
  56.1376185  55.5694422  84.9014393  54.0416540  49.9972617  87.0860224
  53.9413267  50.9466974  87.0172315  53.8238082  49.6690856  86.2136294
  53.9047810  53.4269756  85.9025286  53.4214891  54.2270116  86.1089175
  53.9908749  53.4377700  84.9492730  58.2008836  57.2894388  86.7048855
  59.0699995  57.4635040  86.3435490  57.7215587  58.1088804  86.5824584
  50.0152935  47.3681157  85.3031728  50.8784396  47.0117962  85.5135053
  49.4418345  47.0295052  85.9907133  68.1077392  74.4716886  67.3467010
  67.4565372  75.0570966  66.9601024  68.9021755  75.0023081  67.4062047
  63.8128727  79.3388141  70.9141805  63.7352757  80.2895966  70.9930286
  63.2090370  78.9934014  71.5716731  74.2365715  72.9586229  72.8389953
  73.5516753  73.3385130  72.2886986  74.3209564  73.5681555  73.5721901
  71.4916647  70.6046188  79.4385297  71.7033542  71.2477948  78.7619678
  71.4446395  69.7708504  78.9707227  72.6062475  73.4818143  77.6107654
  73.4279918  73.0798331  77.3290336  72.6024878  73.3786377  78.5623770
  80.6968468  69.8256892  73.9592625  79.9432176  69.2564290  73.8036630
  80.8316009  69.7919556  74.9063260  66.0867096  74.6970294  69.6347345
  65.9512771  75.5421830  70.0632193  66.6276908  74.8989572  68.8713279
  69.4359559  58.2200856  78.1646238  69.0923829  59.1102498  78.0885349
  69.8038522  58.0302514  77.3015823  74.3744116  70.9641822  68.6071847
  73.5973559  70.6252981  68.1627009  75.0535597  70.9694445  67.9326812
  68.6863256  78.7704500  66.0703068  68.0124955  79.0736197  66.6788025
  69.0729078  79.5733580  65.7208525  72.1902678  73.7726177  71.4421539
  71.7365005  72.9317087  71.4986730  71.5596645  74.4087575  71.7796319
  70.6335617  75.6102674  72.3771357  70.9258592  76.1707731  71.6583723
  71.1434238  75.9031235  73.1324516  71.2347225  57.4794415  73.2663976
  71.5406102  56.6191779  72.9789891  71.9599830  58.0712035  73.0662970
  69.0434876  66.8567092  80.3645440  69.3984264  67.0838566  81.2239905
  69.6907008  67.1885469  79.7422695  74.7732613  69.9785528  71.0694769
  74.6350512  70.1687124  70.1415958  74.4168832  70.7404911  71.5262820
  74.8001993  72.0462055  76.0806040  75.2338500  71.9537344  76.9289094
  75.5133574  72.0219556  75.4426056  75.6617542  72.0885756  78.6138926
  75.8553433  72.9931566  78.8598201  75.5618161  71.6293175  79.4477511
  66.8854471  78.9384172  68.2850147  67.0606227  78.4672216  69.0995770
  66.1987259  79.5649939  68.5131408  65.7533198  77.1324428  70.9734333
  64.9700720  77.6746108  71.0672557  66.4525943  77.6498407  71.3728574
  76.9159606  68.6459423  75.2586829  76.9049482  69.5284138  74.8880763
  76.0476985  68.2930973  75.0641366  73.5332180  67.5408064  71.7256995
  73.9992632  68.3736055  71.6517298  73.9839681  67.0753045  72.4302254
  71.6008411  73.8851885  68.7243148  71.8768255  73.7708479  69.6337022
  70.7312910  73.4869370  68.6855321  71.2755301  68.0978542  78.2647791
  70.6226752  68.3454450  77.6100244  71.6535681  67.2842681  77.9310268
  68.2362475  78.1338236  72.3675961  68.4184870  77.3159892  72.8303713
  69.0595461  78.3505928  71.9300851  68.5704641  77.0606421  69.6291010
  69.0992407  76.5498875  69.0161172  68.8332860  76.7448951  70.4936543
  61.9260389  78.1121537  72.3888786  61.2570764  78.5967665  71.9052826
  61.7873258  78.3590758  73.3032164  71.8749508  76.5137552  74.8883901
  72.7996056  76.3080413  74.7508352  71.7064812  76.2653953  75.7973243
  71.6644824  77.0323219  70.2445993  71.8381702  76.4669641  69.4919845
  72.1573716  77.8324114  70.0625483  72.6519997  76.3489983  67.3442891
  73.3470901  76.9696676  67.5630206  72.9943147  75.4985335  67.6195269
  74.5511420  73.7989689  68.8730222  75.0762744  74.1376962  68.1479542
  74.4633773  72.8636704  68.6893356  77.0617080  71.2664880  74.2558740
  77.8963972  71.7054684  74.4196300  77.1976209  70.7903533  73.4366986
  74.1108586  68.8244615  80.2036228  74.5862708  69.0172261  79.3955079
  73.1874152  68.8803801  79.9579611  68.6888803  60.8592459  79.1692062
  69.2070747  61.5953486  78.8438550  68.3343935  61.1656452  80.0038821
  66.7434865  76.4551735  66.2517984  66.1708832  77.0741922  65.7988456
  67.3167659  77.0051097  66.7857906  70.8324635  62.7865958  78.6223934
  70.2374567  63.0670971  77.9270423  70.5474331  63.2759859  79.3940675
  69.9632125  76.7388885  67.3826567  70.8962798  76.6734447  67.5859442
  69.8755338  77.5745152  66.9241099  72.5920142  76.0554756  64.3430514
  72.5133773  75.7214619  65.2366272  73.4129809  76.5476523  64.3421987
  75.2898333  68.9216495  77.5506833  75.2574653  67.9832496  77.7366517
  75.8998957  69.0000532  76.8172658  81.1074883  69.9832502  76.6912870
  81.8378271  69.7217790  77.2520573  80.4981828  69.2461224  76.7314938
  79.1890180  68.1240364  77.2887321  78.4623343  67.9896329  76.6803813
  78.7737467  68.4317193  78.0944039  79.1139048  67.6518417  73.4164174
  78.5538606  67.7211607  74.1895736  78.5082551  67.4759402  72.6963670
  72.0710791  73.8105280  66.0138953  72.9056395  73.3786479  65.8316427
  71.9095134  73.6387294  66.9415847  80.6995066  84.3274931  76.1094129
  81.3373476  84.2081679  75.4057469  80.5815909  85.2755775  76.1682082
  77.5084772  84.2802359  76.0455654  77.1703284  84.1643424  75.1576189
  78.3774541  83.8793524  76.0256660  73.3671588  86.1337836  72.0352545
  72.8036453  86.0427773  71.2668833  73.2523983  85.3137740  72.5155038
  77.9904555  85.4337211  82.0041860  77.9793196  85.0390009  81.1322363
  78.1525195  84.7003284  82.5975631  70.9136020  87.6289027  74.8736766
  71.7057312  87.2879852  74.4583065  71.1532670  87.7384002  75.7938919
  78.9471147  89.8008803  67.3467010  78.2959126  90.3862884  66.9601024
  79.7415510  90.3314998  67.4062047  72.8726774  86.8897941  67.7454144
  73.6457650  86.3426928  67.6067020  73.2252173  87.7542190  67.9568606
  74.7111816  88.2174323  80.9521044  74.4201682  89.1219954  80.8367710
  75.3468801  88.2590851  81.6665113  75.6368023  85.5951171  77.5422403
  76.2331596  85.3707194  76.8279366  75.6942995  84.8535917  78.1447851
  75.2093052  83.0490607  65.3772594  75.4618572  82.5272128  64.6156057
  74.2717611  82.8856752  65.4799278  80.2536335  82.0526385  73.1847337
  81.0399424  81.6345808  72.8337754  80.5175039  82.9572477  73.3528986
  80.4246412  87.4899235  67.8835994  79.7892245  87.5633862  68.5956899
  80.0943818  88.0792834  67.2055074  85.6544762  81.9901618  74.0880316
  86.3869934  81.4200835  74.3218145  84.8984117  81.6023219  74.5286822
  74.9289340  84.9518713  67.5796969  74.8125599  84.2763616  68.2478054
  75.0391600  84.4651087  66.7629122  77.2720881  84.4128860  71.2843658
  76.9079089  83.8859481  71.9956580  78.1287997  84.0227329  71.1110144
  83.1770182  75.7023192  78.5474925  82.8453507  76.5718603  78.3236140
  82.5815795  75.3859476  79.2268955  76.9126368  79.4418760  66.2805007
  77.0800771  80.3098996  66.6475478  76.7223537  79.6046041  65.3566296
  79.6701702  87.9035738  77.9470837  79.3702425  88.8060777  77.8386645
  79.3252761  87.6367922  78.7991990  73.1214183  84.3549535  73.9807542
  72.1964679  84.2225749  74.1885234  73.3698596  85.1343755  74.4777484
  83.0698845  80.4218279  75.6268275  82.1615723  80.3533687  75.3327036
  83.0186441  80.8990224  76.4550100  76.8915589  81.8976417  67.2651674
  76.7715214  82.3433468  68.1037154  76.1968178  82.2461735  66.7065212
  70.4822994  83.9982809  74.8151331  70.6115375  84.2517288  75.7290743
  69.8020445  84.5910517  74.4955986  74.6522481  94.6680059  70.9141805
  74.5746511  95.6187884  70.9930286  74.0484125  94.3225931  71.5716731
  77.1439711  81.8407924  83.5703172  76.3673045  82.4001844  83.5606037
  77.7830274  82.3264707  84.0918042  84.9360492  78.6234717  77.4046149
  84.2934872  78.9167250  76.7585943  84.4315420  78.5087637  78.2099345
  82.5900655  82.3697890  68.0932008  83.5018511  82.6025277  67.9179705
  82.0810302  82.9534934  67.5307086  75.3986083  84.6493378  83.1321139
  76.1400768  85.1878422  82.8555963  74.6923069  85.2759666  83.2892691
  80.8741423  86.7922518  81.7293300  81.2824779  86.3504929  80.9847933
  80.1518685  86.2175146  81.9827493  77.2272493  81.7295125  79.1026857
  78.0733688  82.1534538  79.2461506  77.1671131  81.0728749  79.7965420
  81.1970238  87.3523709  75.4845589  80.5679100  87.5169423  74.7821657
  80.8095900  87.7665318  76.2556553  85.0759470  88.2878146  72.8389953
  84.3910508  88.6677048  72.2886986  85.1603319  88.8973473  73.5721901
  80.3771938  79.3899493  80.7608031  80.1332870  80.1441554  80.2242307
  80.6531869  79.7684841  81.5955278  82.3310401  85.9338106  79.4385297
  82.5427296  86.5769865  78.7619678  82.2840149  85.1000422  78.9707227
  79.9336630  78.5455926  76.3421869  79.0721109  78.8437180  76.6338606
  79.9599065  78.7626325  75.4102901  76.7498200  87.0898117  72.7495674
  77.2136545  87.3685820  71.9600297  76.4854998  86.1881561  72.5668765
  73.6422281  86.6369598  75.6875438  74.2123638  87.0656867  75.0492922
  74.2330392  86.3552183  76.3859623  75.6867086  83.2121269  69.5585240
  76.3891129  83.6642313  70.0259166  75.3547714  82.5705088  70.1865133
  69.4292420  81.4704822  74.8602373  68.6391474  81.7262350  74.3842484
  69.9203667  82.2853160  74.9654414  83.4456229  88.8110061  77.6107654
  84.2673673  88.4090248  77.3290336  83.4418632  88.7078295  78.5623770
  71.3807165  81.8349401  71.8185850  70.5838328  81.9468095  72.3369345
  71.1532757  82.1736053  70.9526740  77.2112833  88.3594104  79.7668364
  77.2757265  88.8214511  80.6026536  76.5023756  87.7291469  79.8950674
  91.5362222  85.1548809  73.9592625  90.7825931  84.5856207  73.8036630
  91.6709763  85.1211474  74.9063260  76.9260850  90.0262212  69.6347345
  76.7906525  90.8713747  70.0632193  77.4670663  90.2281489  68.8713279
  70.3790248  87.5437650  70.2075270  70.8914768  88.3380900  70.3580835
  71.0312960  86.8463940  70.1408871  72.1885132  90.6603406  72.2898023
  72.3651761  91.5821371  72.1019007  72.9841966  90.3461825  72.7192403
  76.3296151  77.5211671  83.8881957  77.0705864  78.1218824  83.8086419
  76.5614074  76.7789308  83.3299999  78.5529327  90.6485778  83.7647687
  78.1093181  89.8622157  83.4468591  79.2146540  90.8364929  83.0991578
  73.3116448  92.1781580  78.2908365  73.8623873  92.0498643  77.5185359
  72.4727924  92.4776469  77.9403258  80.6510565  90.9288578  81.7929088
  80.6329040  91.7497459  81.3009357  81.5730485  90.8042653  82.0179229
  77.1083619  88.4432708  82.6352596  77.6411956  87.6820996  82.4051904
  76.5797700  88.1506359  83.3776751  80.2753314  73.5492774  78.1646238
  79.9317583  74.4394415  78.0885349  80.6432276  73.3594431  77.3015823
  68.3439164  85.8726304  70.9834840  69.1814386  86.2823312  70.7668548
  68.5217432  84.9325746  70.9535034  80.2403597  83.5401385  66.6718673
  79.7250220  84.3105989  66.9107061  79.9680905  82.8666521  67.2951735
  77.8250708  78.3851085  71.7303912  76.9692304  77.9957936  71.5509550
  78.2377659  78.4643046  70.8703697  79.3549854  75.9197429  76.1295471
  78.8514650  75.8827564  75.3163277  79.6480461  76.8290171  76.1892128
  75.5992740  76.0036158  75.1361653  76.4645737  75.8078967  74.7767543
  75.6670249  75.7746510  76.0631010  85.2137871  86.2933739  68.6071847
  84.4367313  85.9544899  68.1627009  85.8929352  86.2986363  67.9326812
  80.0289900  81.4128477  68.4978454  79.7240035  81.7274626  69.3488598
  80.9820342  81.4909897  68.5405787  78.4736332  87.5718700  70.1471408
  77.9457693  86.8371460  69.8344646  77.9723834  88.3493376  69.9011377
  83.4529178  85.7667721  75.2638455  82.7952852  86.4566982  75.3518583
  84.2569577  86.1564153  75.6072441  73.2055059  78.2338366  72.5078020
  73.7798811  78.0113548  71.7751213  73.7926042  78.3027061  73.2606621
  82.2634636  84.1212093  73.3142397  82.7766518  84.7542085  73.8164106
  82.9135860  83.5213289  72.9485757  73.5324646  80.2642827  66.5273905
  72.6961959  80.6017514  66.8483180  73.3929416  80.1291807  65.5901042
  75.5077727  75.1079615  71.2353089  74.8542139  74.7928632  70.6109704
  75.4658201  74.4855356  71.9612912  76.6188932  85.3898910  63.1506381
  75.7115993  85.1588164  63.3497530  77.1159964  84.5936530  63.3380363
  79.5257011  94.0996418  66.0703068  78.8518709  94.4028114  66.6788025
  79.9122833  94.9025498  65.7208525  78.7415467  81.5961549  75.5600737
  77.8238029  81.8176496  75.4022425  79.1575611  81.6707859  74.7012444
  79.5250515  82.9952965  70.6903417  80.2722334  83.5074362  70.3810539
  79.7942105  82.6737017  71.5507811  77.7977165  85.4911505  67.6730372
  76.8888384  85.2070538  67.7702841  77.8272249  85.9110584  66.8133678
  83.0296433  89.1018095  71.4421539  82.5758760  88.2609005  71.4986730
  82.3990399  89.7379493  71.7796319  81.9729352  80.0310081  72.6722207
  81.2352109  79.5187467  73.0032449  82.2256126  79.5910462  71.8605483
  81.4729372  90.9394591  72.3771357  81.7652346  91.4999649  71.6583723
  81.9827992  91.2323152  73.1324516  82.0740979  72.8086333  73.2663976
  82.3799856  71.9483696  72.9789891  82.7993584  73.4003953  73.0662970
  68.3665336  83.2117019  71.6545574  68.1689735  82.6186380  70.9296640
  67.8112000  82.9069230  72.3721513  76.3462059  83.1040126  73.7740167
  76.4010669  82.1513962  73.6982644  75.5353261  83.2599565  74.2581465
  77.4953253  87.0320249  65.0118450  77.0572683  86.3156108  64.5524088
  78.2363694  87.2596364  64.4503542  74.2854419  81.7217186  71.5330546
  73.4722285  82.0211356  71.9395738  74.7813413  81.3272874  72.2505028
  76.4362997  91.7174943  73.4664810  76.3939176  91.9435789  72.5373343
  77.3525696  91.4838317  73.6150612  79.8828631  82.1859010  80.3645440
  80.2378019  82.4130483  81.2239905  80.5300762  82.5177387  79.7422695
  85.6126368  85.3077446  71.0694769  85.4744266  85.4979042  70.1415958
  85.2562587  86.0696829  71.5262820  73.7768494  79.2935541  77.1491781
  74.4167873  79.1524300  76.4514744  72.9446024  79.0070055  76.7730383
  85.6395747  87.3753973  76.0806040  86.0732254  87.2829262  76.9289094
  86.3527328  87.3511473  75.4426056  74.5528798  88.5937972  73.2626773
  75.3469396  88.0988292  73.0609348  73.8420490  88.0655835  72.8994479
  79.3723642  90.9756067  77.6139141  79.4260665  91.5447003  78.3816857
  78.5038424  91.1457952  77.2493178  70.8611561  82.7381053  69.3386526
  69.9309149  82.6765509  69.5556488  70.9569033  82.2157006  68.5423167
  70.7797110  79.2635866  71.9264768  71.0403928  80.1781199  71.8173928
  71.6014283  78.7960309  72.0761380  86.5011297  87.4177674  78.6138926
  86.6947187  88.3223484  78.8598201  86.4011915  86.9585093  79.4477511
  78.1547608  77.3035564  81.1129253  77.5075523  78.0025514  81.0193729
  78.9248623  77.7371708  81.4805501  81.5626406  87.5684416  84.1879806
  81.4111912  87.3394968  83.2709890  81.5531085  88.5255018  84.2011151
  78.3311742  85.1416329  79.1726073  79.2603802  85.2927489  78.9995040
  77.9102772  85.2300350  78.3174719  77.1300074  89.1666994  76.9424610
  76.9911159  88.7985778  77.8150548  76.3414670  89.6814633  76.7708568
  77.7248226  94.2676090  68.2850147  77.8999981  93.7964133  69.0995770
  77.0381014  94.8941856  68.5131408  78.6805289  88.5448596  74.3313448
  78.3455122  88.5049366  75.2271098  78.1809235  87.8793312  73.8583858
  81.6164481  85.8904631  64.6050508  80.9993651  85.1651459  64.5083560
  81.1480969  86.6513991  64.2617582  75.2831834  83.6636186  79.3449709
  75.9931452  83.0229378  79.3036327  75.2401142  83.9149080  80.2675890
  83.2718612  90.6003539  82.2656288  83.2131158  89.9162759  81.5986871
  83.6738131  91.3422529  81.8136914  72.2909311  97.4165453  75.0590007
  72.5305909  98.0483977  75.7369026  71.4478508  97.0653493  75.3455366
  73.4063027  80.1090055  63.7271812  72.5292493  79.9878856  63.3634059
  73.8820780  79.3176133  63.4750701  83.2736020  88.5643123  80.4970268
  82.3862798  88.2269045  80.6196667  83.8434571  87.8326154  80.7339033
  64.9265167  84.8967215  73.8213319  65.6136206  84.5828945  73.2334334
  64.7713295  85.8008579  73.5480571  76.8037173  93.2244575  77.4631511
  76.7307344  94.0299547  77.9750816  76.3614566  93.4236541  76.6379532
  76.5926953  92.4616345  70.9734333  75.8094474  93.0038025  71.0672557
  77.2919698  92.9790325  71.3728574  79.9023603  78.2710975  73.6168538
  80.3992302  77.5180937  73.2969608  79.1310584  78.3075291  73.0511747
  87.7553360  83.9751340  75.2586829  87.7443236  84.8576056  74.8880763
  86.8870739  83.6222891  75.0641366  79.2635856  93.1231409  79.6189670
  79.9763829  93.7578874  79.5465571  78.7725885  93.2195275  78.8029671
  80.9853383  87.0282662  71.1906961  80.0509662  87.1484124  71.0211666
  81.1630052  86.1255129  70.9266971  76.4858571  80.4128358  73.3440223
  76.1156359  79.8599398  74.0321128  76.9817664  79.8086491  72.7915223
  84.3725935  82.8699981  71.7256995  84.8386387  83.7027973  71.6517298
  84.8233435  82.4044963  72.4302254  74.3147770  90.8725853  80.4395240
  75.0157229  91.5062336  80.5924635  73.8442885  91.2140584  79.6790880
  82.4402166  89.2143802  68.7243148  82.7162010  89.1000397  69.6337022
  81.5706665  88.8161287  68.6855321  82.3442597  75.2380568  75.7647897
  81.4305677  75.4684795  75.9330104  82.7735699  75.3219012  76.6161929
  82.1149056  83.4270460  78.2647791  81.4620506  83.6746368  77.6100244
  82.4929436  82.6134598  77.9310268  79.0756230  93.4630153  72.3675961
  79.2578624  92.6451809  72.8303713  79.8989216  93.6797846  71.9300851
  79.4098395  92.3898338  69.6291010  79.9386162  91.8790793  69.0161172
  79.6726615  92.0740869  70.4936543  78.1636629  84.1690271  84.7513828
  77.4877266  84.0684401  85.4216203  78.9864263  84.0129485  85.2149825
  69.9115488  90.4062208  77.3726343  70.4968925  89.6605896  77.5054247
  69.7140326  90.7166164  78.2563007  72.7654143  93.4413455  72.3888786
  72.0964519  93.9259583  71.9052826  72.6267013  93.6882676  73.3032164
  76.9059412  95.4757199  78.9871444  77.4577720  95.6388820  79.7520529
  77.2465605  96.0661636  78.3151469  81.7570286  90.3018456  84.8420098
  82.3010190  90.9148414  84.3475053  81.1757131  90.8598035  85.3587111
  68.1341720  81.7031910  69.1684718  68.4295161  80.7942589  69.1151771
  67.2329756  81.6819650  68.8465720  80.0427799  93.4239174  75.9735126
  79.9178939  92.6228914  75.4646072  80.7006890  93.9185368  75.4849096
  71.6635967  79.7787907  75.1512266  70.9422553  80.3923874  75.0119740
  72.4529223  80.3145672  75.0728912  82.1062707  91.2248194  77.6014676
  81.1593043  91.1053545  77.5293003  82.4545481  90.3370692  77.6840938
  74.4662281  77.1142333  81.4252918  74.9896683  77.3604630  82.1879227
  74.2474614  77.9462368  81.0056055  69.8629562  79.3846008  69.2924043
  69.5342268  78.5043387  69.1099149  70.2168933  79.3293676  70.1800432
  79.1109141  91.0200910  73.8019028  78.9634103  90.0917618  73.9826598
  79.9362634  91.0421001  73.3176104  72.9771385  79.6718978  69.6599521
  73.3167458  80.2004899  68.9378129  73.4243506  80.0099384  70.4358087
  82.7143263  91.8429469  74.8883901  83.6389810  91.6372331  74.7508352
  82.5458566  91.5945870  75.7973243  75.6714826  78.0556028  79.1102589
  75.3311646  77.2563841  79.5123268  74.9653832  78.3557739  78.5379422
  76.3231298  75.1405341  77.5629912  77.1457367  74.6665819  77.4408802
  76.5669361  75.9195824  78.0628598  74.9639532  78.1693599  67.8592813
  75.6847895  78.5474852  67.3556530  74.3404836  78.8882476  67.9627791
  79.1070655  78.8738748  68.7951146  79.3234270  79.7563386  68.4939974
  78.6264722  78.4824962  68.0656788  73.8469876  81.8324461  75.3721890
  73.7014457  82.1464764  76.2646172  73.3695080  82.4509362  74.8192789
  75.7066259  78.8227009  75.4202780  75.6927828  77.9268103  75.0835078
  76.4238687  78.8297673  76.0541066  77.5592390  79.2564350  77.4655907
  77.3010168  80.1781420  77.4640238  77.0277430  78.8594784  78.1556371
  82.5038579  92.3615137  70.2445993  82.6775456  91.7961559  69.4919845
  82.9967470  93.1616032  70.0625483  75.1103155  77.7041390  70.6890350
  75.2319067  76.7758036  70.8881237  74.8205198  77.7180076  69.7768665
  77.9794346  75.3896300  73.8257070  78.0016043  75.4535633  72.8709049
  78.3962405  74.5500809  74.0197576  88.3577970  85.1251560  71.8636292
  88.8009116  84.3758885  71.4655416  87.4804480  85.1161696  71.4810024
  83.4913751  91.6781901  67.3442891  84.1864656  92.2988594  67.5630206
  83.8336901  90.8277252  67.6195269  85.3905174  89.1281607  68.8730222
  85.9156499  89.4668879  68.1479542  85.3027527  88.1928622  68.6893356
  77.0525223  93.0415680  81.0020098  77.3612350  92.7964827  81.8742798
  77.8500705  93.2462319  80.5138968  77.0745835  95.1953590  73.2325475
  76.6350826  94.7029969  73.9258332  77.8253952  94.6526558  72.9917550
  69.5538174  91.3865131  73.2350103  70.3796194  91.0868903  72.8548746
  69.2032226  90.6172753  73.6839892  74.5219707  90.7391599  75.3047776
  73.8999717  90.0762304  75.0050004  75.1924574  90.7652731  74.6221424
  67.7546779  89.3051457  74.1939036  66.9178688  88.8773632  74.0123038
  67.7270425  89.4983901  75.1309828  85.0799081  89.7614510  84.1781420
  84.2894624  89.7438649  83.6385919  84.8432435  90.3002804  84.9330456
  85.1996956  86.6106977  81.4914148  85.2494961  86.4456984  82.4329671
  85.0910879  85.7434236  81.1012029  74.0833214  89.2895522  68.7806237
  74.2321335  89.9730987  68.1272910  74.8899658  89.2700612  69.2955693
  82.4900718  82.5937905  82.8073455  83.3910581  82.4544369  82.5157453
  82.5648692  82.7592359  83.7471632  76.8243523  79.9704759  81.6526641
  75.9546833  80.2638325  81.3809230  77.0603004  80.5545204  82.3733905
  86.7015152  89.0303918  81.7356170  86.4099961  89.3933899  82.5719631
  86.0887284  88.3170926  81.5569502  87.9010835  86.5956798  74.2558740
  88.7357726  87.0346602  74.4196300  88.0369964  86.1195451  73.4366986
  84.9502341  84.1536533  80.2036228  85.4256462  84.3464179  79.3955079
  84.0267906  84.2095719  79.9579611  71.8385847  85.3160700  69.7867306
  71.5931889  84.4123030  69.9847516  72.0081762  85.3177850  68.8446784
  79.5282557  76.1884376  79.1692062  80.0464501  76.9245403  78.8438550
  79.1737690  76.4948370  80.0038821  71.1081495  81.0489058  67.2853467
  70.4150740  81.1233413  66.6293503  70.8633247  80.2849401  67.8074984
  79.7795151  72.6084659  74.6892958  80.0596905  71.9407848  75.3153385
  80.5645758  72.8013754  74.1767622  77.5828620  91.7843653  66.2517984
  77.0102587  92.4033840  65.7988456  78.1561413  92.3343014  66.7857906
  83.6504010  81.0302293  78.4364533  84.6021433  81.1300391  78.4576757
  83.4807460  80.2380561  78.9462618  81.6718389  78.1157876  78.6223934
  81.0768321  78.3962889  77.9270423  81.3868086  78.6051777  79.3940675
  80.8025880  92.0680803  67.3826567  81.7356553  92.0026365  67.5859442
  80.7149092  92.9037070  66.9241099  83.4313896  91.3846673  64.3430514
  83.3527528  91.0506537  65.2366272  84.2523563  91.8768441  64.3421987
  86.1292087  84.2508413  77.5506833  86.0968408  83.3124413  77.7366517
  86.7392711  84.3292449  76.8172658  77.9675418  83.1204466  63.5934037
  78.9134523  82.9910674  63.6622455  77.5889663  82.3819127  64.0703465
  86.2786576  81.0419456  77.5965116  85.7625625  80.2577913  77.4095045
  87.1626524  80.7138173  77.7611636  83.9397303  74.7860472  73.5560929
  83.7422124  74.4775560  74.4404261  84.5497008  75.5122110  73.6858859
  91.9468637  85.3124419  76.6912870  92.6772026  85.0509708  77.2520573
  91.3375583  84.5753141  76.7314938  90.0283934  83.4532282  77.2887321
  89.3017098  83.3188247  76.6803813  89.6131221  83.7609111  78.0944039
  77.8514111  87.1722212  85.0534694  78.7717120  87.3500811  85.2474740
  77.8163694  86.2278257  84.9014393  76.1518335  81.0454442  63.5288922
  75.2449791  80.7487555  63.6051636  76.4294316  80.7484260  62.6623208
  70.8476183  85.0823246  77.6957475  71.0662193  86.0140354  77.7145509
  71.2601957  84.7231221  78.4812279  77.7680401  75.5891332  69.6833163
  76.9581129  75.2438417  70.0588410  78.4564818  75.2798875  70.2720775
  79.6970949  74.6669378  71.3057460  80.2501988  75.0864832  71.9647483
  79.9341036  73.7405127  71.3480416  75.7204049  80.6556452  87.0860224
  75.6200776  81.6050809  87.0172315  75.5025591  80.3274691  86.2136294
  74.9217120  77.9041377  63.6700901  75.7836284  78.2296275  63.9296719
  75.1067464  77.1172873  63.1573967  66.9384536  85.9863717  75.9481090
  66.2448007  85.5717670  75.4351045  67.6857527  86.0284253  75.3514509
  83.0749757  76.7769904  70.8136124  82.4948426  77.4354708  70.4314177
  82.8085689  75.9547248  70.4023542  81.5253323  76.1774961  73.0157445
  82.0253101  76.2891496  72.2071764  82.1688931  75.8736014  73.6558253
  75.5835319  84.0853591  85.9025286  75.1002400  84.8853951  86.1089175
  75.6696258  84.0961536  84.9492730  68.8521278  85.9181971  73.8247105
  68.8291966  86.0169658  72.8728988  69.1621915  86.7647121  74.1464271
  71.5108656  87.9758126  77.9393719  72.4651910  87.9442068  77.8723651
  71.3121180  87.5148749  78.7543945  72.1008038  86.5459242  80.5064517
  72.9200927  87.0403320  80.5299354  72.3744846  85.6291210  80.4782085
  81.8574635  78.9369994  69.8692473  80.9700490  79.2219645  69.6512667
  82.2728624  78.7763757  69.0219750  85.2089171  78.9616515  73.5846812
  85.9849561  79.4512967  73.8571429  84.4837305  79.3874569  74.0418681
  87.6461729  79.6744134  74.6420753  88.2406220  79.4339870  73.9314061
  87.7188313  78.9551265  75.2694289  69.8658885  93.5177745  74.9563917
  69.7313353  92.7578146  74.3901915  69.4490947  94.2418645  74.4892706
  81.0017848  88.7014669  63.9640493  81.7053698  88.9064671  64.5798148
  80.2780497  89.2691431  64.2289576  81.8315658  84.4524530  70.0842763
  81.7750860  84.9093081  69.2450395  82.3844001  83.6915214  69.9065606
  85.6420464  80.2414262  70.9092882  85.3857398  79.8410897  71.7401090
  85.0173332  80.9558056  70.7843021  89.9532802  82.9810335  73.4164174
  89.3932360  83.0503524  74.1895736  89.3476305  82.8051320  72.6963670
  73.0228011  94.4147062  75.1682360  72.9060395  95.3592495  75.0661050
  72.2020457  94.1120624  75.5568159  82.9104545  89.1397198  66.0138953
  83.7450149  88.7078396  65.8316427  82.7488888  88.9679212  66.9415847
  82.5650438  85.6429311  67.3795292  82.5099241  85.4773583  66.4383736
  81.9396493  86.3505344  67.5357482  79.8796345  87.9478223  86.7048855
  80.7487504  88.1218875  86.3435490  79.4003096  88.7672640  86.5824584
  75.8746563  75.1437420  66.9580610  75.8625233  76.0879260  67.1148881
  76.7669985  74.9607566  66.6640072  74.0482525  95.0675324  78.3838288
  74.9509772  95.0998934  78.7004783  73.8219895  94.1375775  78.3984624
  75.8036127  93.8206311  75.0448367  74.8531758  93.8208172  74.9312739
  76.1068613  93.0739045  74.5284402  91.5388821  99.6566849  76.1094129
  92.1767230  99.5373596  75.4057469  91.4209663 100.6047693  76.1682082
  88.3478527  99.6094277  76.0455654  88.0097038  99.4935342  75.1576189
  89.2168295  99.2085442  76.0256660  84.2065342 101.4629753  72.0352545
  83.6430208 101.3719690  71.2668833  84.0917738 100.6429658  72.5155038
  88.8298310 100.7629129  82.0041860  88.8186951 100.3681927  81.1322363
  88.9918949 100.0295201  82.5975631  81.7529774 102.9580945  74.8736766
  82.5451066 102.6171770  74.4583065  81.9926425 103.0675920  75.7938919
  89.7864901 105.1300721  67.3467010  89.1352881 105.7154802  66.9601024
  90.5809264 105.6606916  67.4062047  83.7120528 102.2189858  67.7454144
  84.4851404 101.6718845  67.6067020  84.0645927 103.0834108  67.9568606
  85.5505571 103.5466241  80.9521044  85.2595437 104.4511871  80.8367710
  86.1862555 103.5882768  81.6665113  86.4761778 100.9243089  77.5422403
  87.0725350 100.6999112  76.8279366  86.5336749 100.1827835  78.1447851
  86.0486806  98.3782524  65.3772594  86.3012327  97.8564046  64.6156057
  85.1111365  98.2148670  65.4799278  91.0930089  97.3818303  73.1847337
  91.8793178  96.9637726  72.8337754  91.3568793  98.2864395  73.3528986
  91.2640166 102.8191153  67.8835994  90.6285999 102.8925780  68.5956899
  90.9337573 103.4084752  67.2055074  96.4938516  97.3193536  74.0880316
  97.2263688  96.7492753  74.3218145  95.7377872  96.9315136  74.5286822
  85.7683095 100.2810630  67.5796969  85.6519353  99.6055534  68.2478054
  85.8785355  99.7943004  66.7629122  88.1114636  99.7420777  71.2843658
  87.7472843  99.2151398  71.9956580  88.9681752  99.3519247  71.1110144
  94.0163936  91.0315110  78.5474925  93.6847261  91.9010521  78.3236140
  93.4209550  90.7151394  79.2268955  87.7520123  94.7710677  66.2805007
  87.9194525  95.6390914  66.6475478  87.5617292  94.9337959  65.3566296
  90.5095456 103.2327656  77.9470837  90.2096179 104.1352695  77.8386645
  90.1646516 102.9659839  78.7991990  83.9607937  99.6841453  73.9807542
  83.0358434  99.5517667  74.1885234  84.2092351 100.4635672  74.4777484
  93.9092600  95.7510196  75.6268275  93.0009477  95.6825605  75.3327036
  93.8580196  96.2282141  76.4550100  87.7309344  97.2268335  67.2651674
  87.6108969  97.6725385  68.1037154  87.0361932  97.5753652  66.7065212
  81.3216749  99.3274726  74.8151331  81.4509130  99.5809205  75.7290743
  80.6414200  99.9202434  74.4955986  85.4916236 109.9971976  70.9141805
  85.4140266 110.9479802  70.9930286  84.8877879 109.6517849  71.5716731
  87.9833466  97.1699842  83.5703172  87.2066800  97.7293762  83.5606037
  88.6224029  97.6556625  84.0918042  95.7754246  93.9526635  77.4046149
  95.1328626  94.2459168  76.7585943  95.2709175  93.8379555  78.2099345
  93.4294410  97.6989808  68.0932008  94.3412266  97.9317195  67.9179705
  92.9204057  98.2826852  67.5307086  86.2379838  99.9785295  83.1321139
  86.9794522 100.5170339  82.8555963  85.5316823 100.6051584  83.2892691
  91.7135178 102.1214436  81.7293300  92.1218534 101.6796846  80.9847933
  90.9912439 101.5467063  81.9827493  88.0666248  97.0587042  79.1026857
  88.9127443  97.4826456  79.2461506  88.0064885  96.4020667  79.7965420
  92.0363992 102.6815626  75.4845589  91.4072855 102.8461340  74.7821657
  91.6489654 103.0957236  76.2556553  95.9153224 103.6170064  72.8389953
  95.2304262 103.9968966  72.2886986  95.9997073 104.2265391  73.5721901
  91.2165693  94.7191411  80.7608031  90.9726625  95.4733471  80.2242307
  91.4925623  95.0976758  81.5955278  93.1704156 101.2630023  79.4385297
  93.3821051 101.9061783  78.7619678  93.1233904 100.4292340  78.9707227
  90.7730385  93.8747844  76.3421869  89.9114864  94.1729097  76.6338606
  90.7992819  94.0918243  75.4102901  87.5891954 102.4190034  72.7495674
  88.0530300 102.6977737  71.9600297  87.3248752 101.5173479  72.5668765
  84.4816035 101.9661516  75.6875438  85.0517392 102.3948784  75.0492922
  85.0724147 101.6844101  76.3859623  86.5260840  98.5413187  69.5585240
  87.2284883  98.9934230  70.0259166  86.1941469  97.8997006  70.1865133
  84.9741202  97.1324943  83.9336449  84.3439862  97.8141224  84.1671846
  84.8677290  97.0208025  82.9889587  80.2686174  96.7996739  74.8602373
  79.4785228  97.0554268  74.3842484  80.7597421  97.6145077  74.9654414
  94.2849984 104.1401979  77.6107654  95.1067427 103.7382166  77.3290336
  94.2812387 104.0370213  78.5623770  82.2200919  97.1641319  71.8185850
  81.4232083  97.2760013  72.3369345  81.9926512  97.5027971  70.9526740
  88.0506587 103.6886022  79.7668364  88.1151020 104.1506429  80.6026536
  87.3417511 103.0583387  79.8950674  78.5523877  97.0527230  77.2917364
  78.8031915  97.9374240  77.5574940  79.0883425  96.8731831  76.5192456
 102.3755977 100.4840727  73.9592625 101.6219685  99.9148125  73.8036630
 102.5103518 100.4503392  74.9063260  87.7654605 105.3554129  69.6347345
  87.6300280 106.2005665  70.0632193  88.3064417 105.5573407  68.8713279
  84.2521944  91.4345709  86.2961700  83.8588890  90.8811908  86.9709344
  85.0688085  91.7456288  86.6868217  81.2184002 102.8729567  70.2075270
  81.7308523 103.6672818  70.3580835  81.8706715 102.1755858  70.1408871
  83.0278887 105.9895324  72.2898023  83.2045515 106.9113288  72.1019007
  83.8235720 105.6753743  72.7192403  87.1689905  92.8503588  83.8881957
  87.9099619  93.4510741  83.8086419  87.4007828  92.1081226  83.3299999
  82.3131243  98.0359956  82.1660186  82.1984759  97.1345213  82.4667285
  81.4575761  98.2823652  81.8145003  89.3923081 105.9777696  83.7647687
  88.9486935 105.1914074  83.4468591  90.0540295 106.1656846  83.0991578
  84.1510202 107.5073497  78.2908365  84.7017627 107.3790561  77.5185359
  83.3121678 107.8068387  77.9403258  91.4904319 106.2580496  81.7929088
  91.4722795 107.0789377  81.3009357  92.4124239 106.1334571  82.0179229
  87.9477373 103.7724625  82.6352596  88.4805710 103.0112914  82.4051904
  87.4191454 103.4798277  83.3776751  91.1147068  88.8784691  78.1646238
  90.7711338  89.7686333  78.0885349  91.4826031  88.6886349  77.3015823
  79.1832919 101.2018222  70.9834840  80.0208141 101.6115230  70.7668548
  79.3611187 100.2617664  70.9535034  91.0797351  98.8693302  66.6718673
  90.5643974  99.6397907  66.9107061  90.8074659  98.1958439  67.2951735
  88.6644462  93.7143003  71.7303912  87.8086058  93.3249854  71.5509550
  89.0771414  93.7934964  70.8703697  90.1943609  91.2489346  76.1295471
  89.6908404  91.2119482  75.3163277  90.4874216  92.1582089  76.1892128
  86.4386495  91.3328076  75.1361653  87.3039491  91.1370885  74.7767543
  86.5064003  91.1038428  76.0631010  96.0531625 101.6225657  68.6071847
  95.2761068 101.2836817  68.1627009  96.7323106 101.6278280  67.9326812
  90.8683654  96.7420394  68.4978454  90.5633790  97.0566544  69.3488598
  91.8214096  96.8201814  68.5405787  89.3130086 102.9010618  70.1471408
  88.7851448 102.1663377  69.8344646  88.8117589 103.6785294  69.9011377
  94.2922932 101.0959638  75.2638455  93.6346607 101.7858900  75.3518583
  95.0963331 101.4856070  75.6072441  84.0448814  93.5630284  72.5078020
  84.6192566  93.3405466  71.7751213  84.6319796  93.6318979  73.2606621
  93.1028391  99.4504011  73.3142397  93.6160273 100.0834003  73.8164106
  93.7529615  98.8505206  72.9485757  84.3718401  95.5934745  66.5273905
  83.5355713  95.9309432  66.8483180  84.2323170  95.4583725  65.5901042
  86.3471481  90.4371533  71.2353089  85.6935894  90.1220550  70.6109704
  86.3051956  89.8147273  71.9612912  87.4582686 100.7190828  63.1506381
  86.5509748 100.4880082  63.3497530  87.9553718  99.9228447  63.3380363
  90.3650765 109.4288335  66.0703068  89.6912464 109.7320032  66.6788025
  90.7516587 110.2317416  65.7208525  89.5809222  96.9253467  75.5600737
  88.6631783  97.1468414  75.4022425  89.9969365  96.9999777  74.7012444
  90.3644269  98.3244882  70.6903417  91.1116088  98.8366279  70.3810539
  90.6335859  98.0028935  71.5507811  88.6370920 100.8203423  67.6730372
  87.7282139 100.5362456  67.7702841  88.6666003 101.2402501  66.8133678
  93.8690187 104.4310012  71.4421539  93.4152514 103.5900922  71.4986730
  93.2384154 105.0671411  71.7796319  92.8123107  95.3601998  72.6722207
  92.0745863  94.8479385  73.0032449  93.0649880  94.9202380  71.8605483
  92.3123126 106.2686509  72.3771357  92.6046101 106.8291566  71.6583723
  92.8221747 106.5615070  73.1324516  92.9134734  88.1378250  73.2663976
  93.2193611  87.2775614  72.9789891  93.6387339  88.7295871  73.0662970
  79.2059090  98.5408937  71.6545574  79.0083490  97.9478298  70.9296640
  78.6505754  98.2361147  72.3721513  87.1855814  98.4332044  73.7740167
  87.2404423  97.4805880  73.6982644  86.3747016  98.5891483  74.2581465
  88.3347007 102.3612167  65.0118450  87.8966437 101.6448026  64.5524088
  89.0757448 102.5888281  64.4503542  85.1248174  97.0509103  71.5330546
  84.3116039  97.3503274  71.9395738  85.6207168  96.6564792  72.2505028
  87.2756752 107.0466860  73.4664810  87.2332930 107.2727707  72.5373343
  88.1919450 106.8130235  73.6150612  90.7222385  97.5150928  80.3645440
  91.0771773  97.7422401  81.2239905  91.3694517  97.8469305  79.7422695
  96.4520122 100.6369364  71.0694769  96.3138021 100.8270960  70.1415958
  96.0956341 101.3988746  71.5262820  84.6162248  94.6227459  77.1491781
  85.2561628  94.4816218  76.4514744  83.7839779  94.3361972  76.7730383
  96.4789502 102.7045891  76.0806040  96.9126009 102.6121180  76.9289094
  97.1921083 102.6803391  75.4426056  85.3922552 103.9229889  73.2626773
  86.1863151 103.4280209  73.0609348  84.6814245 103.3947752  72.8994479
  90.2117397 106.3047985  77.6139141  90.2654419 106.8738921  78.3816857
  89.3432178 106.4749870  77.2493178  81.7005316  98.0672971  69.3386526
  80.7702904  98.0057426  69.5556488  81.7962788  97.5448924  68.5423167
  81.6190865  94.5927784  71.9264768  81.8797682  95.5073117  71.8173928
  82.4408037  94.1252226  72.0761380  83.0915790  96.0065541  79.0963592
  83.7638844  95.7982903  78.4476241  82.2645577  95.8087627  78.6568824
  97.3405051 102.7469591  78.6138926  97.5340942 103.6515402  78.8598201
  97.2405670 102.2877010  79.4477511  88.9941362  92.6327482  81.1129253
  88.3469277  93.3317432  81.0193729  89.7642378  93.0663626  81.4805501
  92.4020160 102.8976334  84.1879806  92.2505667 102.6686886  83.2709890
  92.3924840 103.8546935  84.2011151  89.1705497 100.4708247  79.1726073
  90.0997557 100.6219406  78.9995040  88.7496527 100.5592268  78.3174719
  87.9693828 104.4958911  76.9424610  87.8304914 104.1277696  77.8150548
  87.1808425 105.0106551  76.7708568  88.5641980 109.5968008  68.2850147
  88.7393736 109.1256051  69.0995770  87.8774768 110.2233774  68.5131408
  89.5199043 103.8740514  74.3313448  89.1848876 103.8341284  75.2271098
  89.0202989 103.2085230  73.8583858  83.4943287  99.2808144  79.8566029
  83.3563085  98.5488383  80.4577568  84.4048211  99.1917044  79.5750217
  92.4558235 101.2196548  64.6050508  91.8387406 100.4943376  64.5083560
  91.9874724 101.9805909  64.2617582  86.1225588  98.9928103  79.3449709
  86.8325207  98.3521295  79.3036327  86.0794896  99.2440998  80.2675890
  94.1112367 105.9295457  82.2656288  94.0524913 105.2454677  81.5986871
  94.5131885 106.6714447  81.8136914  84.8354522  95.9793321  81.1645348
  84.2991879  95.5284060  81.8166945  84.2471230  96.1139230  80.4215813
  83.1303066 112.7457370  75.0590007  83.3699664 113.3775895  75.7369026
  82.2872262 112.3945410  75.3455366  84.2456781  95.4381973  63.7271812
  83.3686247  95.3170773  63.3634059  84.7214534  94.6468051  63.4750701
  94.1129774 103.8935041  80.4970268  93.2256553 103.5560962  80.6196667
  94.6828325 103.1618072  80.7339033  75.7658921 100.2259132  73.8213319
  76.4529961  99.9120862  73.2334334  75.6107050 101.1300497  73.5480571
  80.5693643  95.1149329  78.2498343  80.4851832  94.5074998  77.5148753
  79.7476350  95.6058347  78.2507839  87.6430927 108.5536493  77.4631511
  87.5701099 109.3591464  77.9750816  87.2008321 108.7528459  76.6379532
  87.4320707 107.7908263  70.9734333  86.6488229 108.3329943  71.0672557
  88.1313452 108.3082243  71.3728574  90.7417357  93.6002892  73.6168538
  91.2386057  92.8472855  73.2969608  89.9704339  93.6367209  73.0511747
  98.5947115  99.3043258  75.2586829  98.5836991 100.1867973  74.8880763
  97.7264494  98.9514809  75.0641366  90.1029611 108.4523327  79.6189670
  90.8157583 109.0870792  79.5465571  89.6119640 108.5487193  78.8029671
  91.8247138 102.3574580  71.1906961  90.8903417 102.4776042  71.0211666
  92.0023806 101.4547046  70.9266971  87.3252326  95.7420275  73.3440223
  86.9550113  95.1891316  74.0321128  87.8211418  95.1378409  72.7915223
  95.2119689  98.1991899  71.7256995  95.6780141  99.0319890  71.6517298
  95.6627190  97.7336880  72.4302254  85.1541524 106.2017770  80.4395240
  85.8550984 106.8354253  80.5924635  84.6836639 106.5432502  79.6790880
  93.2795920 104.5435720  68.7243148  93.5555764 104.4292315  69.6337022
  92.4100419 104.1453205  68.6855321  93.1836352  90.5672486  75.7647897
  92.2699432  90.7976713  75.9330104  93.6129453  90.6510930  76.6161929
  92.9542810  98.7562378  78.2647791  92.3014261  99.0038285  77.6100244
  93.3323190  97.9426516  77.9310268  89.9149984 108.7922071  72.3675961
  90.0972379 107.9743727  72.8303713  90.7382970 109.0089763  71.9300851
  90.2492150 107.7190256  69.6291010  90.7779916 107.2082711  69.0161172
  90.5120369 107.4032786  70.4936543  89.0030383  99.4982189  84.7513828
  88.3271020  99.3976318  85.4216203  89.8258017  99.3421403  85.2149825
  80.7509243 105.7354125  77.3726343  81.3362679 104.9897813  77.5054247
  80.5534081 106.0458082  78.2563007  83.6047898 108.7705373  72.3888786
  82.9358273 109.2551500  71.9052826  83.4660767 109.0174593  73.3032164
  75.3426897  98.3059726  76.0930786  75.3810997  97.7723316  76.8867904
  74.8367190  97.7794931  75.4741763  87.7453166 110.8049116  78.9871444
  88.2971474 110.9680738  79.7520529  88.0859360 111.3953554  78.3151469
  82.7217660  93.1524266  79.5893329  82.7858986  94.0139097  79.1770726
  82.6584780  92.5398268  78.8565687  82.1969932  95.2247399  83.2366363
  82.8241971  94.8424476  83.8503887  81.3397851  95.0061601  83.6022055
  92.5964041 105.6310374  84.8420098  93.1403945 106.2440332  84.3475053
  92.0150886 106.1889952  85.3587111  78.9735475  97.0323828  69.1684718
  79.2688916  96.1234506  69.1151771  78.0723511  97.0111567  68.8465720
  90.8821554 108.7531092  75.9735126  90.7572693 107.9520832  75.4646072
  91.5400645 109.2477285  75.4849096  82.5029722  95.1079824  75.1512266
  81.7816308  95.7215792  75.0119740  83.2922978  95.6437589  75.0728912
  92.9456462 106.5540112  77.6014676  91.9986798 106.4345463  77.5293003
  93.2939235 105.6662610  77.6840938  85.3056035  92.4434251  81.4252918
  85.8290437  92.6896547  82.1879227  85.0868369  93.2754286  81.0056055
  80.7023316  94.7137925  69.2924043  80.3736023  93.8335304  69.1099149
  81.0562687  94.6585594  70.1800432  89.9502895 106.3492828  73.8019028
  89.8027858 105.4209536  73.9826598  90.7756389 106.3712919  73.3176104
  83.8165140  95.0010895  69.6599521  84.1561212  95.5296816  68.9378129
  84.2637260  95.3391301  70.4358087  93.5537017 107.1721387  74.8883901
  94.4783565 106.9664248  74.7508352  93.3852321 106.9237788  75.7973243
  86.5108580  93.3847946  79.1102589  86.1705401  92.5855759  79.5123268
  85.8047587  93.6849657  78.5379422  87.1625052  90.4697258  77.5629912
  87.9851122  89.9957737  77.4408802  87.4063116  91.2487742  78.0628598
  85.8033287  93.4985517  67.8592813  86.5241649  93.8766770  67.3556530
  85.1798591  94.2174394  67.9627791  89.9464410  94.2030666  68.7951146
  90.1628024  95.0855304  68.4939974  89.4658477  93.8116879  68.0656788
  84.6863631  97.1616379  75.3721890  84.5408212  97.4756682  76.2646172
  84.2088835  97.7801279  74.8192789  86.5460014  94.1518927  75.4202780
  86.5321583  93.2560020  75.0835078  87.2632442  94.1589591  76.0541066
  88.3986145  94.5856267  77.4655907  88.1403922  95.5073338  77.4640238
  87.8671185  94.1886702  78.1556371  93.3432333 107.6907054  70.2445993
  93.5169211 107.1253477  69.4919845  93.8361225 108.4907949  70.0625483
  79.1609293  99.7021723  78.3109551  78.6162761 100.4781531  78.4429826
  80.0388643 100.0492528  78.1528673  85.9496910  93.0333307  70.6890350
  86.0712821  92.1049953  70.8881237  85.6598952  93.0471993  69.7768665
  88.8188100  90.7188218  73.8257070  88.8409797  90.7827551  72.8709049
  89.2356159  89.8792726  74.0197576  99.1971725 100.4543477  71.8636292
  99.6402871  99.7050802  71.4655416  98.3198235 100.4453614  71.4810024
  94.3307506 107.0073819  67.3442891  95.0258410 107.6280511  67.5630206
  94.6730656 106.1569170  67.6195269  79.9475315  98.8291620  81.2039708
  79.2057051  98.9774255  81.7904339  79.6268059  99.0899885  80.3406458
  96.2298929 104.4573524  68.8730222  96.7550253 104.7960797  68.1479542
  96.1421282 103.5220540  68.6893356  87.8918978 108.3707598  81.0020098
  88.2006104 108.1256745  81.8742798  88.6894460 108.5754236  80.5138968
  87.9139590 110.5245508  73.2325475  87.4744580 110.0321886  73.9258332
  88.6647707 109.9818475  72.9917550  80.3931929 106.7157048  73.2350103
  81.2189949 106.4160820  72.8548746  80.0425981 105.9464671  73.6839892
  85.3613462 106.0683517  75.3047776  84.7393471 105.4054222  75.0050004
  86.0318329 106.0944649  74.6221424  78.5940534 104.6343375  74.1939036
  77.7572442 104.2065549  74.0123038  78.5664179 104.8275818  75.1309828
  85.4337989  94.5465305  84.8980283  85.4826145  95.4227427  84.5158052
  85.9760504  94.0042698  84.3251926  95.9192835 105.0906428  84.1781420
  95.1288379 105.0730567  83.6385919  95.6826190 105.6294722  84.9330456
  96.0390710 101.9398894  81.4914148  96.0888715 101.7748902  82.4329671
  95.9304633 101.0726153  81.1012029  84.9226969 104.6187440  68.7806237
  85.0715089 105.3022904  68.1272910  85.7293412 104.5992530  69.2955693
  93.3294472  97.9229822  82.8073455  94.2304335  97.7836287  82.5157453
  93.4042447  98.0884277  83.7471632  87.6637278  95.2996677  81.6526641
  86.7940587  95.5930243  81.3809230  87.8996758  95.8837122  82.3733905
  97.5408907 104.3595836  81.7356170  97.2493715 104.7225816  82.5719631
  96.9281038 103.6462844  81.5569502  98.7404589 101.9248716  74.2558740
  99.5751481 102.3638520  74.4196300  98.8763718 101.4487369  73.4366986
  95.7896095  99.4828450  80.2036228  96.2650217  99.6756097  79.3955079
  94.8661661  99.5387636  79.9579611  82.6779602 100.6452618  69.7867306
  82.4325644  99.7414948  69.9847516  82.8475516 100.6469768  68.8446784
  90.3676312  91.5176294  79.1692062  90.8858255  92.2537321  78.8438550
  90.0131444  91.8240287  80.0038821  81.9475249  96.3780975  67.2853467
  81.2544494  96.4525330  66.6293503  81.7027001  95.6141319  67.8074984
  90.6188906  87.9376577  74.6892958  90.8990660  87.2699766  75.3153385
  91.4039513  88.1305672  74.1767622  88.4222374 107.1135570  66.2517984
  87.8496341 107.7325758  65.7988456  88.9955168 107.6634932  66.7857906
  94.4897764  96.3594211  78.4364533  95.4415187  96.4592308  78.4576757
  94.3201215  95.5672479  78.9462618  92.5112144  93.4449794  78.6223934
  91.9162076  93.7254806  77.9270423  92.2261840  93.9343695  79.3940675
  91.6419634 107.3972721  67.3826567  92.5750307 107.3318282  67.5859442
  91.5542847 108.2328987  66.9241099  94.2707651 106.7138591  64.3430514
  94.1921282 106.3798455  65.2366272  95.0917318 107.2060359  64.3421987
  96.9685842  99.5800330  77.5506833  96.9362162  98.6416331  77.7366517
  97.5786466  99.6584367  76.8172658  88.8069173  98.4496383  63.5934037
  89.7528278  98.3202591  63.6622455  88.4283418  97.7111045  64.0703465
  97.1180330  96.3711374  77.5965116  96.6019379  95.5869830  77.4095045
  98.0020279  96.0430090  77.7611636  94.7791057  90.1152389  73.5560929
  94.5815878  89.8067477  74.4404261  95.3890763  90.8414028  73.6858859
 102.7862392 100.6416337  76.6912870 103.5165780 100.3801625  77.2520573
 102.1769337  99.9045059  76.7314938 100.8677689  98.7824200  77.2887321
 100.1410852  98.6480165  76.6803813 100.4524976  99.0901028  78.0944039
  88.6907865 102.5014129  85.0534694  89.6110875 102.6792728  85.2474740
  88.6557448 101.5570175  84.9014393  86.9912090  96.3746360  63.5288922
  86.0843545  96.0779472  63.6051636  87.2688071  96.0776178  62.6623208
  77.9090030  97.6952723  73.9787969  77.5892815  96.8418031  73.6862343
  77.3623459  97.9101301  74.7345936  81.6869938 100.4115164  77.6957475
  81.9055948 101.3432272  77.7145509  82.0995712 100.0523138  78.4812279
  88.6074156  90.9183249  69.6833163  87.7974884  90.5730334  70.0588410
  89.2958573  90.6090793  70.2720775  90.5364704  89.9961296  71.3057460
  91.0895743  90.4156750  71.9647483  90.7734790  89.0697044  71.3480416
  86.5597803  95.9848370  87.0860224  86.4594530  96.9342727  87.0172315
  86.3419345  95.6566609  86.2136294  85.7610875  93.2333295  63.6700901
  86.6230039  93.5588193  63.9296719  85.9461219  92.4464791  63.1573967
  77.7778290 101.3155634  75.9481090  77.0841762 100.9009587  75.4351045
  78.5251281 101.3576171  75.3514509  93.9143511  92.1061821  70.8136124
  93.3342180  92.7646625  70.4314177  93.6479444  91.2839166  70.4023542
  92.3647077  91.5066879  73.0157445  92.8646856  91.6183413  72.2071764
  93.0082685  91.2027932  73.6558253  86.4229073  99.4145509  85.9025286
  85.9396155 100.2145869  86.1089175  86.5090012  99.4253453  84.9492730
  79.6915033 101.2473888  73.8247105  79.6685721 101.3461576  72.8728988
  80.0015669 102.0939039  74.1464271  82.3502411 103.3050043  77.9393719
  83.3045664 103.2733986  77.8723651  82.1514934 102.8440667  78.7543945
  82.9401793 101.8751159  80.5064517  83.7594682 102.3695238  80.5299354
  83.2138601 100.9583127  80.4782085  92.6968389  94.2661912  69.8692473
  91.8094244  94.5511562  69.6512667  93.1122378  94.1055675  69.0219750
  96.0482925  94.2908433  73.5846812  96.8243315  94.7804885  73.8571429
  95.3231059  94.7166487  74.0418681  98.4855484  95.0036052  74.6420753
  99.0799975  94.7631788  73.9314061  98.5582068  94.2843182  75.2694289
  80.7052640 108.8469663  74.9563917  80.5707107 108.0870064  74.3901915
  80.2884702 109.5710563  74.4892706  91.8411603 104.0306586  63.9640493
  92.5447453 104.2356589  64.5798148  91.1174251 104.5983348  64.2289576
  92.6709413  99.7816448  70.0842763  92.6144614 100.2384999  69.2450395
  93.2237755  99.0207132  69.9065606  96.4814219  95.5706179  70.9092882
  96.2251153  95.1702815  71.7401090  95.8567087  96.2849973  70.7843021
 100.7926557  98.3102253  73.4164174 100.2326115  98.3795442  74.1895736
 100.1870060  98.1343237  72.6963670  83.8621765 109.7438980  75.1682360
  83.7454150 110.6884412  75.0661050  83.0414212 109.4412541  75.5568159
  93.7498300 104.4689116  66.0138953  94.5843904 104.0370314  65.8316427
  93.5882643 104.2971129  66.9415847  93.4044192 100.9721229  67.3795292
  93.3492996 100.8065500  66.4383736  92.7790247 101.6797262  67.5357482
  78.1936707  96.2089293  81.2056714  78.8395571  95.6988247  81.6943939
  77.9853858  96.9457975  81.7800139  90.7190099 103.2770141  86.7048855
  91.5881259 103.4510793  86.3435490  90.2396851 104.0964558  86.5824584
  86.7140318  90.4729338  66.9580610  86.7018987  91.4171178  67.1148881
  87.6063739  90.2899483  66.6640072  84.8876280 110.3967242  78.3838288
  85.7903526 110.4290852  78.7004783  84.6613650 109.4667693  78.3984624
  86.6429882 109.1498228  75.0448367  85.6925513 109.1500090  74.9312739
  86.9462368 108.4030963  74.5284402  90.5292437  87.0672114  71.2126547
  89.7624833  86.5130601  71.3583230  90.9403142  87.1393983  72.0740699
  82.5334198  93.3556910  85.3031728  83.3965660  92.9993715  85.5135053
  81.9599609  93.0170805  85.9907133 102.3782575 114.9858767  76.1094129
 103.0160985 114.8665514  75.4057469 102.2603418 115.9339611  76.1682082
  99.1872281 114.9386195  76.0455654  98.8490793 114.8227259  75.1576189
 100.0562049 114.5377360  76.0256660  95.0459097 116.7921671  72.0352545
  94.4823962 116.7011608  71.2668833  94.9311492 115.9721576  72.5155038
  99.6692064 116.0921046  82.0041860  99.6580705 115.6973845  81.1322363
  99.8312704 115.3587119  82.5975631  92.5923529 118.2872863  74.8736766
  93.3844821 117.9463687  74.4583065  92.8320179 118.3967838  75.7938919
  94.5514283 117.5481776  67.7454144  95.3245159 117.0010763  67.6067020
  94.9039682 118.4126025  67.9568606  96.3899325 118.8758158  80.9521044
  96.0989191 119.7803789  80.8367710  97.0256310 118.9174686  81.6665113
  97.3155532 116.2535007  77.5422403  97.9119105 116.0291029  76.8279366
  97.3730504 115.5119752  78.1447851  96.8880561 113.7074442  65.3772594
  97.1406081 113.1855963  64.6156057  95.9505120 113.5440588  65.4799278
 101.9323844 112.7110220  73.1847337 102.7186933 112.2929644  72.8337754
 102.1962548 113.6156313  73.3528986 102.1033921 118.1483071  67.8835994
 101.4679754 118.2217697  68.5956899 101.7731327 118.7376670  67.2055074
 107.3332271 112.6485454  74.0880316 108.0657443 112.0784670  74.3218145
 106.5771626 112.2607054  74.5286822  96.6076849 115.6102548  67.5796969
  96.4913108 114.9347451  68.2478054  96.7179109 115.1234922  66.7629122
  98.9508390 115.0712695  71.2843658  98.5866598 114.5443316  71.9956580
  99.8075506 114.6811164  71.1110144 104.8557691 106.3607028  78.5474925
 104.5241016 107.2302439  78.3236140 104.2603304 106.0443312  79.2268955
  98.5913877 110.1002595  66.2805007  98.7588280 110.9682831  66.6475478
  98.4011046 110.2629877  65.3566296 101.3489211 118.5619574  77.9470837
 101.0489934 119.4644613  77.8386645 101.0040270 118.2951757  78.7991990
  94.8001692 115.0133371  73.9807542  93.8752188 114.8809585  74.1885234
  95.0486105 115.7927590  74.4777484 104.7486354 111.0802114  75.6268275
 103.8403232 111.0117522  75.3327036 104.6973950 111.5574059  76.4550100
  98.5703098 112.5560252  67.2651674  98.4502723 113.0017303  68.1037154
  97.8755687 112.9045570  66.7065212  92.1610503 114.6566644  74.8151331
  92.2902884 114.9101123  75.7290743  91.4807954 115.2494352  74.4955986
  98.8227220 112.4991760  83.5703172  98.0460554 113.0585680  83.5606037
  99.4617783 112.9848543  84.0918042 106.6148001 109.2818552  77.4046149
 105.9722381 109.5751086  76.7585943 106.1102929 109.1671473  78.2099345
 104.2688164 113.0281726  68.0932008 105.1806020 113.2609112  67.9179705
 103.7597811 113.6118770  67.5307086  97.0773592 115.3077213  83.1321139
  97.8188277 115.8462257  82.8555963  96.3710578 115.9343502  83.2892691
 102.5528932 117.4506353  81.7293300 102.9612288 117.0088764  80.9847933
 101.8306194 116.8758981  81.9827493  98.9060002 112.3878960  79.1026857
  99.7521197 112.8118374  79.2461506  98.8458640 111.7312584  79.7965420
 102.8757747 118.0107544  75.4845589 102.2466609 118.1753258  74.7821657
 102.4883409 118.4249154  76.2556553 102.0559447 110.0483329  80.7608031
 101.8120379 110.8025389  80.2242307 102.3319378 110.4268676  81.5955278
 104.0097910 116.5921941  79.4385297 104.2214805 117.2353701  78.7619678
 103.9627658 115.7584257  78.9707227 101.6124139 109.2039762  76.3421869
 100.7508618 109.5021015  76.6338606 101.6386574 109.4210160  75.4102901
  98.4285709 117.7481952  72.7495674  98.8924054 118.0269655  71.9600297
  98.1642507 116.8465397  72.5668765  95.3209790 117.2953434  75.6875438
  95.8911147 117.7240702  75.0492922  95.9117901 117.0136018  76.3859623
  97.3654595 113.8705104  69.5585240  98.0678638 114.3226148  70.0259166
  97.0335223 113.2288923  70.1865133  95.8134956 112.4616861  83.9336449
  95.1833617 113.1433142  84.1671846  95.7071044 112.3499943  82.9889587
  91.1079929 112.1288657  74.8602373  90.3178983 112.3846186  74.3842484
  91.5991176 112.9436995  74.9654414  93.0594674 112.4933236  71.8185850
  92.2625837 112.6051931  72.3369345  92.8320266 112.8319889  70.9526740
  98.8900342 119.0177940  79.7668364  98.9544774 119.4798347  80.6026536
  98.1811265 118.3875305  79.8950674  89.3917632 112.3819148  77.2917364
  89.6425670 113.2666157  77.5574940  89.9277180 112.2023749  76.5192456
  98.6048359 120.6846047  69.6347345  98.4694034 121.5297583  70.0632193
  99.1458172 120.8865325  68.8713279  95.0915699 106.7637627  86.2961700
  94.6982644 106.2103825  86.9709344  95.9081839 107.0748205  86.6868217
  92.0577757 118.2021485  70.2075270  92.5702277 118.9964735  70.3580835
  92.7100469 117.5047776  70.1408871  93.8672641 121.3187241  72.2898023
  94.0439270 122.2405206  72.1019007  94.6629475 121.0045661  72.7192403
  98.0083660 108.1795506  83.8881957  98.7493373 108.7802659  83.8086419
  98.2401583 107.4373144  83.3299999  93.1524998 113.3651873  82.1660186
  93.0378513 112.4637131  82.4667285  92.2969516 113.6115570  81.8145003
  94.9903957 122.8365415  78.2908365  95.5411382 122.7082479  77.5185359
  94.1515433 123.1360304  77.9403258  98.7871128 119.1016543  82.6352596
  99.3199465 118.3404831  82.4051904  98.2585209 118.8090195  83.3776751
 101.9540823 104.2076609  78.1646238 101.6105092 105.0978251  78.0885349
 102.3219785 104.0178267  77.3015823  90.0226673 116.5310139  70.9834840
  90.8601895 116.9407148  70.7668548  90.2004941 115.5909582  70.9535034
 101.9191106 114.1985220  66.6718673 101.4037729 114.9689825  66.9107061
 101.6468414 113.5250356  67.2951735  99.5038217 109.0434921  71.7303912
  98.6479813 108.6541771  71.5509550  99.9165168 109.1226882  70.8703697
 101.0337363 106.5781264  76.1295471 100.5302159 106.5411399  75.3163277
 101.3267970 107.4874007  76.1892128  97.2780249 106.6619994  75.1361653
  98.1433246 106.4662803  74.7767543  97.3457758 106.4330346  76.0631010
 101.7077409 112.0712312  68.4978454 101.4027544 112.3858461  69.3488598
 102.6607851 112.1493732  68.5405787 100.1523841 118.2302535  70.1471408
  99.6245202 117.4955295  69.8344646  99.6511343 119.0077212  69.9011377
  94.8842568 108.8922202  72.5078020  95.4586320 108.6697383  71.7751213
  95.4713551 108.9610896  73.2606621 103.9422145 114.7795929  73.3142397
 104.4554027 115.4125920  73.8164106 104.5923369 114.1797124  72.9485757
  95.2112155 110.9226663  66.5273905  94.3749468 111.2601349  66.8483180
  95.0716925 110.7875643  65.5901042  97.1865236 105.7663451  71.2353089
  96.5329648 105.4512468  70.6109704  97.1445710 105.1439191  71.9612912
  98.2976441 116.0482746  63.1506381  97.3903502 115.8171999  63.3497530
  98.7947473 115.2520365  63.3380363 100.4202976 112.2545384  75.5600737
  99.5025538 112.4760331  75.4022425 100.8363120 112.3291695  74.7012444
 101.2038024 113.6536800  70.6903417 101.9509843 114.1658197  70.3810539
 101.4729614 113.3320853  71.5507811  99.4764674 116.1495341  67.6730372
  98.5675893 115.8654373  67.7702841  99.5059758 116.5694419  66.8133678
 103.6516861 110.6893916  72.6722207 102.9139618 110.1771302  73.0032449
 103.9043635 110.2494298  71.8605483 103.7528488 103.4670168  73.2663976
 104.0587365 102.6067532  72.9789891 104.4781093 104.0587788  73.0662970
  90.0452845 113.8700855  71.6545574  89.8477244 113.2770215  70.9296640
  89.4899509 113.5653065  72.3721513  98.0249568 113.7623961  73.7740167
  98.0798178 112.8097798  73.6982644  97.2140770 113.9183400  74.2581465
  99.1740762 117.6904084  65.0118450  98.7360192 116.9739943  64.5524088
  99.9151203 117.9180199  64.4503542  95.9641928 112.3801021  71.5330546
  95.1509794 112.6795192  71.9395738  96.4600922 111.9856710  72.2505028
 101.5616140 112.8442845  80.3645440 101.9165528 113.0714319  81.2239905
 102.2088271 113.1761222  79.7422695  95.4556003 109.9519376  77.1491781
  96.0955382 109.8108136  76.4514744  94.6233533 109.6653890  76.7730383
  96.2316307 119.2521807  73.2626773  97.0256905 118.7572127  73.0609348
  95.5207999 118.7239670  72.8994479  92.5399070 113.3964889  69.3386526
  91.6096658 113.3349344  69.5556488  92.6356542 112.8740841  68.5423167
  92.4584619 109.9219701  71.9264768  92.7191437 110.8365035  71.8173928
  93.2801792 109.4544144  72.0761380  93.9309545 111.3357459  79.0963592
  94.6032598 111.1274821  78.4476241  93.1039331 111.1379545  78.6568824
  99.8335117 107.9619400  81.1129253  99.1863032 108.6609349  81.0193729
 100.6036132 108.3955543  81.4805501 100.0099251 115.8000164  79.1726073
 100.9391311 115.9511324  78.9995040  99.5890281 115.8884185  78.3174719
  98.8087583 119.8250829  76.9424610  98.6698668 119.4569613  77.8150548
  98.0202179 120.3398468  76.7708568 100.3592798 119.2032432  74.3313448
 100.0242631 119.1633202  75.2271098  99.8596744 118.5377148  73.8583858
  94.3337042 114.6100062  79.8566029  94.1956840 113.8780300  80.4577568
  95.2441965 114.5208962  79.5750217 103.2951990 116.5488466  64.6050508
 102.6781160 115.8235294  64.5083560 102.8268478 117.3097826  64.2617582
  96.9619343 114.3220021  79.3449709  97.6718961 113.6813213  79.3036327
  96.9188651 114.5732916  80.2675890  95.6748277 111.3085239  81.1645348
  95.1385634 110.8575977  81.8166945  95.0864985 111.4431148  80.4215813
  95.0850535 110.7673890  63.7271812  94.2080002 110.6462691  63.3634059
  95.5608289 109.9759969  63.4750701  86.6052676 115.5551050  73.8213319
  87.2923715 115.2412780  73.2334334  86.4500804 116.4592415  73.5480571
  91.4087398 110.4441247  78.2498343  91.3245586 109.8366916  77.5148753
  90.5870104 110.9350265  78.2507839 101.5811112 108.9294810  73.6168538
 102.0779811 108.1764772  73.2969608 100.8098093 108.9659127  73.0511747
 102.6640892 117.6866497  71.1906961 101.7297171 117.8067960  71.0211666
 102.8417561 116.7838964  70.9266971  98.1646080 111.0712193  73.3440223
  97.7943868 110.5183233  74.0321128  98.6605173 110.4670327  72.7915223
 106.0513444 113.5283817  71.7256995 106.5173896 114.3611808  71.6517298
 106.5020944 113.0628798  72.4302254  95.9935279 121.5309688  80.4395240
  96.6944738 122.1646171  80.5924635  95.5230394 121.8724420  79.6790880
 104.0230106 105.8964404  75.7647897 103.1093186 106.1268630  75.9330104
 104.4523208 105.9802848  76.6161929 103.7936565 114.0854296  78.2647791
 103.1408015 114.3330203  77.6100244 104.1716945 113.2718434  77.9310268
  99.8424138 114.8274107  84.7513828  99.1664775 114.7268236  85.4216203
 100.6651772 114.6713320  85.2149825  91.5902997 121.0646043  77.3726343
  92.1756434 120.3189731  77.5054247  91.3927835 121.3750000  78.2563007
  94.4441652 124.0997290  72.3888786  93.7752027 124.5843418  71.9052826
  94.3054522 124.3466511  73.3032164  86.1820652 113.6351643  76.0930786
  86.2204751 113.1015234  76.8867904  85.6760945 113.1086849  75.4741763
  93.5611414 108.4816184  79.5893329  93.6252741 109.3431015  79.1770726
  93.4978534 107.8690185  78.8565687  93.0363687 110.5539316  83.2366363
  93.6635725 110.1716394  83.8503887  92.1791605 110.3353518  83.6022055
  89.8129229 112.3615745  69.1684718  90.1082670 111.4526424  69.1151771
  88.9117265 112.3403485  68.8465720  93.3423476 110.4371742  75.1512266
  92.6210062 111.0507710  75.0119740  94.1316732 110.9729507  75.0728912
  96.1449790 107.7726169  81.4252918  96.6684192 108.0188465  82.1879227
  95.9262123 108.6046203  81.0056055  91.5417071 110.0429843  69.2924043
  91.2129777 109.1627222  69.1099149  91.8956442 109.9877512  70.1800432
  94.6558894 110.3302813  69.6599521  94.9954967 110.8588734  68.9378129
  95.1031015 110.6683219  70.4358087  97.3502335 108.7139864  79.1102589
  97.0099155 107.9147677  79.5123268  96.6441341 109.0141574  78.5379422
  98.0018807 105.7989176  77.5629912  98.8244876 105.3249654  77.4408802
  98.2456870 106.5779660  78.0628598  96.6427041 108.8277435  67.8592813
  97.3635404 109.2058687  67.3556530  96.0192345 109.5466311  67.9627791
 100.7858164 109.5322583  68.7951146 101.0021778 110.4147221  68.4939974
 100.3052231 109.1408797  68.0656788  95.5257385 112.4908297  75.3721890
  95.3801966 112.8048600  76.2646172  95.0482589 113.1093197  74.8192789
  97.3853768 109.4810845  75.4202780  97.3715337 108.5851938  75.0835078
  98.1026196 109.4881508  76.0541066  99.2379899 109.9148185  77.4655907
  98.9797677 110.8365256  77.4640238  98.7064939 109.5178619  78.1556371
  90.0003048 115.0313641  78.3109551  89.4556516 115.8073449  78.4429826
  90.8782398 115.3784446  78.1528673  96.7890664 108.3625225  70.6890350
  96.9106575 107.4341871  70.8881237  96.4992707 108.3763911  69.7768665
  99.6581855 106.0480135  73.8257070  99.6803552 106.1119469  72.8709049
 100.0749914 105.2084644  74.0197576  90.7869070 114.1583537  81.2039708
  90.0450806 114.3066173  81.7904339  90.4661814 114.4191803  80.3406458
  91.2325683 122.0448966  73.2350103  92.0583703 121.7452738  72.8548746
  90.8819735 121.2756589  73.6839892  96.2007216 121.3975434  75.3047776
  95.5787226 120.7346139  75.0050004  96.8712083 121.4236566  74.6221424
  89.4334288 119.9635293  74.1939036  88.5966197 119.5357467  74.0123038
  89.4057934 120.1567736  75.1309828  96.2731744 109.8757222  84.8980283
  96.3219899 110.7519345  84.5158052  96.8154258 109.3334615  84.3251926
  95.7620723 119.9479358  68.7806237  95.9108844 120.6314822  68.1272910
  96.5687167 119.9284448  69.2955693 104.1688227 113.2521740  82.8073455
 105.0698090 113.1128205  82.5157453 104.2436201 113.4176195  83.7471632
  98.5031032 110.6288595  81.6526641  97.6334342 110.9222161  81.3809230
  98.7390513 111.2129040  82.3733905 106.6289850 114.8120368  80.2036228
 107.1043971 115.0048014  79.3955079 105.7055415 114.8679554  79.9579611
  93.5173356 115.9744535  69.7867306  93.2719398 115.0706865  69.9847516
  93.6869271 115.9761686  68.8446784 101.2070066 106.8468212  79.1692062
 101.7252010 107.5829239  78.8438550 100.8525199 107.1532205  80.0038821
  92.7869004 111.7072893  67.2853467  92.0938249 111.7817248  66.6293503
  92.5420756 110.9433237  67.8074984 101.4582660 103.2668494  74.6892958
 101.7384414 102.5991683  75.3153385 102.2433267 103.4597590  74.1767622
 105.3291519 111.6886128  78.4364533 106.2808942 111.7884226  78.4576757
 105.1594969 110.8964397  78.9462618 103.3505898 108.7741711  78.6223934
 102.7555830 109.0546724  77.9270423 103.0655595 109.2635612  79.3940675
  99.6462927 113.7788301  63.5934037 100.5922032 113.6494509  63.6622455
  99.2677172 113.0402963  64.0703465 107.9574085 111.7003291  77.5965116
 107.4413134 110.9161748  77.4095045 108.8414033 111.3722008  77.7611636
 105.6184812 105.4444307  73.5560929 105.4209633 105.1359395  74.4404261
 106.2284517 106.1705946  73.6858859  99.5301620 117.8306047  85.0534694
 100.4504629 118.0084646  85.2474740  99.4951203 116.8862092  84.9014393
  97.8305844 111.7038277  63.5288922  96.9237300 111.4071390  63.6051636
  98.1081825 111.4068095  62.6623208  88.7483785 113.0244641  73.9787969
  88.4286569 112.1709949  73.6862343  88.2017213 113.2393219  74.7345936
  92.5263692 115.7407082  77.6957475  92.7449702 116.6724189  77.7145509
  92.9389466 115.3815056  78.4812279  99.4467910 106.2475167  69.6833163
  98.6368638 105.9022252  70.0588410 100.1352327 105.9382711  70.2720775
 101.3758458 105.3253214  71.3057460 101.9289497 105.7448667  71.9647483
 101.6128545 104.3988962  71.3480416  97.3991558 111.3140287  87.0860224
  97.2988285 112.2634644  87.0172315  97.1813100 110.9858526  86.2136294
  96.6004629 108.5625212  63.6700901  97.4623793 108.8880111  63.9296719
  96.7854973 107.7756708  63.1573967  88.6172045 116.6447552  75.9481090
  87.9235516 116.2301505  75.4351045  89.3645036 116.6868089  75.3514509
 104.7537266 107.4353739  70.8136124 104.1735935 108.0938543  70.4314177
 104.4873198 106.6131084  70.4023542 103.2040832 106.8358797  73.0157445
 103.7040610 106.9475331  72.2071764 103.8476440 106.5319849  73.6558253
  97.2622828 114.7437426  85.9025286  96.7789909 115.5437786  86.1089175
  97.3483767 114.7545371  84.9492730  90.5308787 116.5765806  73.8247105
  90.5079475 116.6753493  72.8728988  90.8409424 117.4230957  74.1464271
  93.1896165 118.6341961  77.9393719  94.1439419 118.6025903  77.8723651
  92.9908689 118.1732585  78.7543945  93.7795547 117.2043077  80.5064517
  94.5988436 117.6987156  80.5299354  94.0532355 116.2875045  80.4782085
 103.5362144 109.5953829  69.8692473 102.6487999 109.8803480  69.6512667
 103.9516133 109.4347593  69.0219750 106.8876680 109.6200350  73.5846812
 107.6637070 110.1096803  73.8571429 106.1624814 110.0458404  74.0418681
 109.3249238 110.3327970  74.6420753 109.9193729 110.0923705  73.9314061
 109.3975822 109.6135100  75.2694289  91.5446394 124.1761580  74.9563917
  91.4100862 123.4161981  74.3901915  91.1278456 124.9002480  74.4892706
 103.5103167 115.1108365  70.0842763 103.4538369 115.5676917  69.2450395
 104.0631510 114.3499050  69.9065606 107.3207973 110.8998097  70.9092882
 107.0644907 110.4994733  71.7401090 106.6960841 111.6141891  70.7843021
 104.2437947 116.3013146  67.3795292 104.1886750 116.1357418  66.4383736
 103.6184002 117.0089179  67.5357482  89.0330462 111.5381211  81.2056714
  89.6789325 111.0280165  81.6943939  88.8247613 112.2749893  81.7800139
  97.5534072 105.8021256  66.9580610  97.5412742 106.7463095  67.1148881
  98.4457494 105.6191401  66.6640072 101.3686192 102.3964032  71.2126547
 100.6018587 101.8422519  71.3583230 101.7796896 102.4685901  72.0740699
  93.3727953 108.6848828  85.3031728  94.2359414 108.3285633  85.5135053
  92.7993363 108.3462723  85.9907133  37.3420049   0.0169383  62.8339436
  37.9798459  -0.1023869  62.1302776  37.2240892   0.9650227  62.8927388
  34.1509756  -0.0303189  62.7700961  33.8128267  -0.1462124  61.8821496
  35.0199524  -0.4312024  62.7501967  30.0096571   1.8232288  58.7597852
  29.4461436   1.7322225  57.9914139  29.8948966   1.0032192  59.2400344
  34.6329539   1.1231663  68.7287166  34.6218179   0.7284461  67.8567670
  34.7950178   0.3897736  69.3220938  27.5561003   3.3183479  61.5982072
  28.3482295   2.9774304  61.1828371  27.7957653   3.4278454  62.5184225
  35.5896130   5.4903255  54.0712317  34.9384110   6.0757336  53.6846330
  36.3840493   6.0209450  54.1307354  29.5151757   2.5792393  54.4699451
  30.2882633   2.0321380  54.3312327  29.8677156   3.4436642  54.6813912
  31.3536800   3.9068775  67.6766350  31.0626666   4.8114406  67.5613017
  31.9893784   3.9485302  68.3910420  32.2793007   1.2845623  64.2667710
  32.8756579   1.0601646  63.5524673  32.3367978   0.5430369  64.8693158
  31.8518035  -1.2614941  52.1017901  32.1043556  -1.7833420  51.3401364
  30.9142594  -1.4248796  52.2044584  36.8961318  -2.2579163  59.9092644
  37.6824407  -2.6759740  59.5583061  37.1600022  -1.3533071  60.0774292
  37.0671395   3.1793687  54.6081301  36.4317228   3.2528314  55.3202206
  36.7368802   3.7687286  53.9300380  42.2969745  -2.3203930  60.8125623
  43.0294917  -2.8904713  61.0463452  41.5409101  -2.7082329  61.2532128
  31.5714324   0.6413165  54.3042276  31.4550582  -0.0341932  54.9723360
  31.6816584   0.1545539  53.4874429  33.9145865   0.1023312  58.0088965
  33.5504072  -0.4246067  58.7201887  34.7712981  -0.2878219  57.8355450
  39.8195165  -8.6082356  65.2720231  39.4878490  -7.7386945  65.0481446
  39.2240779  -8.9246072  65.9514262  33.5551352  -4.8686789  53.0050314
  33.7225754  -4.0006552  53.3720785  33.3648521  -4.7059507  52.0811603
  36.3126685   3.5930190  64.6716144  36.0127408   4.4955229  64.5631951
  35.9677744   3.3262374  65.5237297  29.7639166   0.0443987  60.7052848
  28.8389663  -0.0879799  60.9130540  30.0123580   0.8238206  61.2022791
  39.7123829  -3.8887269  62.3513581  38.8040706  -3.9571861  62.0572342
  39.6611424  -3.4115325  63.1795407  33.5340573  -2.4129131  53.9896980
  33.4140198  -1.9672080  54.8282461  32.8393161  -2.0643813  53.4310519
  27.1247977  -0.3122739  61.5396637  27.2540359  -0.0588260  62.4536049
  26.4445429   0.2804969  61.2201293  31.2947465  10.3574511  57.6387112
  31.2171494  11.3082336  57.7175592  30.6909108  10.0120383  58.2962038
  33.7864694  -2.4697624  70.2948479  33.0098028  -1.9103704  70.2851343
  34.4255257  -1.9840841  70.8163349  41.5785475  -5.6870831  64.1291455
  40.9359855  -5.3938298  63.4831250  41.0740404  -5.8017911  64.9344652
  39.2325639  -1.9407658  54.8177314  40.1443495  -1.7080271  54.6425012
  38.7235286  -1.3570614  54.2552393  32.0411067   0.3387829  69.8566446
  32.7825751   0.8772873  69.5801269  31.3348052   0.9654118  70.0137997
  37.5166406   2.4816970  68.4538607  37.9249762   2.0399380  67.7093239
  36.7943668   1.9069597  68.7072800  33.8697476  -2.5810423  65.8272164
  34.7158672  -2.1571010  65.9706813  33.8096114  -3.2376799  66.5210727
  37.8395221   3.0418161  62.2090896  37.2104083   3.2063875  61.5066964
  37.4520883   3.4559770  62.9801860  41.7184453   3.9772598  59.5635260
  41.0335491   4.3571500  59.0132293  41.8028302   4.5867925  60.2967207
  37.0196922  -4.9206055  67.4853338  36.7757854  -4.1663994  66.9487613
  37.2956852  -4.5420707  68.3200585  38.9735385   1.6232557  66.1630603
  39.1852280   2.2664317  65.4864984  38.9265133   0.7894874  65.6952533
  36.5761613  -5.7649622  63.0667175  35.7146092  -5.4668368  63.3583913
  36.6024048  -5.5479223  62.1348208  33.3923183   2.7792569  59.4740981
  33.8561528   3.0580272  58.6845604  33.1279981   1.8776013  59.2914072
  30.2847264   2.3264050  62.4120744  30.8548621   2.7551319  61.7738229
  30.8755376   2.0446635  63.1104930  32.3292069  -1.0984279  56.2830546
  33.0316112  -0.6463235  56.7504473  31.9972697  -1.7400460  56.9110439
  30.7772430  -2.5072522  70.6581756  30.1471091  -1.8256242  70.8917152
  30.6708518  -2.6189441  69.7134894  40.0881212   4.5004513  64.3352961
  40.9098656   4.0984700  64.0535642  40.0843615   4.3972747  65.2869076
  33.8537816   4.0488556  66.4913671  33.9182248   4.5108963  67.3271843
  33.1448740   3.4185921  66.6195981  48.1787206   0.8443261  60.6837932
  47.4250914   0.2750659  60.5281936  48.3134747   0.8105926  61.6308567
  33.5685834   5.7156664  56.3592651  33.4331508   6.5608199  56.7877499
  34.1095646   5.9175941  55.5958585  27.0215231   3.2332102  56.9320576
  27.5339752   4.0275352  57.0826141  27.6737944   2.5358392  56.8654178
  28.8310116   6.3497858  59.0143330  29.0076744   7.2715823  58.8264314
  29.6266949   6.0356277  59.4437709  35.1954310   6.3380230  70.4892993
  34.7518164   5.5516609  70.1713898  35.8571524   6.5259381  69.8236884
  29.9541431   7.8676032  65.0153672  30.5048856   7.7393095  64.2430666
  29.1152907   8.1670921  64.6648565  37.2935548   6.6183030  68.5174395
  37.2754023   7.4391911  68.0254664  38.2155468   6.4937105  68.7424536
  33.7508602   4.1327160  69.3597903  34.2836939   3.3715448  69.1297211
  33.2222683   3.8400811  70.1022058  36.8828580  -0.7704163  53.3963980
  36.3675203   0.0000441  53.6352367  36.6105888  -1.4439027  54.0197041
  41.8562854   1.9828191  55.3317153  41.0792297   1.6439351  54.8872316
  42.5354335   1.9880814  54.6572118  36.6714883  -2.8977071  55.2223761
  36.3665019  -2.5830922  56.0733904  37.6245325  -2.8195651  55.2651094
  35.1161315   3.2613152  56.8716715  34.5882676   2.5265912  56.5589953
  34.6148818   4.0387828  56.6256683  40.0954161   1.4562173  61.9883761
  39.4377835   2.1461434  62.0763890  40.8994560   1.8458604  62.3317748
  38.9059620  -0.1893455  60.0387703  39.4191501   0.4436537  60.5409413
  39.5560844  -0.7892259  59.6731063  33.2613915   1.0793362  49.8751688
  32.3540977   0.8482616  50.0742837  33.7584947   0.2830982  50.0625670
  36.1681994   9.7890869  52.7948374  35.4943693  10.0922566  53.4033332
  36.5547816  10.5919950  52.4453831  35.3840451  -2.7143999  62.2846044
  34.4663012  -2.4929052  62.1267732  35.8000594  -2.6397689  61.4257751
  36.1675498  -1.3152584  57.4148724  36.9147317  -0.8031186  57.1055846
  36.4367088  -1.6368531  58.2753118  34.4402148   1.1805957  54.3975678
  33.5313368   0.8964990  54.4948148  34.4697232   1.6005036  53.5378985
  39.6721416   4.7912547  58.1666846  39.2183743   3.9503457  58.2232036
  39.0415383   5.4273945  58.5041626  38.6154335  -4.2795467  59.3967513
  37.8777092  -4.7918081  59.7277756  38.8681109  -4.7195086  58.5850790
  38.1154355   6.6289043  59.1016664  38.4077330   7.1894100  58.3829030
  38.6252976   6.9217604  59.8569823  32.9887043  -1.2065422  60.4985474
  33.0435652  -2.1591586  60.4227950  32.1778245  -1.0505983  60.9826772
  34.1378236   2.7214701  51.7363757  33.6997666   2.0050560  51.2769394
  34.8788677   2.9490816  51.1748848  30.9279402  -2.5888363  58.2575852
  30.1147268  -2.2894192  58.6641045  31.4238397  -2.9832674  58.9750335
  33.0787980   7.4069394  60.1910117  33.0364159   7.6330241  59.2618649
  33.9950679   7.1732769  60.3395918  36.5253614  -2.1246538  67.0890746
  36.8803002  -1.8975065  67.9485212  37.1725745  -1.7928161  66.4668002
  42.2551351   0.9971898  57.7940075  42.1169250   1.1873494  56.8661265
  41.8987570   1.7591281  58.2508127  42.2820731   3.0648425  62.8051347
  42.7157237   2.9723714  63.6534401  42.9952311   3.0405925  62.1671363
  31.1953781   4.2832423  59.9872080  31.9894380   3.7882744  59.7854655
  30.4845473   3.7550287  59.6239785  36.0148626   6.6650519  64.3384447
  36.0685648   7.2341455  65.1062163  35.1463407   6.8352404  63.9738485
  43.1436280   3.1072126  65.3384232  43.3372170   4.0117936  65.5843507
  43.0436898   2.6479545  66.1722817  38.2051389   3.2578868  70.9125113
  38.0536895   3.0289420  69.9955197  38.1956068   4.2149470  70.9256458
  34.9736725   0.8310781  65.8971379  35.9028785   0.9821941  65.7240347
  34.5527755   0.9194802  65.0420026  33.7725057   4.8561445  63.6669917
  33.6336143   4.4880230  64.5395855  32.9839653   5.3709085  63.4953875
  34.3673209   9.9570542  55.0095453  34.5424965   9.4858585  55.8241076
  33.6805997  10.5836308  55.2376714  35.3230272   4.2343048  61.0558755
  34.9880105   4.1943818  61.9516405  34.8234218   3.5687764  60.5829165
  29.2974516  -0.3589322  66.5811336  29.1594314  -1.0909083  67.1822875
  30.2079440  -0.4480422  66.2995524  38.2589464   1.5799082  51.3295814
  37.6418635   0.8545911  51.2328867  37.7905952   2.3408443  50.9862889
  31.9256817  -0.6469363  66.0695016  32.6356435  -1.2876170  66.0281634
  31.8826125  -0.3956468  66.9921196  39.9143596   6.2897991  68.9901595
  39.8556142   5.6057211  68.3232178  40.3163114   7.0316981  68.5382221
  28.9334294  13.1059905  61.7835314  29.1730893  13.7378429  62.4614332
  28.0903491  12.7547945  62.0700673  39.9161003   4.2537575  67.2215574
  39.0287782   3.9163497  67.3441973  40.4859554   3.5220606  67.4584340
  33.4462156   8.9139027  64.1876818  33.3732328   9.7193999  64.6996122
  33.0039549   9.1130993  63.3624839  33.2351936   8.1510797  57.6979639
  32.4519458   8.6932477  57.7917864  33.9344681   8.6684777  58.0973880
  36.5448586  -6.0394573  60.3413845  37.0417285  -6.7924611  60.0214915
  35.7735567  -6.0030257  59.7757054  44.3978343  -0.3354208  61.9832136
  44.3868220   0.5470508  61.6126069  43.5295723  -0.6882657  61.7886673
  35.9060840   8.8125861  66.3434976  36.6188812   9.4473326  66.2710878
  35.4150868   8.9089727  65.5274978  37.6278367   2.7177114  57.9152268
  36.6934645   2.8378576  57.7456972  37.8055035   1.8149581  57.6512278
  33.1283555  -3.8977190  60.0685529  32.7581342  -4.4506150  60.7566435
  33.6242647  -4.5019057  59.5160529  41.0150918  -1.4405567  58.4502302
  41.4811370  -0.6077575  58.3762605  41.4658418  -1.9060585  59.1547561
  30.9572753   6.5620305  67.1640547  31.6582213   7.1956788  67.3169941
  30.4867868   6.9035036  66.4036186  39.0827149   4.9038254  55.4488454
  39.3586993   4.7894849  56.3582328  38.2131648   4.5055739  55.4100627
  38.7574039  -0.8835088  64.9893097  38.1045489  -0.6359181  64.3345550
  39.1354419  -1.6970950  64.6555575  35.7181213   9.1524605  59.0921268
  35.9003608   8.3346261  59.5549020  36.5414199   9.3692297  58.6546158
  36.0523379   8.0792790  56.3536316  36.5811145   7.5685245  55.7406478
  36.3151598   7.7635321  57.2181849  34.8061612  -0.1415277  71.4759135
  34.1302249  -0.2421148  72.1461510  35.6289246  -0.2976063  71.9395132
  26.5540471   6.0956660  64.0971650  27.1393908   5.3500348  64.2299554
  26.3565310   6.4060616  64.9808314  29.4079127   9.1307907  59.1134092
  28.7389502   9.6154035  58.6298132  29.2691996   9.3777127  60.0277471
  33.5484395  11.1651651  65.7116751  34.1002703  11.3283272  66.4765836
  33.8890589  11.7556088  65.0396775  38.3995269   5.9912908  71.5665405
  38.9435173   6.6042866  71.0720360  37.8182114   6.5492486  72.0832418
  36.6852782   9.1133626  62.6980433  36.5603922   8.3123366  62.1891378
  37.3431874   9.6079819  62.2094403  38.7487691   6.9142646  64.3259983
  37.8018026   6.7947997  64.2538310  39.0970464   6.0265144  64.4086244
  35.7534124   6.7095362  60.5264335  35.6059087   5.7812070  60.7071905
  36.5787618   6.7315453  60.0421410  39.3568246   7.5323921  61.6129208
  40.2814793   7.3266782  61.4753659  39.1883549   7.2840322  62.5218549
  35.7495638  -5.4366800  55.5196452  35.9659253  -4.5542162  55.2185280
  35.2689706  -5.8280587  54.7902094  30.4894860  -2.4781087  62.0967197
  30.3439441  -2.1640784  62.9891478  30.0120063  -1.8596186  61.5438095
  39.1463562   8.0509589  56.9691299  39.3200440   7.4856011  56.2165152
  39.6392453   8.8510483  56.7870789  45.0002953   0.8146012  58.5881599
  45.4434099   0.0653337  58.1900722  44.1229464   0.8056148  58.2055331
  40.1338735   7.3676353  54.0688198  40.8289639   7.9883046  54.2875512
  40.4761885   6.5171704  54.3440575  42.0330158   4.8176058  55.5975528
  42.5581482   5.1563331  54.8724848  41.9452510   3.8823074  55.4138663
  33.6950206   8.7310132  67.7265405  34.0037333   8.4859279  68.5988104
  34.4925688   8.9356771  67.2384275  33.7170819  10.8848042  59.9570781
  33.2775809  10.3924420  60.6503638  34.4678935  10.3421009  59.7162857
  26.1963157   7.0759583  59.9595410  27.0221177   6.7763355  59.5794053
  25.8457209   6.3067205  60.4085198  31.1644691   6.4286051  62.0293083
  30.5424700   5.7656756  61.7295311  31.8349558   6.4547183  61.3466731
  24.3971763   4.9945909  60.9184343  23.5603671   4.5668083  60.7368344
  24.3695408   5.1878352  61.8555134  41.7224064   5.4508962  70.9026726
  40.9319608   5.4333101  70.3631226  41.4857418   5.9897256  71.6575763
  41.8421939   2.3001429  68.2159455  41.8919944   2.1351436  69.1574978
  41.7335862   1.4328688  67.8257336  30.7258198   4.9789974  55.5051544
  30.8746318   5.6625439  54.8518216  31.5324641   4.9595064  56.0200999
  39.1325701  -1.7167643  69.5318761  40.0335564  -1.8561179  69.2402759
  39.2073676  -1.5513189  70.4716939  33.4668507  -4.3400789  68.3771948
  32.5971816  -4.0467223  68.1054536  33.7027987  -3.7560344  69.0979211
  43.3440136   4.7198370  68.4601476  43.0524944   5.0828351  69.2964937
  42.7312267   4.0065378  68.2814808  44.5435818   2.2851250  60.9804047
  45.3782709   2.7241054  61.1441607  44.6794947   1.8089903  60.1612292
  41.5927324  -0.1569015  66.9281534  42.0681446   0.0358631  66.1200386
  40.6692889  -0.1009830  66.6824918  28.4810831   1.0055152  56.5112613
  28.2356872   0.1017482  56.7092823  28.6506745   1.0072302  55.5692091
  34.2253603   7.4738105  52.9763291  33.6527570   8.0928292  52.5233763
  34.7986397   8.0237466  53.5103213  40.2928993  -3.2803255  65.1609840
  41.2446416  -3.1805158  65.1822064  40.1232443  -4.0724987  65.6707924
  38.3143372  -6.1947672  65.3469241  37.7193305  -5.9142659  64.6515729
  38.0293069  -5.7053771  66.1185982  37.4450863   7.7575255  54.1071873
  38.3781536   7.6920816  54.3104749  37.3574076   8.5931522  53.6486406
  40.0738880   7.0741125  51.0675821  39.9952511   6.7400989  51.9611579
  40.8948546   7.5662893  51.0667293  42.7717071  -0.0597136  64.2752140
  42.7393391  -0.9981135  64.4611823  43.3817694   0.0186901  63.5417964
  34.6100402  -1.1901083  50.3179344  35.5559506  -1.3194874  50.3867762
  34.2314647  -1.9286421  50.7948772  42.9211559  -3.2686092  64.3210423
  42.4050608  -4.0527636  64.1340352  43.8051508  -3.5967376  64.4856942
  40.5822286  -9.5245077  60.2806235  40.3847107  -9.8329988  61.1649567
  41.1921992  -8.7983438  60.4104165  48.5893621   1.0018871  63.4158176
  49.3197009   0.7404159  63.9765880  47.9800566   0.2647593  63.4560244
  46.6708918  -0.8573266  64.0132628  45.9442081  -0.9917301  63.4049119
  46.2556205  -0.5496438  64.8189346  34.4939094   2.8616664  71.7780001
  35.4142104   3.0395263  71.9720047  34.4588677   1.9172709  71.6259700
  32.7943319  -3.2651106  50.2534229  31.8874774  -3.5617993  50.3296942
  33.0719300  -3.5621288  49.3868515  27.4901167   0.7717698  64.4202782
  27.7087176   1.7034806  64.4390816  27.9026940   0.4125673  65.2057586
  32.3629032  -3.6549096  73.8105531  32.2625759  -2.7054739  73.7417622
  32.1450574  -3.9830857  72.9381601  39.7174740  -7.5335645  57.5381431
  39.1373409  -6.8750840  57.1559483  39.4510673  -8.3558300  57.1268849
  38.1678306  -8.1330587  59.7402751  38.6678085  -8.0214052  58.9317070
  38.8113914  -8.4369534  60.3803560  32.2260302  -0.2251957  72.6270592
  31.7427384   0.5748403  72.8334481  32.3121241  -0.2144012  71.6738036
  25.4946262   1.6076422  60.5492412  25.4716950   1.7064110  59.5974295
  25.8046898   2.4541573  60.8709578  28.1533640   3.6652577  64.6639026
  29.1076893   3.6336520  64.5968958  27.9546163   3.2043201  65.4789252
  28.7433022   2.2353694  67.2309824  29.5625911   2.7297772  67.2544661
  29.0169829   1.3185662  67.2027391  38.4999618  -5.3735554  56.5937779
  37.6125473  -5.0885904  56.3757974  38.9153607  -5.5341791  55.7465056
  41.8514154  -5.3489033  60.3092119  42.6274544  -4.8592581  60.5816735
  41.1262288  -4.9230979  60.7663988  44.2886713  -4.6361414  61.3666059
  44.8831203  -4.8765678  60.6559367  44.3613296  -5.3554283  61.9939595
  26.5083868   9.2072197  61.6809224  26.3738336   8.4472598  61.1147222
  26.0915931   9.9313097  61.2138013  37.6442831   4.3909121  50.6885799
  38.3478681   4.5959123  51.3043455  36.9205480   4.9585882  50.9534883
  38.4740642   0.1418982  56.8088069  38.4175843   0.5987533  55.9695702
  39.0268984  -0.6190334  56.6310912  42.2845448  -4.0691286  57.6338189
  42.0282382  -4.4694651  58.4646397  41.6598316  -3.3547492  57.5088328
  46.5957785  -1.3295213  60.1409480  46.0357343  -1.2602024  60.9141042
  45.9901289  -1.5054228  59.4208977  29.6652994  10.1041514  61.8927667
  29.5485378  11.0486946  61.7906357  28.8445440   9.8015076  62.2813466
  39.5529529   4.8291650  52.7384259  40.3875133   4.3972848  52.5561734
  39.3913872   4.6573663  53.6661154  39.2075421   1.3323763  54.1040599
  39.1524225   1.1668034  53.1629043  38.5821476   2.0399796  54.2602788
  36.5221328   3.6372675  73.4294161  37.3912488   3.8113327  73.0680796
  36.0428080   4.4567092  73.3069891  30.6907508  10.7569776  65.1083595
  31.5934755  10.7893386  65.4250090  30.4644878   9.8270227  65.1229931
  32.4461110   9.5100762  61.7693674  31.4956741   9.5102624  61.6558046
  32.7493596   8.7633497  61.2529708  48.1813804  15.3461301  62.8339436
  48.8192214  15.2268048  62.1302776  48.0634647  16.2942145  62.8927388
  44.9903510  15.2988729  62.7700961  44.6522022  15.1829794  61.8821496
  45.8593278  14.8979894  62.7501967  40.8490326  17.1524205  58.7597852
  40.2855191  17.0614142  57.9914139  40.7342721  16.3324110  59.2400344
  45.4723293  16.4523581  68.7287166  45.4611934  16.0576379  67.8567670
  45.6343933  15.7189653  69.3220938  38.3954758  18.6475397  61.5982072
  39.1876050  18.3066222  61.1828371  38.6351408  18.7570372  62.5184225
  46.4289885  20.8195173  54.0712317  45.7777864  21.4049253  53.6846330
  47.2234247  21.3501368  54.1307354  40.3545512  17.9084310  54.4699451
  41.1276388  17.3613297  54.3312327  40.7070911  18.7728560  54.6813912
  42.1930554  19.2360692  67.6766350  41.9020420  20.1406323  67.5613017
  42.8287539  19.2777220  68.3910420  43.1186761  16.6137541  64.2667710
  43.7150333  16.3893563  63.5524673  43.1761733  15.8722286  64.8693158
  42.6911790  14.0676976  52.1017901  42.9437310  13.5458498  51.3401364
  41.7536349  13.9043122  52.2044584  47.7355072  13.0712755  59.9092644
  48.5218162  12.6532178  59.5583061  47.9993777  13.9758847  60.0774292
  47.9065150  18.5085605  54.6081301  47.2710983  18.5820232  55.3202206
  47.5762556  19.0979204  53.9300380  53.1363499  13.0087988  60.8125623
  53.8688671  12.4387205  61.0463452  52.3802855  12.6209588  61.2532128
  42.4108078  15.9705082  54.3042276  42.2944336  15.2949986  54.9723360
  42.5210338  15.4837456  53.4874429  44.7539619  15.4315229  58.0088965
  44.3897826  14.9045850  58.7201887  45.6106735  15.0413698  57.8355450
  50.6588920   6.7209562  65.2720231  50.3272245   7.5904973  65.0481446
  50.0634533   6.4045846  65.9514262  44.3945106  10.4605129  53.0050314
  44.5619508  11.3285365  53.3720785  44.2042275  10.6232411  52.0811603
  47.1520439  18.9222108  64.6716144  46.8521162  19.8247147  64.5631951
  46.8071499  18.6554291  65.5237297  40.6032921  15.3735905  60.7052848
  39.6783417  15.2412119  60.9130540  40.8517334  16.1530124  61.2022791
  50.5517583  11.4404648  62.3513581  49.6434460  11.3720057  62.0572342
  50.5005179  11.9176593  63.1795407  44.3734327  12.9162787  53.9896980
  44.2533952  13.3619837  54.8282461  43.6786915  13.2648104  53.4310519
  37.9641732  15.0169178  61.5396637  38.0934113  15.2703657  62.4536049
  37.2839183  15.6096886  61.2201293  42.1341219  25.6866428  57.6387112
  42.0565249  26.6374253  57.7175592  41.5302863  25.3412301  58.2962038
  44.6258449  12.8594294  70.2948479  43.8491783  13.4188214  70.2851343
  45.2649012  13.3451077  70.8163349  52.4179230   9.6421087  64.1291455
  51.7753610   9.9353620  63.4831250  51.9134158   9.5274007  64.9344652
  50.0719393  13.3884260  54.8177314  50.9837249  13.6211647  54.6425012
  49.5629040  13.9721304  54.2552393  42.8804821  15.6679747  69.8566446
  43.6219506  16.2064791  69.5801269  42.1741807  16.2946036  70.0137997
  48.3560161  17.8108888  68.4538607  48.7643517  17.3691298  67.7093239
  47.6337422  17.2361515  68.7072800  44.7091231  12.7481494  65.8272164
  45.5552426  13.1720908  65.9706813  44.6489869  12.0915119  66.5210727
  48.6788975  18.3710078  62.2090896  48.0497838  18.5355792  61.5066964
  48.2914638  18.7851688  62.9801860  52.5578207  19.3064516  59.5635260
  51.8729246  19.6863417  59.0132293  52.6422057  19.9159843  60.2967207
  47.8590676  10.4085863  67.4853338  47.6151608  11.1627923  66.9487613
  48.1350607  10.7871210  68.3200585  49.8129139  16.9524475  66.1630603
  50.0246034  17.5956235  65.4864984  49.7658887  16.1186792  65.6952533
  47.4155368   9.5642296  63.0667175  46.5539847   9.8623549  63.3583913
  47.4417803   9.7812695  62.1348208  44.2316937  18.1084486  59.4740981
  44.6955283  18.3872189  58.6845604  43.9673735  17.2067931  59.2914072
  41.1241018  17.6555968  62.4120744  41.6942375  18.0843236  61.7738229
  41.7149130  17.3738553  63.1104930  43.1685823  14.2307639  56.2830546
  43.8709867  14.6828682  56.7504473  42.8366452  13.5891458  56.9110439
  41.6166185  12.8219395  70.6581756  40.9864846  13.5035676  70.8917152
  41.5102273  12.7102477  69.7134894  36.9111157  12.4891191  61.5847680
  36.1210211  12.7448720  61.1087790  37.4022405  13.3039529  61.6899720
  50.9274967  19.8296431  64.3352961  51.7492411  19.4276618  64.0535642
  50.9237370  19.7264665  65.2869076  38.8625903  12.8535771  58.5431156
  38.0657066  12.9654465  59.0614652  38.6351495  13.1922423  57.6772047
  44.6931570  19.3780474  66.4913671  44.7576003  19.8400881  67.3271843
  43.9842494  18.7477839  66.6195981  35.1948860  12.7421682  64.0162671
  35.4456899  13.6268692  64.2820246  35.7308409  12.5626283  63.2437762
  59.0180960  16.1735179  60.6837932  58.2644668  15.6042577  60.5281936
  59.1528501  16.1397843  61.6308567  44.4079588  21.0448581  56.3592651
  44.2725263  21.8900117  56.7877499  44.9489401  21.2467859  55.5958585
  40.8946928   7.1240161  73.0207007  40.5013873   6.5706360  73.6954651
  41.7113068   7.4350740  73.4113524  37.8608985  18.5624019  56.9320576
  38.3733506  19.3567270  57.0826141  38.5131698  17.8650310  56.8654178
  39.6703870  21.6789776  59.0143330  39.8470498  22.6007740  58.8264314
  40.4660704  21.3648195  59.4437709  43.8114889   8.5398040  70.6127263
  44.5524602   9.1405193  70.5331726  44.0432811   7.7975678  70.0545306
  38.9556227  13.7254407  68.8905493  38.8409742  12.8239665  69.1912592
  38.1000744  13.9718104  68.5390309  46.0348064  21.6672148  70.4892993
  45.5911919  20.8808526  70.1713898  46.6965278  21.8551298  69.8236884
  40.7935186  23.1967949  65.0153672  41.3442611  23.0685013  64.2430666
  39.9546661  23.4962838  64.6648565  48.1329302  21.9474948  68.5174395
  48.1147778  22.7683829  68.0254664  49.0549223  21.8229023  68.7424536
  44.5902357  19.4619077  69.3597903  45.1230693  18.7007365  69.1297211
  44.0616438  19.1692729  70.1022058  47.7572052   4.5679143  64.8891545
  47.4136321   5.4580785  64.8130655  48.1251014   4.3780801  64.0261130
  35.8257902  16.8912674  57.7080147  36.6633124  17.3009682  57.4913855
  36.0036170  15.9512116  57.6780341  47.7222334  14.5587754  53.3963980
  47.2068958  15.3292359  53.6352367  47.4499643  13.8852890  54.0197041
  45.3069445   9.4037455  58.4549218  44.4511042   9.0144305  58.2754857
  45.7196397   9.4829416  57.5949004  46.8368592   6.9383798  62.8540778
  46.3333388   6.9013933  62.0408583  47.1299199   7.8476541  62.9137435
  43.0811478   7.0222528  61.8606960  43.9464475   6.8265337  61.5012849
  43.1488987   6.7932880  62.7876317  52.6956608  17.3120109  55.3317153
  51.9186051  16.9731268  54.8872316  53.3748089  17.3172732  54.6572118
  47.5108637  12.4314846  55.2223761  47.2058773  12.7460996  56.0733904
  48.4639080  12.5096266  55.2651094  45.9555069  18.5905070  56.8716715
  45.4276431  17.8557829  56.5589953  45.4542572  19.3679746  56.6256683
  50.9347915  16.7854090  61.9883761  50.2771590  17.4753352  62.0763890
  51.7388315  17.1750522  62.3317748  40.6873797   9.2524736  59.2323327
  41.2617549   9.0299917  58.4996520  41.2744779   9.3213430  59.9851928
  49.7453374  15.1398463  60.0387703  50.2585256  15.7728455  60.5409413
  50.3954598  14.5399658  59.6731063  41.0143384  11.2829197  53.2519212
  40.1780696  11.6203884  53.5728487  40.8748154  11.1478177  52.3146349
  42.9896465   6.1265985  57.9598396  42.3360877   5.8115002  57.3355011
  42.9476939   5.5041725  58.6858219  44.1007670  16.4085280  49.8751688
  43.1934731  16.1774533  50.0742837  44.5978702  15.6122899  50.0625670
  47.0075748  25.1182787  52.7948374  46.3337447  25.4214484  53.4033332
  47.3941570  25.9211867  52.4453831  46.2234205  12.6147918  62.2846044
  45.3056766  12.8362865  62.1267732  46.6394349  12.6894229  61.4257751
  47.0069253  14.0139334  57.4148724  47.7541072  14.5260731  57.1055846
  47.2760842  13.6923387  58.2753118  45.2795903  16.5097875  54.3975678
  44.3707122  16.2256908  54.4948148  45.3090987  16.9296953  53.5378985
  50.5115170  20.1204464  58.1666846  50.0577497  19.2795374  58.2232036
  49.8809137  20.7565863  58.5041626  49.4548090  11.0496450  59.3967513
  48.7170847  10.5373837  59.7277756  49.7074863  10.6096832  58.5850790
  48.9548110  21.9580961  59.1016664  49.2471084  22.5186018  58.3829030
  49.4646730  22.2509522  59.8569823  49.5559717   3.8272702  59.9909283
  49.8618594   2.9670066  59.7035198  50.2812322   4.4190323  59.7908276
  35.8484073  14.2303389  58.3790880  35.6508473  13.6372750  57.6541947
  35.2930737  13.9255599  59.0966819  43.8280797  14.1226495  60.4985474
  43.8829407  13.1700332  60.4227950  43.0171999  14.2785935  60.9826772
  44.9771991  18.0506618  51.7363757  44.5391421  17.3342477  51.2769394
  45.7182432  18.2782733  51.1748848  41.7673157  12.7403555  58.2575852
  40.9541022  13.0397726  58.6641045  42.2632151  12.3459244  58.9750335
  43.9181735  22.7361312  60.1910117  43.8757914  22.9622158  59.2618649
  44.8344434  22.5024687  60.3395918  47.3647369  13.2045380  67.0890746
  47.7196756  13.4316853  67.9485212  48.0119500  13.5363756  66.4668002
  53.0945106  16.3263816  57.7940075  52.9563004  16.5165412  56.8661265
  52.7381324  17.0883198  58.2508127  41.2587232  10.3121911  63.8737087
  41.8986611  10.1710670  63.1760051  40.4264762  10.0256424  63.4975689
  53.1214485  18.3940343  62.8051347  53.5550992  18.3015632  63.6534401
  53.8346066  18.3697843  62.1671363  42.0347536  19.6124341  59.9872080
  42.8288134  19.1174661  59.7854655  41.3239228  19.0842204  59.6239785
  46.8542380  21.9942437  64.3384447  46.9079402  22.5633373  65.1062163
  45.9857161  22.1644322  63.9738485  38.3430299  13.7567423  56.0631833
  37.4127887  13.6951878  56.2801795  38.4387771  13.2343376  55.2668474
  38.2615848  10.2822236  58.6510074  38.5222665  11.1967569  58.5419235
  39.0833020   9.8146678  58.8006687  39.7340773  11.6959993  65.8208899
  40.4063827  11.4877355  65.1721548  38.9070560  11.4982079  65.3814131
  53.9830035  18.4364043  65.3384232  54.1765925  19.3409854  65.5843507
  53.8830653  17.9771462  66.1722817  45.6366345   8.3221934  67.8374560
  44.9894260   9.0211883  67.7439036  46.4067361   8.7558078  68.2050808
  49.0445143  18.5870786  70.9125113  48.8930650  18.3581338  69.9955197
  49.0349823  19.5441387  70.9256458  45.8130480  16.1602699  65.8971379
  46.7422540  16.3113858  65.7240347  45.3921510  16.2486719  65.0420026
  44.6118812  20.1853363  63.6669917  44.4729897  19.8172148  64.5395855
  43.8233408  20.7001003  63.4953875  45.2066964  25.2862460  55.0095453
  45.3818719  24.8150503  55.8241076  44.5199752  25.9128226  55.2376714
  46.1624027  19.5634966  61.0558755  45.8273859  19.5235736  61.9516405
  45.6627972  18.8979682  60.5829165  40.1368271  14.9702596  66.5811336
  39.9988069  14.2382835  67.1822875  41.0473194  14.8811496  66.2995524
  49.0983218  16.9091000  51.3295814  48.4812389  16.1837828  51.2328867
  48.6299707  17.6700360  50.9862889  42.7650571  14.6822555  66.0695016
  43.4750190  14.0415747  66.0281634  42.7219880  14.9335450  66.9921196
  50.7537350  21.6189908  68.9901595  50.6949896  20.9349129  68.3232178
  51.1556868  22.3608898  68.5382221  41.4779505  11.6687773  67.8890655
  40.9416862  11.2178511  68.5412251  40.8896214  11.8033682  67.1461119
  39.7728049  28.4351822  61.7835314  40.0124647  29.0670346  62.4614332
  38.9297245  28.0839862  62.0700673  40.8881764  11.1276424  50.4517119
  40.0111231  11.0065225  50.0879365  41.3639517  10.3362503  50.1996007
  50.7554757  19.5829492  67.2215574  49.8681536  19.2455414  67.3441973
  51.3253308  18.8512524  67.4584340  32.4083904  15.9153584  60.5458626
  33.0954944  15.6015314  59.9579641  32.2532033  16.8194949  60.2725877
  37.2118627  10.8043781  64.9743650  37.1276815  10.1969450  64.2394059
  36.3901333  11.2952799  64.9753146  44.2855911  24.2430945  64.1876818
  44.2126082  25.0485916  64.6996122  43.8433304  24.4422911  63.3624839
  44.0745690  23.4802715  57.6979639  43.2913212  24.0224395  57.7917864
  44.7738436  23.9976694  58.0973880  47.3842340   9.2897344  60.3413845
  47.8811040   8.5367307  60.0214915  46.6129322   9.3261661  59.7757054
  55.2372098  14.9937710  61.9832136  55.2261974  15.8762425  61.6126069
  54.3689477  14.6409261  61.7886673  46.7454594  24.1417779  66.3434976
  47.4582566  24.7765244  66.2710878  46.2544623  24.2381645  65.5274978
  48.4672121  18.0469031  57.9152268  47.5328400  18.1670494  57.7456972
  48.6448790  17.1441498  57.6512278  43.9677309  11.4314727  60.0685529
  43.5975097  10.8785768  60.7566435  44.4636402  10.8272861  59.5160529
  51.8544672  13.8886351  58.4502302  52.3205125  14.7214342  58.3762605
  52.3052173  13.4231332  59.1547561  41.7966508  21.8912222  67.1640547
  42.4975967  22.5248705  67.3169941  41.3261623  22.2326954  66.4036186
  49.9220904  20.2330172  55.4488454  50.1980747  20.1186767  56.3582328
  49.0525402  19.8347657  55.4100627  49.8261335   6.2566938  62.4893203
  48.9124415   6.4871165  62.6575410  50.2554437   6.3405382  63.3407236
  49.5967794  14.4456830  64.9893097  48.9439244  14.6932737  64.3345550
  49.9748174  13.6320968  64.6555575  46.5574968  24.4816523  59.0921268
  46.7397362  23.6638179  59.5549020  47.3807954  24.6984215  58.6546158
  46.8917133  23.4084708  56.3536316  47.4204900  22.8977163  55.7406478
  47.1545353  23.0927238  57.2181849  45.6455367  15.1876641  71.4759135
  44.9696004  15.0870770  72.1461510  46.4683001  15.0315855  71.9395132
  37.3934226  21.4248577  64.0971650  37.9787663  20.6792265  64.2299554
  37.1959064  21.7352534  64.9808314  40.2472881  24.4599825  59.1134092
  39.5783256  24.9445952  58.6298132  40.1085751  24.7069045  60.0277471
  31.9851881  13.9954178  62.8176093  32.0235980  13.4617768  63.6113211
  31.4792173  13.4689383  62.1987070  44.3878150  26.4943568  65.7116751
  44.9396458  26.6575190  66.4765836  44.7284343  27.0848006  65.0396775
  39.3642643   8.8418718  66.3138635  39.4283969   9.7033549  65.9016033
  39.3009763   8.2292720  65.5810994  38.8394915  10.9141851  69.9611670
  39.4666954  10.5318928  70.5749194  37.9822834  10.6956053  70.3267362
  49.2389024  21.3204826  71.5665405  49.7828928  21.9334784  71.0720360
  48.6575869  21.8784404  72.0832418  35.6160458  12.7218280  55.8930024
  35.9113899  11.8128958  55.8397078  34.7148494  12.7006019  55.5711027
  47.5246537  24.4425544  62.6980433  47.3997676  23.6415284  62.1891378
  48.1825628  24.9371737  62.2094403  39.1454705  10.7974276  61.8757573
  38.4241291  11.4110244  61.7365046  39.9347961  11.3332041  61.7974219
  49.5881445  22.2434564  64.3259983  48.6411781  22.1239915  64.2538310
  49.9364218  21.3557062  64.4086244  41.9481019   8.1328703  68.1498225
  42.4715420   8.3790999  68.9124534  41.7293352   8.9648738  67.7301362
  37.3448300  10.4032377  56.0169349  37.0161006   9.5229756  55.8344455
  37.6987670  10.3480046  56.9045739  46.5927879  22.0387280  60.5264335
  46.4452841  21.1103987  60.7071905  47.4181372  22.0607371  60.0421410
  40.4590123  10.6905347  56.3844827  40.7986195  11.2191268  55.6623436
  40.9062243  11.0285753  57.1603394  50.1962000  22.8615839  61.6129208
  51.1208548  22.6558700  61.4753659  50.0277304  22.6132240  62.5218549
  43.1533564   9.0742398  65.8347895  42.8130384   8.2750211  66.2368575
  42.4472570   9.3744109  65.2624728  43.8050036   6.1591710  64.2875218
  44.6276105   5.6852188  64.1654109  44.0488099   6.9382194  64.7873905
  42.4458270   9.1879969  54.5838120  43.1666633   9.5661222  54.0801837
  41.8223574   9.9068846  54.6873098  46.5889393   9.8925118  55.5196452
  46.8053007  10.7749756  55.2185280  46.1083460   9.5011331  54.7902094
  41.3288614  12.8510831  62.0967197  41.1833195  13.1651134  62.9891478
  40.8513818  13.4695731  61.5438095  43.1884997   9.8413379  62.1448086
  43.1746566   8.9454472  61.8080384  43.9057425   9.8484043  62.7786372
  45.0411128  10.2750719  64.1901214  44.7828906  11.1967790  64.1885544
  44.5096168   9.8781154  64.8801678  49.9857317  23.3801506  56.9691299
  50.1594194  22.8147929  56.2165152  50.4786208  24.1802401  56.7870789
  35.8034276  15.3916175  65.0354858  35.2587745  16.1675983  65.1675132
  36.6813626  15.7386980  64.8773979  42.5921893   8.7227759  57.4135657
  42.7137804   7.7944405  57.6126544  42.3023935   8.7366445  56.5013972
  45.4613083   6.4082670  60.5502376  45.4834780   6.4722003  59.5954356
  45.8781142   5.5687178  60.7442883  55.8396708  16.1437929  58.5881599
  56.2827854  15.3945254  58.1900722  54.9623218  16.1348066  58.2055331
  50.9732489  22.6968271  54.0688198  51.6683394  23.3174963  54.2875512
  51.3155639  21.8463622  54.3440575  36.5900298  14.5186072  67.9285015
  35.8482034  14.6668707  68.5149645  36.2693043  14.7794337  67.0651764
  52.8723912  20.1467976  55.5975528  53.3975236  20.4855249  54.8724848
  52.7846265  19.2114991  55.4138663  44.5343961  24.0602050  67.7265405
  44.8431087  23.8151197  68.5988104  45.3319443  24.2648688  67.2384275
  44.5564573  26.2139959  59.9570781  44.1169563  25.7216338  60.6503638
  45.3072690  25.6712927  59.7162857  37.0356912  22.4051500  59.9595410
  37.8614932  22.1055272  59.5794053  36.6850964  21.6359123  60.4085198
  42.0038445  21.7577969  62.0293083  41.3818454  21.0948674  61.7295311
  42.6743312  21.7839100  61.3466731  35.2365517  20.3237827  60.9184343
  34.3997425  19.8960001  60.7368344  35.2089162  20.5170270  61.8555134
  42.0762973  10.2359757  71.6225589  42.1251128  11.1121879  71.2403359
  42.6185487   9.6937150  71.0497232  52.5617818  20.7800880  70.9026726
  51.7713362  20.7625019  70.3631226  52.3251173  21.3189174  71.6575763
  52.6815693  17.6293346  68.2159455  52.7313698  17.4643354  69.1574978
  52.5729617  16.7620605  67.8257336  41.5651952  20.3081892  55.5051544
  41.7140072  20.9917356  54.8518216  42.3718396  20.2886982  56.0200999
  49.9719456  13.6124274  69.5318761  50.8729319  13.4730739  69.2402759
  50.0467430  13.7778729  70.4716939  44.3062261  10.9891129  68.3771948
  43.4365570  11.2824695  68.1054536  44.5421741  11.5731574  69.0979211
  54.1833890  20.0490288  68.4601476  53.8918699  20.4120268  69.2964937
  53.5706021  19.3357296  68.2814808  55.3829573  17.6143167  60.9804047
  56.2176464  18.0532972  61.1441607  55.5188701  17.1381821  60.1612292
  52.4321078  15.1722902  66.9281534  52.9075200  15.3650549  66.1200386
  51.5086644  15.2282088  66.6824918  39.3204585  16.3347070  56.5112613
  39.0750627  15.4309400  56.7092823  39.4900500  16.3364220  55.5692091
  47.0101295   7.2070746  65.8937368  47.5283239   7.9431773  65.5683857
  46.6556428   7.5134739  66.7284127  38.5900233  12.0675427  54.0098774
  37.8969478  12.1419782  53.3538810  38.3451984  11.3035771  54.5320291
  47.2613889   3.6271028  61.4138265  47.5415643   2.9594217  62.0398691
  48.0464496   3.8200124  60.9012929  45.0647358  22.8030022  52.9763291
  44.4921325  23.4220209  52.5233763  45.6380151  23.3529384  53.5103213
  51.1322747  12.0488662  65.1609840  52.0840170  12.1486760  65.1822064
  50.9626198  11.2566931  65.6707924  49.1537127   9.1344246  65.3469241
  48.5587059   9.4149258  64.6515729  48.8686824   9.6238147  66.1185982
  48.2844617  23.0867172  54.1071873  49.2175291  23.0212734  54.3104749
  48.1967830  23.9223439  53.6486406  50.9132634  22.4033043  51.0675821
  50.8346266  22.0692906  51.9611579  51.7342301  22.8954811  51.0667293
  53.6110825  15.2694782  64.2752140  53.5787145  14.3310783  64.4611823
  54.2211449  15.3478819  63.5417964  45.4494156  14.1390835  50.3179344
  46.3953261  14.0097043  50.3867762  45.0708401  13.4005497  50.7948772
  53.7605314  12.0605826  64.3210423  53.2444362  11.2764282  64.1340352
  54.6445262  11.7324542  64.4856942  51.4216041   5.8046841  60.2806235
  51.2240862   5.4961929  61.1649567  52.0315746   6.5308480  60.4104165
  59.4287375  16.3310789  63.4158176  60.1590764  16.0696077  63.9765880
  58.8194321  15.5939511  63.4560244  57.5102672  14.4718652  64.0132628
  56.7835836  14.3374616  63.4049119  57.0949959  14.7795480  64.8189346
  45.3332849  18.1908581  71.7780001  46.2535858  18.3687180  71.9720047
  45.2982432  17.2464627  71.6259700  43.6337073  12.0640811  50.2534229
  42.7268529  11.7673924  50.3296942  43.9113054  11.7670630  49.3868515
  34.5515014  13.3847175  60.7033275  34.2317798  12.5312483  60.4107649
  34.0048442  13.5995753  61.4591243  38.3294921  16.1009616  64.4202782
  38.5480931  17.0326724  64.4390816  38.7420695  15.7417590  65.2057586
  45.2499139   6.6077701  56.4078470  44.4399867   6.2624786  56.7833716
  45.9383556   6.2985245  56.9966082  47.1789687   5.6855748  58.0302767
  47.7320726   6.1051201  58.6892790  47.4159774   4.7591496  58.0725723
  43.2022786  11.6742822  73.8105531  43.1019513  12.6237179  73.7417622
  42.9844329  11.3461061  72.9381601  42.4035858   8.9227747  50.3946208
  43.2655022   9.2482645  50.6542025  42.5886202   8.1359243  49.8819274
  34.4203274  17.0050086  62.6726397  33.7266745  16.5904039  62.1596351
  35.1676265  17.0470623  62.0759816  50.5568494   7.7956273  57.5381431
  49.9767163   8.4541077  57.1559483  50.2904427   6.9733618  57.1268849
  49.0072061   7.1961331  59.7402751  49.5071839   7.3077865  58.9317070
  49.6507669   6.8922384  60.3803560  43.0654057  15.1039960  72.6270592
  42.5821138  15.9040321  72.8334481  43.1514996  15.1147905  71.6738036
  36.3340016  16.9368340  60.5492412  36.3110704  17.0356027  59.5974295
  36.6440653  17.7833491  60.8709578  38.9927394  18.9944495  64.6639026
  39.9470648  18.9628438  64.5968958  38.7939918  18.5335119  65.4789252
  39.5826776  17.5645611  67.2309824  40.4019665  18.0589690  67.2544661
  39.8563584  16.6477579  67.2027391  49.3393372   9.9556364  56.5937779
  48.4519227  10.2406014  56.3757974  49.7547361   9.7950127  55.7465056
  52.6907908   9.9802885  60.3092119  53.4668299  10.4699337  60.5816735
  51.9656043  10.4060939  60.7663988  55.1280467  10.6930504  61.3666059
  55.7224958  10.4526240  60.6559367  55.2007051   9.9737634  61.9939595
  37.3477623  24.5364115  61.6809224  37.2132091  23.7764516  61.1147222
  36.9309685  25.2605015  61.2138013  48.4836586  19.7201038  50.6885799
  49.1872436  19.9251041  51.3043455  47.7599235  20.2877800  50.9534883
  49.3134396  15.4710899  56.8088069  49.2569598  15.9279451  55.9695702
  49.8662739  14.7101584  56.6310912  53.1239202  11.2600631  57.6338189
  52.8676136  10.8597267  58.4646397  52.4992070  11.9744425  57.5088328
  57.4351540  13.9996705  60.1409480  56.8751098  14.0689894  60.9141042
  56.8295043  13.8237689  59.4208977  40.5046749  25.4333432  61.8927667
  40.3879133  26.3778864  61.7906357  39.6839195  25.1306993  62.2813466
  50.3923283  20.1583567  52.7384259  51.2268887  19.7264766  52.5561734
  50.2307626  19.9865581  53.6661154  50.0469175  16.6615681  54.1040599
  49.9917979  16.4959952  53.1629043  49.4215231  17.3691714  54.2602788
  34.8361690  11.8983745  67.9302021  35.4820554  11.3882699  68.4189246
  34.6278842  12.6352427  68.5045446  47.3615083  18.9664593  73.4294161
  48.2306242  19.1405245  73.0680796  46.8821834  19.7859009  73.3069891
  43.3565301   6.1623790  53.6825917  43.3443971   7.1065630  53.8394188
  44.2488723   5.9793935  53.3885378  41.5301263  26.0861694  65.1083595
  42.4328510  26.1185304  65.4250090  41.3038633  25.1562145  65.1229931
  43.2854865  24.8392680  61.7693674  42.3350496  24.8394542  61.6558046
  43.5887351  24.0925415  61.2529708  47.1717420   2.7566566  57.9371854
  46.4049816   2.2025053  58.0828536  47.5828125   2.8288435  58.7986005
  39.1759181   9.0451362  72.0277035  40.0390643   8.6888167  72.2380360
  38.6024592   8.7065257  72.7152439  59.0207558  30.6753219  62.8339436
  59.6585968  30.5559966  62.1302776  58.9028401  31.6234062  62.8927388
  55.8297265  30.6280647  62.7700961  55.4915776  30.5121711  61.8821496
  56.6987033  30.2271812  62.7501967  51.6884080  32.4816123  58.7597852
  51.1248945  32.3906060  57.9914139  51.5736475  31.6616027  59.2400344
  56.3117048  31.7815498  68.7287166  56.3005688  31.3868297  67.8567670
  56.4737687  31.0481571  69.3220938  49.2348512  33.9767315  61.5982072
  50.0269804  33.6358139  61.1828371  49.4745162  34.0862290  62.5184225
  57.2683639  36.1487091  54.0712317  56.6171619  36.7341171  53.6846330
  58.0628002  36.6793286  54.1307354  51.1939266  33.2376228  54.4699451
  51.9670142  32.6905215  54.3312327  51.5464665  34.1020477  54.6813912
  53.0324309  34.5652610  67.6766350  52.7414175  35.4698241  67.5613017
  53.6681293  34.6069138  68.3910420  53.9580516  31.9429459  64.2667710
  54.5544088  31.7185481  63.5524673  54.0155487  31.2014204  64.8693158
  53.5305544  29.3968894  52.1017901  53.7831065  28.8750415  51.3401364
  52.5930103  29.2335039  52.2044584  58.5748827  28.4004672  59.9092644
  59.3611916  27.9824096  59.5583061  58.8387531  29.3050765  60.0774292
  58.7458904  33.8377523  54.6081301  58.1104737  33.9112149  55.3202206
  58.4156311  34.4271122  53.9300380  63.9757254  28.3379906  60.8125623
  64.7082426  27.7679122  61.0463452  63.2196610  27.9501506  61.2532128
  53.2501833  31.2997000  54.3042276  53.1338091  30.6241903  54.9723360
  53.3604093  30.8129374  53.4874429  55.5933374  30.7607147  58.0088965
  55.2291581  30.2337768  58.7201887  56.4500490  30.3705616  57.8355450
  61.4982674  22.0501480  65.2720231  61.1665999  22.9196891  65.0481446
  60.9028288  21.7337764  65.9514262  55.2338861  25.7897047  53.0050314
  55.4013263  26.6577283  53.3720785  55.0436030  25.9524328  52.0811603
  57.9914194  34.2514026  64.6716144  57.6914917  35.1539064  64.5631951
  57.6465253  33.9846209  65.5237297  51.4426675  30.7027823  60.7052848
  50.5177172  30.5704037  60.9130540  51.6911089  31.4822042  61.2022791
  61.3911338  26.7696566  62.3513581  60.4828215  26.7011974  62.0572342
  61.3398933  27.2468511  63.1795407  55.2128082  28.2454704  53.9896980
  55.0927707  28.6911755  54.8282461  54.5180670  28.5940022  53.4310519
  48.8035486  30.3461096  61.5396637  48.9327868  30.5995575  62.4536049
  48.1232938  30.9388804  61.2201293  52.9734974  41.0158346  57.6387112
  52.8959003  41.9666171  57.7175592  52.3696617  40.6704219  58.2962038
  55.4652203  28.1886211  70.2948479  54.6885537  28.7480132  70.2851343
  56.1042766  28.6742994  70.8163349  63.2572984  24.9713004  64.1291455
  62.6147364  25.2645537  63.4831250  62.7527913  24.8565925  64.9344652
  60.9113148  28.7176177  54.8177314  61.8231004  28.9503564  54.6425012
  60.4022795  29.3013222  54.2552393  53.7198576  30.9971665  69.8566446
  54.4613260  31.5356709  69.5801269  53.0135561  31.6237954  70.0137997
  59.1953915  33.1400805  68.4538607  59.6037271  32.6983216  67.7093239
  58.4731177  32.5653433  68.7072800  55.5484985  28.0773412  65.8272164
  56.3946181  28.5012826  65.9706813  55.4883623  27.4207036  66.5210727
  59.5182730  33.7001996  62.2090896  58.8891592  33.8647710  61.5066964
  59.1308392  34.1143605  62.9801860  63.3971962  34.6356434  59.5635260
  62.7123000  35.0155335  59.0132293  63.4815811  35.2451760  60.2967207
  58.6984431  25.7377780  67.4853338  58.4545363  26.4919841  66.9487613
  58.9744361  26.1163128  68.3200585  60.6522893  32.2816393  66.1630603
  60.8639789  32.9248153  65.4864984  60.6052642  31.4478709  65.6952533
  58.2549122  24.8934213  63.0667175  57.3933601  25.1915467  63.3583913
  58.2811557  25.1104612  62.1348208  55.0710692  33.4376404  59.4740981
  55.5349037  33.7164107  58.6845604  54.8067490  32.5359849  59.2914072
  51.9634773  32.9847886  62.4120744  52.5336130  33.4135154  61.7738229
  52.5542885  32.7030470  63.1104930  54.0079578  29.5599556  56.2830546
  54.7103621  30.0120600  56.7504473  53.6760206  28.9183375  56.9110439
  52.4559939  28.1511313  70.6581756  51.8258600  28.8327594  70.8917152
  52.3496027  28.0394395  69.7134894  47.7504912  27.8183109  61.5847680
  46.9603966  28.0740638  61.1087790  48.2416159  28.6331447  61.6899720
  61.7668721  35.1588348  64.3352961  62.5886165  34.7568535  64.0535642
  61.7631124  35.0556582  65.2869076  49.7019657  28.1827688  58.5431156
  48.9050821  28.2946383  59.0614652  49.4745249  28.5214340  57.6772047
  55.5325325  34.7072391  66.4913671  55.5969757  35.1692799  67.3271843
  54.8236249  34.0769756  66.6195981  46.0342615  28.0713599  64.0162671
  46.2850653  28.9560609  64.2820246  46.5702163  27.8918201  63.2437762
  55.2473343  36.3740499  56.3592651  55.1119017  37.2192035  56.7877499
  55.7883155  36.5759777  55.5958585  51.7340682  22.4532079  73.0207007
  51.3407628  21.8998277  73.6954651  52.5506822  22.7642657  73.4113524
  48.7002740  33.8915937  56.9320576  49.2127260  34.6859187  57.0826141
  49.3525453  33.1942227  56.8654178  50.5097625  37.0081693  59.0143330
  50.6864253  37.9299658  58.8264314  51.3054458  36.6940112  59.4437709
  54.6508643  23.8689958  70.6127263  55.3918357  24.4697111  70.5331726
  54.8826566  23.1267596  70.0545306  49.7949981  29.0546325  68.8905493
  49.6803496  28.1531582  69.1912592  48.9394499  29.3010022  68.5390309
  56.8741819  36.9964065  70.4892993  56.4305673  36.2100444  70.1713898
  57.5359032  37.1843216  69.8236884  58.9723057  37.2766865  68.5174395
  58.9541532  38.0975746  68.0254664  59.8942977  37.1520941  68.7424536
  55.4296111  34.7910995  69.3597903  55.9624448  34.0299283  69.1297211
  54.9010192  34.4984647  70.1022058  58.5965806  19.8971061  64.8891545
  58.2530075  20.7872703  64.8130655  58.9644769  19.7072718  64.0261130
  46.6651657  32.2204591  57.7080147  47.5026879  32.6301600  57.4913855
  46.8429924  31.2804033  57.6780341  58.5616089  29.8879672  53.3963980
  58.0462712  30.6584277  53.6352367  58.2893397  29.2144808  54.0197041
  56.1463200  24.7329373  58.4549218  55.2904796  24.3436223  58.2754857
  56.5590152  24.8121334  57.5949004  57.6762346  22.2675716  62.8540778
  57.1727142  22.2305851  62.0408583  57.9692953  23.1768459  62.9137435
  53.9205232  22.3514446  61.8606960  54.7858229  22.1557254  61.5012849
  53.9882741  22.1224797  62.7876317  58.3502392  27.7606764  55.2223761
  58.0452528  28.0752913  56.0733904  59.3032834  27.8388184  55.2651094
  56.7948824  33.9196987  56.8716715  56.2670185  33.1849747  56.5589953
  56.2936327  34.6971664  56.6256683  61.7741670  32.1146008  61.9883761
  61.1165344  32.8045269  62.0763890  62.5782069  32.5042440  62.3317748
  51.5267551  24.5816654  59.2323327  52.1011303  24.3591835  58.4996520
  52.1138534  24.6505348  59.9851928  60.5847129  30.4690381  60.0387703
  61.0979010  31.1020372  60.5409413  61.2348353  29.8691576  59.6731063
  51.8537139  26.6121115  53.2519212  51.0174451  26.9495801  53.5728487
  51.7141908  26.4770094  52.3146349  53.8290219  21.4557903  57.9598396
  53.1754631  21.1406920  57.3355011  53.7870693  20.8333643  58.6858219
  54.9401424  31.7377198  49.8751688  54.0328486  31.5066451  50.0742837
  55.4372456  30.9414817  50.0625670  57.8469503  40.4474705  52.7948374
  57.1731202  40.7506402  53.4033332  58.2335325  41.2503785  52.4453831
  57.0627960  27.9439836  62.2846044  56.1450521  28.1654783  62.1267732
  57.4788103  28.0186147  61.4257751  57.8463007  29.3431252  57.4148724
  58.5934826  29.8552649  57.1055846  58.1154597  29.0215305  58.2753118
  56.1189657  31.8389793  54.3975678  55.2100877  31.5548825  54.4948148
  56.1484741  32.2588871  53.5378985  61.3508925  35.4496382  58.1666846
  60.8971252  34.6087292  58.2232036  60.7202892  36.0857780  58.5041626
  60.2941844  26.3788368  59.3967513  59.5564601  25.8665754  59.7277756
  60.5468618  25.9388750  58.5850790  59.7941864  37.2872879  59.1016664
  60.0864838  37.8477936  58.3829030  60.3040485  37.5801440  59.8569823
  60.3953472  19.1564620  59.9909283  60.7012349  18.2961983  59.7035198
  61.1206077  19.7482240  59.7908276  46.6877828  29.5595307  58.3790880
  46.4902228  28.9664667  57.6541947  46.1324492  29.2547517  59.0966819
  54.6674551  29.4518413  60.4985474  54.7223161  28.4992250  60.4227950
  53.8565754  29.6077852  60.9826772  55.8165745  33.3798536  51.7363757
  55.3785175  32.6634395  51.2769394  56.5576186  33.6074651  51.1748848
  52.6066911  28.0695473  58.2575852  51.7934777  28.3689643  58.6641045
  53.1025906  27.6751162  58.9750335  54.7575489  38.0653230  60.1910117
  54.7151668  38.2914076  59.2618649  55.6738188  37.8316604  60.3395918
  58.2041123  28.5337297  67.0890746  58.5590511  28.7608770  67.9485212
  58.8513254  28.8655674  66.4668002  52.0980986  25.6413828  63.8737087
  52.7380365  25.5002587  63.1760051  51.2658517  25.3548342  63.4975689
  52.8741290  34.9416259  59.9872080  53.6681889  34.4466579  59.7854655
  52.1632982  34.4134122  59.6239785  57.6936135  37.3234354  64.3384447
  57.7473157  37.8925291  65.1062163  56.8250916  37.4936239  63.9738485
  49.1824054  29.0859341  56.0631833  48.2521642  29.0243796  56.2801795
  49.2781526  28.5635293  55.2668474  49.1009603  25.6114153  58.6510074
  49.3616420  26.5259487  58.5419235  49.9226775  25.1438596  58.8006687
  50.5734528  27.0251911  65.8208899  51.2457581  26.8169273  65.1721548
  49.7464314  26.8273997  65.3814131  56.4760100  23.6513851  67.8374560
  55.8288015  24.3503801  67.7439036  57.2461115  24.0849995  68.2050808
  59.8838898  33.9162704  70.9125113  59.7324404  33.6873255  69.9955197
  59.8743577  34.8733305  70.9256458  56.6524234  31.4894616  65.8971379
  57.5816294  31.6405776  65.7240347  56.2315264  31.5778637  65.0420026
  55.4512566  35.5145281  63.6669917  55.3123652  35.1464065  64.5395855
  54.6627162  36.0292920  63.4953875  56.0460718  40.6154377  55.0095453
  56.2212474  40.1442420  55.8241076  55.3593506  41.2420143  55.2376714
  57.0017781  34.8926883  61.0558755  56.6667614  34.8527653  61.9516405
  56.5021727  34.2271599  60.5829165  50.9762025  30.2994514  66.5811336
  50.8381823  29.5674752  67.1822875  51.8866949  30.2103414  66.2995524
  59.9376973  32.2382918  51.3295814  59.3206144  31.5129746  51.2328867
  59.4693461  32.9992278  50.9862889  53.6044326  30.0114473  66.0695016
  54.3143944  29.3707665  66.0281634  53.5613634  30.2627368  66.9921196
  61.5931105  36.9481826  68.9901595  61.5343651  36.2641046  68.3232178
  61.9950623  37.6900816  68.5382221  52.3173260  26.9979691  67.8890655
  51.7810617  26.5470429  68.5412251  51.7289968  27.1325600  67.1461119
  51.7275519  26.4568342  50.4517119  50.8504985  26.3357143  50.0879365
  52.2033272  25.6654420  50.1996007  61.5948512  34.9121410  67.2215574
  60.7075291  34.5747332  67.3441973  62.1647063  34.1804441  67.4584340
  43.2477659  31.2445502  60.5458626  43.9348699  30.9307232  59.9579641
  43.0925788  32.1486866  60.2725877  48.0512381  26.1335698  64.9743650
  47.9670570  25.5261368  64.2394059  47.2295087  26.6244717  64.9753146
  54.9139445  38.8094632  57.6979639  54.1306967  39.3516313  57.7917864
  55.6132190  39.3268612  58.0973880  58.2236095  24.6189262  60.3413845
  58.7204794  23.8659224  60.0214915  57.4523076  24.6553579  59.7757054
  59.3065876  33.3760949  57.9152268  58.3722154  33.4962412  57.7456972
  59.4842544  32.4733416  57.6512278  54.8071064  26.7606645  60.0685529
  54.4368851  26.2077685  60.7566435  55.3030156  26.1564778  59.5160529
  60.6655090  21.5858855  62.4893203  59.7518170  21.8163082  62.6575410
  61.0948191  21.6697299  63.3407236  60.4361548  29.7748747  64.9893097
  59.7832998  30.0224655  64.3345550  60.8141928  28.9612886  64.6555575
  57.3968722  39.8108441  59.0921268  57.5791117  38.9930097  59.5549020
  58.2201708  40.0276133  58.6546158  57.7310888  38.7376626  56.3536316
  58.2598654  38.2269080  55.7406478  57.9939107  38.4219156  57.2181849
  56.4849121  30.5168558  71.4759135  55.8089758  30.4162688  72.1461510
  57.3076755  30.3607772  71.9395132  48.2327980  36.7540495  64.0971650
  48.8181417  36.0084183  64.2299554  48.0352819  37.0644452  64.9808314
  51.0866636  39.7891742  59.1134092  50.4177011  40.2737870  58.6298132
  50.9479505  40.0360963  60.0277471  42.8245635  29.3246095  62.8176093
  42.8629735  28.7909686  63.6113211  42.3185928  28.7981301  62.1987070
  50.2036397  24.1710636  66.3138635  50.2677724  25.0325467  65.9016033
  50.1403518  23.5584637  65.5810994  49.6788670  26.2433768  69.9611670
  50.3060709  25.8610846  70.5749194  48.8216589  26.0247970  70.3267362
  60.0782778  36.6496743  71.5665405  60.6222682  37.2626702  71.0720360
  59.4969623  37.2076322  72.0832418  46.4554213  28.0510197  55.8930024
  46.7507654  27.1420876  55.8397078  45.5542248  28.0297937  55.5711027
  58.3640291  39.7717461  62.6980433  58.2391431  38.9707201  62.1891378
  59.0219383  40.2663655  62.2094403  49.9848460  26.1266194  61.8757573
  49.2635045  26.7402162  61.7365046  50.7741715  26.6623959  61.7974219
  60.4275200  37.5726482  64.3259983  59.4805535  37.4531833  64.2538310
  60.7757973  36.6848980  64.4086244  52.7874773  23.4620620  68.1498225
  53.3109175  23.7082917  68.9124534  52.5687106  24.2940655  67.7301362
  48.1842054  25.7324295  56.0169349  47.8554760  24.8521674  55.8344455
  48.5381425  25.6771964  56.9045739  57.4321633  37.3679198  60.5264335
  57.2846596  36.4395905  60.7071905  58.2575127  37.3899288  60.0421410
  51.2983877  26.0197265  56.3844827  51.6379950  26.5483186  55.6623436
  51.7455998  26.3577671  57.1603394  61.0355755  38.1907756  61.6129208
  61.9602302  37.9850618  61.4753659  60.8671058  37.9424158  62.5218549
  53.9927318  24.4034316  65.8347895  53.6524139  23.6042129  66.2368575
  53.2866324  24.7036026  65.2624728  54.6443790  21.4883628  64.2875218
  55.4669859  21.0144106  64.1654109  54.8881854  22.2674112  64.7873905
  53.2852025  24.5171886  54.5838120  54.0060387  24.8953139  54.0801837
  52.6617329  25.2360763  54.6873098  57.4283147  25.2217035  55.5196452
  57.6446762  26.1041673  55.2185280  56.9477215  24.8303249  54.7902094
  52.1682369  28.1802749  62.0967197  52.0226949  28.4943052  62.9891478
  51.6907572  28.7987649  61.5438095  54.0278752  25.1705297  62.1448086
  54.0140320  24.2746390  61.8080384  54.7451180  25.1775960  62.7786372
  55.8804882  25.6042637  64.1901214  55.6222660  26.5259707  64.1885544
  55.3489923  25.2073071  64.8801678  60.8251071  38.7093424  56.9691299
  60.9987949  38.1439846  56.2165152  61.3179962  39.5094319  56.7870789
  46.6428031  30.7208093  65.0354858  46.0981499  31.4967901  65.1675132
  47.5207381  31.0678897  64.8773979  53.4315648  24.0519677  57.4135657
  53.5531559  23.1236323  57.6126544  53.1417690  24.0658363  56.5013972
  56.3006838  21.7374587  60.5502376  56.3228535  21.8013920  59.5954356
  56.7174897  20.8979096  60.7442883  61.8126244  38.0260188  54.0688198
  62.5077148  38.6466881  54.2875512  62.1549394  37.1755540  54.3440575
  47.4294053  29.8477989  67.9285015  46.6875789  29.9960625  68.5149645
  47.1086797  30.1086255  67.0651764  55.3958327  41.5431877  59.9570781
  54.9563318  41.0508256  60.6503638  56.1466444  41.0004845  59.7162857
  47.8750666  37.7343418  59.9595410  48.7008686  37.4347190  59.5794053
  47.5244718  36.9651040  60.4085198  52.8432200  37.0869886  62.0293083
  52.2212209  36.4240591  61.7295311  53.5137067  37.1131018  61.3466731
  46.0759272  35.6529744  60.9184343  45.2391180  35.2251919  60.7368344
  46.0482917  35.8462188  61.8555134  52.9156727  25.5651674  71.6225589
  52.9644883  26.4413797  71.2403359  53.4579241  25.0229067  71.0497232
  52.4045707  35.6373810  55.5051544  52.5533827  36.3209274  54.8518216
  53.2112150  35.6178900  56.0200999  60.8113210  28.9416192  69.5318761
  61.7123073  28.8022657  69.2402759  60.8861185  29.1070647  70.4716939
  55.1456016  26.3183047  68.3771948  54.2759325  26.6116613  68.1054536
  55.3815496  26.9023492  69.0979211  63.2714833  30.5014820  66.9281534
  63.7468955  30.6942466  66.1200386  62.3480398  30.5574006  66.6824918
  50.1598340  31.6638987  56.5112613  49.9144381  30.7601317  56.7092823
  50.3294254  31.6656138  55.5692091  57.8495049  22.5362664  65.8937368
  58.3676993  23.2723690  65.5683857  57.4950182  22.8426657  66.7284127
  49.4293987  27.3967345  54.0098774  48.7363232  27.4711700  53.3538810
  49.1845739  26.6327688  54.5320291  58.1007644  18.9562946  61.4138265
  58.3809397  18.2886135  62.0398691  58.8858251  19.1492042  60.9012929
  55.9041112  38.1321940  52.9763291  55.3315079  38.7512127  52.5233763
  56.4773906  38.6821302  53.5103213  61.9716502  27.3780580  65.1609840
  62.9233925  27.4778678  65.1822064  61.8019952  26.5858849  65.6707924
  59.9930881  24.4636163  65.3469241  59.3980814  24.7441176  64.6515729
  59.7080578  24.9530064  66.1185982  59.1238372  38.4159090  54.1071873
  60.0569045  38.3504652  54.3104749  59.0361585  39.2515357  53.6486406
  61.7526389  37.7324960  51.0675821  61.6740020  37.3984824  51.9611579
  62.5736055  38.2246728  51.0667293  64.4504580  30.5986700  64.2752140
  64.4180900  29.6602701  64.4611823  65.0605203  30.6770737  63.5417964
  56.2887911  29.4682753  50.3179344  57.2347015  29.3388961  50.3867762
  55.9102156  28.7297415  50.7948772  64.5999068  27.3897743  64.3210423
  64.0838117  26.6056200  64.1340352  65.4839017  27.0616460  64.4856942
  62.2609795  21.1338759  60.2806235  62.0634616  20.8253847  61.1649567
  62.8709501  21.8600398  60.4104165  56.1726603  33.5200499  71.7780001
  57.0929613  33.6979098  71.9720047  56.1376186  32.5756544  71.6259700
  54.4730828  27.3932729  50.2534229  53.5662283  27.0965842  50.3296942
  54.7506809  27.0962547  49.3868515  45.3908768  28.7139093  60.7033275
  45.0711552  27.8604401  60.4107649  44.8442196  28.9287671  61.4591243
  49.1688676  31.4301534  64.4202782  49.3874685  32.3618641  64.4390816
  49.5814449  31.0709508  65.2057586  56.0892893  21.9369619  56.4078470
  55.2793622  21.5916704  56.7833716  56.7777310  21.6277163  56.9966082
  58.0183442  21.0147666  58.0302767  58.5714480  21.4343119  58.6892790
  58.2553528  20.0883414  58.0725723  54.0416541  27.0034739  73.8105531
  53.9413268  27.9529096  73.7417622  53.8238083  26.6752978  72.9381601
  53.2429612  24.2519664  50.3946208  54.1048776  24.5774563  50.6542025
  53.4279957  23.4651160  49.8819274  45.2597028  32.3342004  62.6726397
  44.5660500  31.9195957  62.1596351  46.0070019  32.3762541  62.0759816
  61.3962249  23.1248191  57.5381431  60.8160918  23.7832995  57.1559483
  61.1298182  22.3025535  57.1268849  59.8465815  22.5253249  59.7402751
  60.3465594  22.6369783  58.9317070  60.4901423  22.2214301  60.3803560
  53.9047811  30.4331878  72.6270592  53.4214893  31.2332238  72.8334481
  53.9908750  30.4439823  71.6738036  47.1733771  32.2660258  60.5492412
  47.1504459  32.3647945  59.5974295  47.4834407  33.1125409  60.8709578
  49.8321149  34.3236413  64.6639026  50.7864402  34.2920355  64.5968958
  49.6333672  33.8627037  65.4789252  50.4220531  32.8937529  67.2309824
  51.2413420  33.3881608  67.2544661  50.6957338  31.9769497  67.2027391
  60.1787127  25.2848281  56.5937779  59.2912982  25.5697932  56.3757974
  60.5941116  25.1242045  55.7465056  63.5301663  25.3094802  60.3092119
  64.3062053  25.7991255  60.5816735  62.8049797  25.7352856  60.7663988
  65.9674222  26.0222421  61.3666059  66.5618712  25.7818157  60.6559367
  66.0400805  25.3029552  61.9939595  48.1871377  39.8656032  61.6809224
  48.0525845  39.1056433  61.1147222  47.7703440  40.5896932  61.2138013
  59.3230340  35.0492956  50.6885799  60.0266190  35.2542958  51.3043455
  58.5992989  35.6169718  50.9534883  60.1528151  30.8002817  56.8088069
  60.0963352  31.2571369  55.9695702  60.7056493  30.0393502  56.6310912
  63.9632957  26.5892549  57.6338189  63.7069891  26.1889185  58.4646397
  63.3385825  27.3036343  57.5088328  45.6755445  27.2275663  67.9302021
  46.3214308  26.7174617  68.4189246  45.4672596  27.9644344  68.5045446
  58.2008837  34.2956510  73.4294161  59.0699997  34.4697163  73.0680796
  57.7215589  35.1150927  73.3069891  54.1959055  21.4915707  53.6825917
  54.1837725  22.4357547  53.8394188  55.0882477  21.3085853  53.3885378
  58.0111175  18.0858484  57.9371854  57.2443571  17.5316971  58.0828536
  58.4221880  18.1580353  58.7986005  50.0152936  24.3743280  72.0277035
  50.8784397  24.0180085  72.2380360  49.4418347  24.0357175  72.7152439
  62.0333021  48.5668146  54.4699451  62.8063897  48.0197133  54.3312327
  62.3858420  49.4312395  54.6813912  64.3699298  44.7260812  52.1017901
  64.6224819  44.2042333  51.3401364  63.4323858  44.5626957  52.2044584
  64.0895587  46.6288918  54.3042276  63.9731845  45.9533821  54.9723360
  64.1997847  46.1421292  53.4874429  64.8473332  44.8891474  56.2830546
  65.5497376  45.3412518  56.7504473  64.5153961  44.2475293  56.9110439
  60.5413412  43.5119606  58.5431156  59.7444575  43.6238300  59.0614652
  60.3139004  43.8506258  57.6772047  62.5734437  37.7823996  73.0207007
  62.1801382  37.2290195  73.6954651  63.3900577  38.0934575  73.4113524
  62.3661306  39.9108571  59.2323327  62.9405058  39.6883753  58.4996520
  62.9532288  39.9797266  59.9851928  63.4460666  43.3987391  58.2575852
  62.6328531  43.6981561  58.6641045  63.9419660  43.0043079  58.9750335
  60.0217808  44.4151258  56.0631833  59.0915396  44.3535714  56.2801795
  60.1175280  43.8927211  55.2668474  59.9403357  40.9406071  58.6510074
  60.2010174  41.8551404  58.5419235  60.7620529  40.4730514  58.8006687
  70.7232652  49.2454621  70.9125113  70.5718159  49.0165173  69.9955197
  70.7137332  50.2025223  70.9256458  66.8854473  55.9446295  55.0095453
  67.0606228  55.4734338  55.8241076  66.1987261  56.5712061  55.2376714
  65.6464818  42.0898563  60.0685529  65.2762606  41.5369603  60.7566435
  66.1423911  41.4856696  59.5160529  61.0430152  39.5002553  66.3138635
  61.1071478  40.3617384  65.9016033  60.9797272  38.8876555  65.5810994
  57.2947967  43.3802115  55.8930024  57.5901408  42.4712793  55.8397078
  56.3936003  43.3589854  55.5711027  63.6268528  38.7912538  68.1498225
  64.1502929  39.0374835  68.9124534  63.4080861  39.6232573  67.7301362
  59.0235809  41.0616213  56.0169349  58.6948515  40.1813592  55.8344455
  59.3775179  41.0063881  56.9045739  62.1377632  41.3489182  56.3844827
  62.4773704  41.8775104  55.6623436  62.5849752  41.6869589  57.1603394
  64.8321073  39.7326233  65.8347895  64.4917893  38.9334046  66.2368575
  64.1260079  40.0327944  65.2624728  64.8672506  40.4997214  62.1448086
  64.8534075  39.6038308  61.8080384  65.5844934  40.5067878  62.7786372
  64.2709402  39.3811595  57.4135657  64.3925313  38.4528241  57.6126544
  63.9811444  39.3950281  56.5013972  63.7550482  40.8943592  71.6225589
  63.8038637  41.7705715  71.2403359  64.2972996  40.3520985  71.0497232
  71.6506965  44.2708110  69.5318761  72.5516827  44.1314574  69.2402759
  71.7254939  44.4362564  70.4716939  60.2687742  42.7259262  54.0098774
  59.5756986  42.8003617  53.3538810  60.0239493  41.9619606  54.5320291
  64.8810295  42.3326657  73.8105531  64.7807022  43.2821014  73.7417622
  64.6631838  42.0044896  72.9381601  60.8546690  39.7035198  72.0277035
  61.7178152  39.3472002  72.2380360  60.2812101  39.3649092  72.7152439
  73.4128191  53.1115914  73.0207007  73.0195137  52.5582113  73.6954651
  74.2294331  53.4226493  73.4113524  72.2909312  74.4227575  61.7835314
  72.5305911  75.0546100  62.4614332  71.4478509  74.0715615  62.0700673
  91.5388822  76.6628972  62.8339436  92.1767232  76.5435719  62.1302776
  91.4209665  77.6109815  62.8927388  88.3478528  76.6156400  62.7700961
  88.0097040  76.4997464  61.8821496  89.2168296  76.2147565  62.7501967
  84.2065344  78.4691876  58.7597852  83.6430209  78.3781813  57.9914139
  84.0917739  77.6491781  59.2400344  88.8298311  77.7691251  68.7287166
  88.8186952  77.3744050  67.8567670  88.9918951  77.0357324  69.3220938
  81.7529776  79.9643068  61.5982072  82.5451068  79.6233892  61.1828371
  81.9926426  80.0738043  62.5184225  89.7864902  82.1362844  54.0712317
  89.1352882  82.7216924  53.6846330  90.5809265  82.6669039  54.1307354
  83.7120530  79.2251981  54.4699451  84.4851406  78.6780968  54.3312327
  84.0645929  80.0896230  54.6813912  85.5505572  80.5528363  67.6766350
  85.2595438  81.4573994  67.5613017  86.1862557  80.5944891  68.3910420
  86.4761779  77.9305212  64.2667710  87.0725351  77.7061234  63.5524673
  86.5336751  77.1889957  64.8693158  86.0486807  75.3844647  52.1017901
  86.3012328  74.8626168  51.3401364  85.1111367  75.2210792  52.2044584
  91.0930090  74.3880425  59.9092644  91.8793180  73.9699849  59.5583061
  91.3568795  75.2926518  60.0774292  91.2640168  79.8253276  54.6081301
  90.6286001  79.8987902  55.3202206  90.9337574  80.4146875  53.9300380
  96.4938517  74.3255659  60.8125623  97.2263689  73.7554875  61.0463452
  95.7377873  73.9377259  61.2532128  85.7683096  77.2872753  54.3042276
  85.6519354  76.6117656  54.9723360  85.8785356  76.8005127  53.4874429
  88.1114637  76.7482900  58.0088965  87.7472844  76.2213521  58.7201887
  88.9681753  76.3581369  57.8355450  90.5095457  80.2389779  64.6716144
  90.2096180  81.1414818  64.5631951  90.1646517  79.9721962  65.5237297
  83.9607939  76.6903576  60.7052848  83.0358435  76.5579790  60.9130540
  84.2092352  77.4697795  61.2022791  93.9092601  72.7572319  62.3513581
  93.0009478  72.6887727  62.0572342  93.8580197  73.2344264  63.1795407
  87.7309345  74.2330457  53.9896980  87.6108970  74.6787508  54.8282461
  87.0361933  74.5815775  53.4310519  81.3216750  76.3336849  61.5396637
  81.4509131  76.5871328  62.4536049  80.6414201  76.9264557  61.2201293
  85.4916237  87.0034099  57.6387112  85.4140267  87.9541924  57.7175592
  84.8877881  86.6579972  58.2962038  87.9833467  74.1761964  70.2948479
  87.2066801  74.7355885  70.2851343  88.6224030  74.6618747  70.8163349
  95.7754247  70.9588757  64.1291455  95.1328628  71.2521290  63.4831250
  95.2709176  70.8441678  64.9344652  93.4294411  74.7051930  54.8177314
  94.3412267  74.9379317  54.6425012  92.9204058  75.2888975  54.2552393
  86.2379839  76.9847418  69.8566446  86.9794524  77.5232462  69.5801269
  85.5316825  77.6113707  70.0137997  91.7135179  79.1276558  68.4538607
  92.1218535  78.6858969  67.7093239  90.9912440  78.5529186  68.7072800
  88.0666249  74.0649165  65.8272164  88.9127444  74.4888579  65.9706813
  88.0064887  73.4082789  66.5210727  92.0363993  79.6877749  62.2090896
  91.4072856  79.8523463  61.5066964  91.6489656  80.1019358  62.9801860
  95.9153225  80.6232187  59.5635260  95.2304263  81.0031088  59.0132293
  95.9997075  81.2327513  60.2967207  91.2165694  71.7253533  67.4853338
  90.9726626  72.4795594  66.9487613  91.4925625  72.1038881  68.3200585
  93.1704157  78.2692146  66.1630603  93.3821052  78.9123906  65.4864984
  93.1233905  77.4354462  65.6952533  90.7730386  70.8809966  63.0667175
  89.9114865  71.1791220  63.3583913  90.7992821  71.0980365  62.1348208
  87.5891955  79.4252157  59.4740981  88.0530301  79.7039860  58.6845604
  87.3248753  78.5235602  59.2914072  84.4816036  78.9723639  62.4120744
  85.0517393  79.4010907  61.7738229  85.0724148  78.6906223  63.1104930
  86.5260841  75.5475309  56.2830546  87.2284885  75.9996353  56.7504473
  86.1941470  74.9059128  56.9110439  84.9741203  74.1387066  70.6581756
  84.3439863  74.8203347  70.8917152  84.8677291  74.0270148  69.7134894
  80.2686175  73.8058862  61.5847680  79.4785229  74.0616391  61.1087790
  80.7597423  74.6207200  61.6899720  94.2849985  81.1464101  64.3352961
  95.1067429  80.7444288  64.0535642  94.2812388  81.0432335  65.2869076
  88.0506588  80.6948145  66.4913671  88.1151021  81.1568552  67.3271843
  87.3417512  80.0645509  66.6195981  78.5523878  74.0589352  64.0162671
  78.8031917  74.9436362  64.2820246  79.0883427  73.8793954  63.2437762
 102.3755978  77.4902850  60.6837932 101.6219686  76.9210248  60.5281936
 102.5103519  77.4565514  61.6308567  87.7654606  82.3616252  56.3592651
  87.6300281  83.2067788  56.7877499  88.3064419  82.5635530  55.5958585
  84.2521946  68.4407832  73.0207007  83.8588891  67.8874030  73.6954651
  85.0688086  68.7518410  73.4113524  83.0278888  82.9957446  59.0143330
  83.2045516  83.9175411  58.8264314  83.8235722  82.6815866  59.4437709
  82.3131245  75.0422078  68.8905493  82.1984760  74.1407335  69.1912592
  81.4575762  75.2885775  68.5390309  89.3923082  82.9839819  70.4892993
  88.9486937  82.1976197  70.1713898  90.0540296  83.1718969  69.8236884
  84.1510204  84.5135620  65.0153672  84.7017629  84.3852683  64.2430666
  83.3121679  84.8130509  64.6648565  91.4904320  83.2642618  68.5174395
  91.4722796  84.0851499  68.0254664  92.4124240  83.1396694  68.7424536
  87.9477375  80.7786748  69.3597903  88.4805711  80.0175036  69.1297211
  87.4191456  80.4860400  70.1022058  91.0797352  75.8755425  53.3963980
  90.5643976  76.6460030  53.6352367  90.8074661  75.2020561  54.0197041
  88.6644463  70.7205126  58.4549218  87.8086060  70.3311976  58.2754857
  89.0771415  70.7997087  57.5949004  96.0531626  78.6287780  55.3317153
  95.2761069  78.2898939  54.8872316  96.7323107  78.6340403  54.6572118
  90.8683655  73.7482517  55.2223761  90.5633791  74.0628666  56.0733904
  91.8214098  73.8263937  55.2651094  89.3130087  79.9072740  56.8716715
  88.7851449  79.1725500  56.5589953  88.8117590  80.6847417  56.6256683
  94.2922933  78.1021761  61.9883761  93.6346608  78.7921022  62.0763890
  95.0963333  78.4918193  62.3317748  93.1028392  76.4566134  60.0387703
  93.6160274  77.0896125  60.5409413  93.7529616  75.8567329  59.6731063
  87.4582687  77.7252951  49.8751688  86.5509749  77.4942204  50.0742837
  87.9553719  76.9290570  50.0625670  90.3650766  86.4350458  52.7948374
  89.6912465  86.7382155  53.4033332  90.7516588  87.2379538  52.4453831
  89.5809223  73.9315589  62.2846044  88.6631784  74.1530536  62.1267732
  89.9969367  74.0061900  61.4257751  90.3644271  75.3307005  57.4148724
  91.1116090  75.8428402  57.1055846  90.6335860  75.0091058  58.2753118
  88.6370921  77.8265546  54.3975678  87.7282140  77.5424578  54.4948148
  88.6666005  78.2464624  53.5378985  93.8690188  81.4372135  58.1666846
  93.4152515  80.5963045  58.2232036  93.2384155  82.0733533  58.5041626
  92.8123108  72.3664121  59.3967513  92.0745865  71.8541507  59.7277756
  93.0649881  71.9264503  58.5850790  92.3123128  83.2748632  59.1016664
  92.6046102  83.8353689  58.3829030  92.8221748  83.5677193  59.8569823
  87.1855815  75.4394166  60.4985474  87.2404425  74.4868003  60.4227950
  86.3747017  75.5953605  60.9826772  88.3347009  79.3674289  51.7363757
  87.8966439  78.6510148  51.2769394  89.0757450  79.5950404  51.1748848
  85.1248175  74.0571226  58.2575852  84.3116040  74.3565396  58.6641045
  85.6207169  73.6626915  58.9750335  87.2756753  84.0528983  60.1910117
  87.2332932  84.2789829  59.2618649  88.1919452  83.8192357  60.3395918
  90.7222387  74.5213050  67.0890746  91.0771774  74.7484523  67.9485212
  91.3694518  74.8531427  66.4668002  96.4520124  77.6431486  57.7940075
  96.3138022  77.8333082  56.8661265  96.0956342  78.4050869  58.2508127
  84.6162250  71.6289581  63.8737087  85.2561629  71.4878340  63.1760051
  83.7839780  71.3424095  63.4975689  96.4789503  79.7108013  62.8051347
  96.9126010  79.6183302  63.6534401  97.1921084  79.6865514  62.1671363
  85.3922554  80.9292012  59.9872080  86.1863152  80.4342332  59.7854655
  84.6814246  80.4009875  59.6239785  90.2117398  83.3110107  64.3384447
  90.2654420  83.8801044  65.1062163  89.3432179  83.4811992  63.9738485
  83.0915791  73.0127664  65.8208899  83.7638845  72.8045026  65.1721548
  82.2645578  72.8149750  65.3814131  97.3405053  79.7531714  65.3384232
  97.5340943  80.6577524  65.5843507  97.2405671  79.2939133  66.1722817
  92.4020161  79.9038457  70.9125113  92.2505668  79.6749008  69.9955197
  92.3924841  80.8609058  70.9256458  89.1705498  77.4770369  65.8971379
  90.0997558  77.6281529  65.7240347  88.7496528  77.5654390  65.0420026
  87.9693830  81.5021034  63.6669917  87.8304915  81.1339818  64.5395855
  87.1808426  82.0168673  63.4953875  88.5641982  86.6030130  55.0095453
  88.7393737  86.1318173  55.8241076  87.8774770  87.2295896  55.2376714
  89.5199045  80.8802636  61.0558755  89.1848877  80.8403406  61.9516405
  89.0202990  80.2147352  60.5829165  83.4943289  76.2870267  66.5811336
  83.3563087  75.5550505  67.1822875  84.4048212  76.1979167  66.2995524
  92.4558236  78.2258671  51.3295814  91.8387407  77.5005499  51.2328867
  91.9874725  78.9868031  50.9862889  86.1225589  75.9990226  66.0695016
  86.8325208  75.3583418  66.0281634  86.0794897  76.2503121  66.9921196
  94.1112368  82.9357579  68.9901595  94.0524914  82.2516799  68.3232178
  94.5131886  83.6776569  68.5382221  84.8354523  72.9855444  67.8890655
  84.2991880  72.5346182  68.5412251  84.2471232  73.1201353  67.1461119
  83.1303067  89.7519493  61.7835314  83.3699665  90.3838017  62.4614332
  82.2872263  89.4007533  62.0700673  94.1129775  80.8997163  67.2215574
  93.2256554  80.5623085  67.3441973  94.6828326  80.1680194  67.4584340
  75.7658922  77.2321255  60.5458626  76.4529962  76.9182985  59.9579641
  75.6107051  78.1362620  60.2725877  87.6430929  85.5598615  64.1876818
  87.5701100  86.3653587  64.6996122  87.2008322  85.7590581  63.3624839
  87.4320708  84.7970386  57.6979639  86.6488230  85.3392066  57.7917864
  88.1313453  85.3144365  58.0973880  98.5947116  76.3105380  61.9832136
  98.5836992  77.1930096  61.6126069  97.7264495  75.9576931  61.7886673
  90.1029612  85.4585450  66.3434976  90.8157584  86.0932914  66.2710878
  89.6119641  85.5549316  65.5274978  91.8247139  79.3636702  57.9152268
  90.8903418  79.4838165  57.7456972  92.0023808  78.4609169  57.6512278
  87.3252327  72.7482398  60.0685529  86.9550115  72.1953438  60.7566435
  87.8211420  72.1440531  59.5160529  95.2119690  75.2054021  58.4502302
  95.6780143  76.0382013  58.3762605  95.6627191  74.7399003  59.1547561
  85.1541526  83.2079893  67.1640547  85.8550985  83.8416376  67.3169941
  84.6836641  83.5494625  66.4036186  93.2795922  81.5497843  55.4488454
  93.5555765  81.4354437  56.3582328  92.4100420  81.1515328  55.4100627
  92.9542812  75.7624500  64.9893097  92.3014262  76.0100408  64.3345550
  93.3323192  74.9488639  64.6555575  89.9149986  85.7984194  59.0921268
  90.0972380  84.9805850  59.5549020  90.7382972  86.0151886  58.6546158
  90.2492151  84.7252379  56.3536316  90.7779917  84.2144833  55.7406478
  90.5120371  84.4094909  57.2181849  89.0030385  76.5044311  71.4759135
  88.3271022  76.4038441  72.1461510  89.8258019  76.3483525  71.9395132
  80.7509244  82.7416248  64.0971650  81.3362681  81.9959936  64.2299554
  80.5534082  83.0520205  64.9808314  83.6047899  85.7767495  59.1134092
  82.9358274  86.2613623  58.6298132  83.4660769  86.0236716  60.0277471
  75.3426899  75.3121848  62.8176093  75.3810998  74.7785439  63.6113211
  74.8367191  74.7857054  62.1987070  87.7453168  87.8111239  65.7116751
  88.2971476  87.9742860  66.4765836  88.0859361  88.4015677  65.0396775
  92.5964042  82.6372496  71.5665405  93.1403946  83.2502455  71.0720360
  92.0150887  83.1952075  72.0832418  90.8821555  85.7593214  62.6980433
  90.7572694  84.9582954  62.1891378  91.5400646  86.2539408  62.2094403
  82.5029723  72.1141947  61.8757573  81.7816309  72.7277915  61.7365046
  83.2922979  72.6499712  61.7974219  92.9456463  83.5602235  64.3259983
  91.9986799  83.4407586  64.2538310  93.2939236  82.6724733  64.4086244
  89.9502897  83.3554951  60.5264335  89.8027859  82.4271658  60.7071905
  90.7756390  83.3775041  60.0421410  93.5537018  84.1783509  61.6129208
  94.4783566  83.9726371  61.4753659  93.3852322  83.9299911  62.5218549
  84.6863632  74.1678502  62.0967197  84.5408213  74.4818805  62.9891478
  84.2088836  74.7863402  61.5438095  86.5460015  71.1581050  62.1448086
  86.5321584  70.2622143  61.8080384  87.2632443  71.1651713  62.7786372
  88.3986146  71.5918390  64.1901214  88.1403924  72.5135460  64.1885544
  87.8671186  71.1948824  64.8801678  93.3432335  84.6969177  56.9691299
  93.5169212  84.1315599  56.2165152  93.8361226  85.4970072  56.7870789
  79.1609294  76.7083846  65.0354858  78.6162762  77.4843654  65.1675132
  80.0388644  77.0554651  64.8773979  99.1971726  77.4605600  58.5881599
  99.6402872  76.7112925  58.1900722  98.3198236  77.4515736  58.2055331
  94.3307507  84.0135941  54.0688198  95.0258412  84.6342634  54.2875512
  94.6730657  83.1631293  54.3440575  79.9475316  75.8353742  67.9285015
  79.2057052  75.9836378  68.5149645  79.6268061  76.0962008  67.0651764
  96.2298930  81.4635647  55.5975528  96.7550254  81.8022920  54.8724848
  96.1421283  80.5282662  55.4138663  87.8918979  85.3769721  67.7265405
  88.2006105  85.1318867  68.5988104  88.6894461  85.5816359  67.2384275
  87.9139591  87.5307630  59.9570781  87.4744581  87.0384009  60.6503638
  88.6647708  86.9880598  59.7162857  80.3931930  83.7219171  59.9595410
  81.2189950  83.4222943  59.5794053  80.0425982  82.9526793  60.4085198
  85.3613463  83.0745639  62.0293083  84.7393472  82.4116344  61.7295311
  86.0318330  83.1006771  61.3466731  78.5940535  81.6405497  60.9184343
  77.7572443  81.2127672  60.7368344  78.5664180  81.8337941  61.8555134
  85.4337991  71.5527427  71.6225589  85.4826146  72.4289550  71.2403359
  85.9760505  71.0104820  71.0497232  95.9192836  82.0968551  70.9026726
  95.1288380  82.0792689  70.3631226  95.6826191  82.6356844  71.6575763
  96.0390711  78.9461017  68.2159455  96.0888716  78.7811024  69.1574978
  95.9304635  78.0788276  67.8257336  84.9226970  81.6249563  55.5051544
  85.0715090  82.3085027  54.8518216  85.7293413  81.6054653  56.0200999
  93.3294474  74.9291945  69.5318761  94.2304336  74.7898410  69.2402759
  93.4042448  75.0946400  70.4716939  87.6637279  72.3058800  68.3771948
  86.7940588  72.5992366  68.1054536  87.8996759  72.8899245  69.0979211
  97.5408908  81.3657958  68.4601476  97.2493716  81.7287939  69.2964937
  96.9281039  80.6524967  68.2814808  98.7404590  78.9310838  60.9804047
  99.5751482  79.3700642  61.1441607  98.8763719  78.4549491  60.1612292
  95.7896096  76.4890573  66.9281534  96.2650218  76.6818219  66.1200386
  94.8661662  76.5449759  66.6824918  88.4222376  84.1197693  52.9763291
  87.8496343  84.7387880  52.5233763  88.9955169  84.6697055  53.5103213
  94.4897765  73.3656333  65.1609840  95.4415188  73.4654431  65.1822064
  94.3201216  72.5734602  65.6707924  92.5112145  70.4511916  65.3469241
  91.9162077  70.7316929  64.6515729  92.2261842  70.9405817  66.1185982
  91.6419635  84.4034843  54.1071873  92.5750308  84.3380405  54.3104749
  91.5542848  85.2391110  53.6486406  94.2707652  83.7200714  51.0675821
  94.1921284  83.3860577  51.9611579  95.0917319  84.2122481  51.0667293
  96.9685843  76.5862453  64.2752140  96.9362163  75.6478454  64.4611823
  97.5786467  76.6646490  63.5417964  88.8069174  75.4558506  50.3179344
  89.7528279  75.3264714  50.3867762  88.4283419  74.7173168  50.7948772
  97.1180332  73.3773496  64.3210423  96.6019380  72.5931953  64.1340352
  98.0020280  73.0492213  64.4856942 102.7862393  77.6478460  63.4158176
 103.5165782  77.3863748  63.9765880 102.1769339  76.9107182  63.4560244
 100.8677690  75.7886322  64.0132628 100.1410854  75.6542287  63.4049119
 100.4524977  76.0963151  64.8189346  88.6907867  79.5076252  71.7780001
  89.6110876  79.6854851  71.9720047  88.6557450  78.5632297  71.6259700
  77.9090032  74.7014846  60.7033275  77.5892816  73.8480154  60.4107649
  77.3623460  74.9163424  61.4591243  81.6869939  77.4177287  64.4202782
  81.9055949  78.3494394  64.4390816  82.0995713  77.0585261  65.2057586
  86.5597804  72.9910492  73.8105531  86.4594531  73.9404849  73.7417622
  86.3419346  72.6628731  72.9381601  77.7778292  78.3217757  62.6726397
  77.0841763  77.9071710  62.1596351  78.5251283  78.3638294  62.0759816
  93.9143512  69.1123944  57.5381431  93.3342181  69.7708748  57.1559483
  93.6479445  68.2901288  57.1268849  92.3647079  68.5129002  59.7402751
  92.8646857  68.6245536  58.9317070  93.0082687  68.2090054  60.3803560
  86.4229074  76.4207631  72.6270592  85.9396156  77.2207991  72.8334481
  86.5090014  76.4315576  71.6738036  82.3502412  80.3112166  64.6639026
  83.3045666  80.2796108  64.5968958  82.1514936  79.8502790  65.4789252
  82.9401794  78.8813282  67.2309824  83.7594683  79.3757361  67.2544661
  83.2138602  77.9645250  67.2027391  92.6968390  71.2724034  56.5937779
  91.8094245  71.5573685  56.3757974  93.1122379  71.1117798  55.7465056
  96.0482926  71.2970555  60.3092119  96.8243317  71.7867008  60.5816735
  95.3231061  71.7228609  60.7663988  98.4855485  72.0098174  61.3666059
  99.0799976  71.7693910  60.6559367  98.5582069  71.2905305  61.9939595
  80.7052641  85.8531785  61.6809224  80.5707109  85.0932186  61.1147222
  80.2884703  86.5772685  61.2138013  91.8411604  81.0368709  50.6885799
  92.5447454  81.2418711  51.3043455  91.1174253  81.6045471  50.9534883
  92.6709414  76.7878570  56.8088069  92.6144615  77.2447122  55.9695702
  93.2237757  76.0269255  56.6310912  96.4814220  72.5768302  57.6338189
  96.2251154  72.1764938  58.4646397  95.8567088  73.2912096  57.5088328
 100.7926558  75.3164375  60.1409480 100.2326116  75.3857565  60.9141042
 100.1870061  75.1405360  59.4208977  83.8621767  86.7501102  61.8927667
  83.7454151  87.6946535  61.7906357  83.0414213  86.4474664  62.2813466
  93.7498301  81.4751238  52.7384259  94.5843905  81.0432437  52.5561734
  93.5882644  81.3033252  53.6661154  93.4044193  77.9783351  54.1040599
  93.3492997  77.8127623  53.1629043  92.7790249  78.6859384  54.2602788
  78.1936708  73.2151416  67.9302021  78.8395572  72.7050370  68.4189246
  77.9853859  73.9520097  68.5045446  90.7190101  80.2832263  73.4294161
  91.5881260  80.4572916  73.0680796  90.2396852  81.1026680  73.3069891
  84.8876281  87.4029364  65.1083595  85.7903527  87.4352975  65.4250090
  84.6613651  86.4729815  65.1229931  86.6429883  86.1560351  61.7693674
  85.6925514  86.1562212  61.6558046  86.9462369  85.4093085  61.2529708
 102.3782576  91.9920889  62.8339436 103.0160986  91.8727637  62.1302776
 102.2603419  92.9401733  62.8927388  99.1872283  91.9448317  62.7700961
  98.8490794  91.8289382  61.8821496 100.0562051  91.5439482  62.7501967
  95.0459098  93.7983794  58.7597852  94.4823963  93.7073731  57.9914139
  94.9311493  92.9783698  59.2400344  99.6692066  93.0983169  68.7287166
  99.6580706  92.7035967  67.8567670  99.8312705  92.3649242  69.3220938
  92.5923530  95.2934985  61.5982072  93.3844822  94.9525810  61.1828371
  92.8320180  95.4029960  62.5184225 100.6258657  97.4654761  54.0712317
  99.9746637  98.0508842  53.6846330 101.4203020  97.9960956  54.1307354
  94.5514284  94.5543899  54.4699451  95.3245160  94.0072886  54.3312327
  94.9039683  95.4188148  54.6813912  96.3899327  95.8820281  67.6766350
  96.0989193  96.7865912  67.5613017  97.0256311  95.9236808  68.3910420
  97.3155534  93.2597129  64.2667710  97.9119106  93.0353152  63.5524673
  97.3730505  92.5181875  64.8693158  96.8880562  90.7136565  52.1017901
  97.1406083  90.1918086  51.3401364  95.9505121  90.5502710  52.2044584
 101.9323845  89.7172343  59.9092644 102.7186934  89.2991766  59.5583061
 102.1962549  90.6218435  60.0774292 102.1033922  95.1545193  54.6081301
 101.4679755  95.2279820  55.3202206 101.7731329  95.7438792  53.9300380
 107.3332272  89.6547576  60.8125623 108.0657444  89.0846793  61.0463452
 106.5771628  89.2669177  61.2532128  96.6076851  92.6164671  54.3042276
  96.4913109  91.9409574  54.9723360  96.7179111  92.1297045  53.4874429
  98.9508392  92.0774818  58.0088965  98.5866599  91.5505439  58.7201887
  99.8075508  91.6873287  57.8355450 104.8557692  83.3669150  65.2720231
 104.5241017  84.2364561  65.0481446 104.2603306  83.0505434  65.9514262
  98.5913879  87.1064717  53.0050314  98.7588281  87.9744954  53.3720785
  98.4011048  87.2691999  52.0811603 101.3489212  95.5681696  64.6716144
 101.0489935  96.4706735  64.5631951 101.0040271  95.3013880  65.5237297
  94.8001693  92.0195493  60.7052848  93.8752190  91.8871707  60.9130540
  95.0486106  92.7989712  61.2022791 104.7486356  88.0864237  62.3513581
 103.8403233  88.0179645  62.0572342 104.6973951  88.5636181  63.1795407
  98.5703099  89.5622375  53.9896980  98.4502725  90.0079426  54.8282461
  97.8755688  89.9107693  53.4310519  92.1610504  91.6628767  61.5396637
  92.2902885  91.9163246  62.4536049  91.4807956  92.2556475  61.2201293
  96.3309992 102.3326017  57.6387112  96.2534021 103.2833842  57.7175592
  95.7271635 101.9871889  58.2962038  98.8227221  89.5053882  70.2948479
  98.0460555  90.0647802  70.2851343  99.4617784  89.9910665  70.8163349
 106.6148002  86.2880675  64.1291455 105.9722382  86.5813208  63.4831250
 106.1102930  86.1733595  64.9344652 104.2688166  90.0343848  54.8177314
 105.1806022  90.2671235  54.6425012 103.7597813  90.6180892  54.2552393
  97.0773594  92.3139336  69.8566446  97.8188278  92.8524379  69.5801269
  96.3710579  92.9405624  70.0137997 102.5528933  94.4568476  68.4538607
 102.9612289  94.0150886  67.7093239 101.8306195  93.8821103  68.7072800
  98.9060003  89.3941083  65.8272164  99.7521199  89.8180496  65.9706813
  98.8458641  88.7374707  66.5210727 102.8757748  95.0169667  62.2090896
 102.2466610  95.1815381  61.5066964 102.4883410  95.4311276  62.9801860
 106.7546980  95.9524104  59.5635260 106.0698018  96.3323006  59.0132293
 106.8390829  96.5619431  60.2967207 102.0559449  87.0545451  67.4853338
 101.8120381  87.8087512  66.9487613 102.3319379  87.4330799  68.3200585
 104.0097911  93.5984063  66.1630603 104.2214807  94.2415823  65.4864984
 103.9627660  92.7646380  65.6952533 101.6124140  86.2101884  63.0667175
 100.7508619  86.5083138  63.3583913 101.6386575  86.4272283  62.1348208
  98.4285710  94.7544075  59.4740981  98.8924055  95.0331778  58.6845604
  98.1642508  93.8527519  59.2914072  95.3209791  94.3015556  62.4120744
  95.8911148  94.7302825  61.7738229  95.9117903  94.0198141  63.1104930
  97.3654596  90.8767227  56.2830546  98.0678639  91.3288271  56.7504473
  97.0335224  90.2351046  56.9110439  95.8134957  89.4678984  70.6581756
  95.1833618  90.1495265  70.8917152  95.7071045  89.3562065  69.7134894
  91.1079930  89.1350780  61.5847680  90.3178984  89.3908308  61.1087790
  91.5991177  89.9499118  61.6899720 105.1243739  96.4756019  64.3352961
 105.9461183  96.0736206  64.0535642 105.1206142  96.3724253  65.2869076
  93.0594675  89.4995359  58.5431156  92.2625838  89.6114053  59.0614652
  92.8320267  89.8382011  57.6772047  98.8900343  96.0240062  66.4913671
  98.9544775  96.4860469  67.3271843  98.1811267  95.3937427  66.6195981
  89.3917633  89.3881270  64.0162671  89.6425671  90.2728280  64.2820246
  89.9277181  89.2085872  63.2437762 113.2149732  92.8194767  60.6837932
 112.4613441  92.2502165  60.5281936 113.3497274  92.7857432  61.6308567
  98.6048360  97.6908170  56.3592651  98.4694035  98.5359705  56.7877499
  99.1458173  97.8927447  55.5958585  95.0915700  83.7699750  73.0207007
  94.6982646  83.2165948  73.6954651  95.9081840  84.0810328  73.4113524
  92.0577758  95.2083608  56.9320576  92.5702278  96.0026858  57.0826141
  92.7100471  94.5109898  56.8654178  93.8672643  98.3249364  59.0143330
  94.0439271  99.2467329  58.8264314  94.6629476  98.0107783  59.4437709
  98.0083661  85.1857629  70.6127263  98.7493374  85.7864782  70.5331726
  98.2401584  84.4435266  70.0545306  93.1524999  90.3713996  68.8905493
  93.0378514  89.4699253  69.1912592  92.2969517  90.6177693  68.5390309
 100.2316837  98.3131736  70.4892993  99.7880691  97.5268115  70.1713898
 100.8934050  98.5010887  69.8236884  94.9903958  99.8427538  65.0153672
  95.5411383  99.7144601  64.2430666  94.1515434 100.1422427  64.6648565
 102.3298075  98.5934536  68.5174395 102.3116550  99.4143417  68.0254664
 103.2517995  98.4688611  68.7424536  98.7871129  96.1078666  69.3597903
  99.3199466  95.3466954  69.1297211  98.2585210  95.8152317  70.1022058
 101.9540824  81.2138732  64.8891545 101.6105093  82.1040373  64.8130655
 102.3219787  81.0240389  64.0261130  90.0226675  93.5372262  57.7080147
  90.8601897  93.9469270  57.4913855  90.2004942  92.5971704  57.6780341
 101.9191107  91.2047343  53.3963980 101.4037730  91.9751947  53.6352367
 101.6468415  90.5312479  54.0197041  99.5038218  86.0497043  58.4549218
  98.6479814  85.6603894  58.2754857  99.9165170  86.1289004  57.5949004
 101.0337364  83.5843387  62.8540778 100.5302160  83.5473522  62.0408583
 101.3267971  84.4936129  62.9137435  97.2780250  83.6682116  61.8606960
  98.1433247  83.4724925  61.5012849  97.3457759  83.4392468  62.7876317
 106.8925381  93.9579697  55.3317153 106.1154824  93.6190857  54.8872316
 107.5716862  93.9632320  54.6572118 101.7077410  89.0774435  55.2223761
 101.4027546  89.3920584  56.0733904 102.6607852  89.1555855  55.2651094
 100.1523842  95.2364658  56.8716715  99.6245203  94.5017418  56.5589953
  99.6511345  96.0139334  56.6256683 105.1316688  93.4313679  61.9883761
 104.4740362  94.1212940  62.0763890 105.9357087  93.8210110  62.3317748
  94.8842569  85.8984324  59.2323327  95.4586321  85.6759506  58.4996520
  95.4713552  85.9673019  59.9851928 103.9422147  91.7858051  60.0387703
 104.4554028  92.4188043  60.5409413 104.5923371  91.1859247  59.6731063
  95.2112157  87.9288785  53.2519212  94.3749469  88.2663472  53.5728487
  95.0716926  87.7937765  52.3146349  97.1865237  82.7725573  57.9598396
  96.5329649  82.4574590  57.3355011  97.1445711  82.1501314  58.6858219
  98.2976442  93.0544868  49.8751688  97.3903504  92.8234122  50.0742837
  98.7947474  92.2582488  50.0625670 101.2044521 101.7642376  52.7948374
 100.5306220 102.0674072  53.4033332 101.5910343 102.5671456  52.4453831
 100.4202977  89.2607507  62.2846044  99.5025539  89.4822454  62.1267732
 100.8363121  89.3353817  61.4257751 101.2038025  90.6598922  57.4148724
 101.9509844  91.1720320  57.1055846 101.4729615  90.3382975  58.2753118
  99.4764675  93.1557463  54.3975678  98.5675895  92.8716496  54.4948148
  99.5059759  93.5756542  53.5378985 104.7083943  96.7664053  58.1666846
 104.2546270  95.9254963  58.2232036 104.0777910  97.4025451  58.5041626
 103.6516862  87.6956039  59.3967513 102.9139619  87.1833425  59.7277756
 103.9043636  87.2556420  58.5850790 103.1516882  98.6040549  59.1016664
 103.4439856  99.1645606  58.3829030 103.6615503  98.8969110  59.8569823
 103.7528490  80.4732291  59.9909283 104.0587367  79.6129654  59.7035198
 104.4781095  81.0649911  59.7908276  90.0452846  90.8762977  58.3790880
  89.8477246  90.2832338  57.6541947  89.4899510  90.5715188  59.0966819
  98.0249569  90.7686084  60.4985474  98.0798179  89.8159920  60.4227950
  97.2140771  90.9245523  60.9826772  99.1740763  94.6966207  51.7363757
  98.7360193  93.9802066  51.2769394  99.9151204  94.9242322  51.1748848
  95.9641929  89.3863144  58.2575852  95.1509795  89.6857314  58.6641045
  96.4600924  88.9918832  58.9750335  98.1150507  99.3820900  60.1910117
  98.0726686  99.6081747  59.2618649  99.0313206  99.1484275  60.3395918
 101.5616141  89.8504968  67.0890746 101.9165529  90.0776441  67.9485212
 102.2088272  90.1823345  66.4668002 107.2913878  92.9723404  57.7940075
 107.1531777  93.1625000  56.8661265 106.9350097  93.7342787  58.2508127
  95.4556004  86.9581499  63.8737087  96.0955383  86.8170258  63.1760051
  94.6233535  86.6716012  63.4975689 107.3183258  95.0399931  62.8051347
 107.7519764  94.9475220  63.6534401 108.0314838  95.0157431  62.1671363
  96.2316308  96.2583929  59.9872080  97.0256907  95.7634250  59.7854655
  95.5208000  95.7301793  59.6239785 101.0511153  98.6402025  64.3384447
 101.1048175  99.2092961  65.1062163 100.1825934  98.8103910  63.9738485
  92.5399072  90.4027011  56.0631833  91.6096660  90.3411467  56.2801795
  92.6356543  89.8802964  55.2668474  92.4584621  86.9281824  58.6510074
  92.7191438  87.8427157  58.5419235  93.2801793  86.4606267  58.8006687
  93.9309546  88.3419581  65.8208899  94.6032599  88.1336943  65.1721548
  93.1039332  88.1441667  65.3814131 108.1798807  95.0823632  65.3384232
 108.3734697  95.9869442  65.5843507 108.0799425  94.6231051  66.1722817
  99.8335118  84.9681522  67.8374560  99.1863033  85.6671472  67.7439036
 100.6036133  85.4017666  68.2050808 103.2413916  95.2330374  70.9125113
 103.0899422  95.0040926  69.9955197 103.2318595  96.1900976  70.9256458
 100.0099252  92.8062287  65.8971379 100.9391312  92.9573447  65.7240347
  99.5890282  92.8946308  65.0420026  98.8087584  96.8312951  63.6669917
  98.6698670  96.4631736  64.5395855  98.0202180  97.3460591  63.4953875
  99.4035736 101.9322048  55.0095453  99.5787492 101.4610091  55.8241076
  98.7168524 102.5587814  55.2376714 100.3592799  96.2094554  61.0558755
 100.0242632  96.1695324  61.9516405  99.8596745  95.5439270  60.5829165
  94.3337043  91.6162184  66.5811336  94.1956841  90.8842423  67.1822875
  95.2441967  91.5271084  66.2995524 103.2951991  93.5550589  51.3295814
 102.6781161  92.8297417  51.2328867 102.8268479  94.3159949  50.9862889
  96.9619344  91.3282144  66.0695016  97.6718962  90.6875336  66.0281634
  96.9188652  91.5795038  66.9921196 104.9506122  98.2649497  68.9901595
 104.8918669  97.5808717  68.3232178 105.3525641  99.0068487  68.5382221
  95.6748278  88.3147361  67.8890655  95.1385635  87.8638100  68.5412251
  95.0864986  88.4493270  67.1461119  93.9696821 105.0811411  61.7835314
  94.2093420 105.7129935  62.4614332  93.1266018 104.7299451  62.0700673
  95.0850537  87.7736013  50.4517119  94.2080003  87.6524814  50.0879365
  95.5608290  86.9822091  50.1996007 104.9523530  96.2289081  67.2215574
 104.0650309  95.8915003  67.3441973 105.5222081  95.4972112  67.4584340
  86.6052677  92.5613173  60.5458626  87.2923717  92.2474903  59.9579641
  86.4500806  93.4654537  60.2725877  91.4087399  87.4503369  64.9743650
  91.3245588  86.8429039  64.2394059  90.5870105  87.9412387  64.9753146
  98.4824683 100.8890533  64.1876818  98.4094855 101.6945505  64.6996122
  98.0402076 101.0882499  63.3624839  98.2714463 100.1262303  57.6979639
  97.4881985 100.6683983  57.7917864  98.9707208 100.6436283  58.0973880
 101.5811113  85.9356933  60.3413845 102.0779812  85.1826895  60.0214915
 100.8098094  85.9721249  59.7757054 109.4340870  91.6397298  61.9832136
 109.4230747  92.5222014  61.6126069 108.5658250  91.2868849  61.7886673
 100.9423367 100.7877367  66.3434976 101.6551339 101.4224832  66.2710878
 100.4513395 100.8841233  65.5274978 102.6640894  94.6928620  57.9152268
 101.7297172  94.8130082  57.7456972 102.8417562  93.7901087  57.6512278
  98.1646082  88.0774316  60.0685529  97.7943869  87.5245356  60.7566435
  98.6605174  87.4732449  59.5160529 106.0513445  90.5345939  58.4502302
 106.5173897  91.3673931  58.3762605 106.5020945  90.0690921  59.1547561
  95.9935280  98.5371811  67.1640547  96.6944740  99.1708294  67.3169941
  95.5230395  98.8786542  66.4036186 104.1189676  96.8789760  55.4488454
 104.3949520  96.7646355  56.3582328 103.2494175  96.4807245  55.4100627
 104.0230108  82.9026526  62.4893203 103.1093187  83.1330753  62.6575410
 104.4523209  82.9864970  63.3407236 103.7936566  91.0916418  64.9893097
 103.1408016  91.3392326  64.3345550 104.1716946  90.2780556  64.6555575
 100.7543740 101.1276111  59.0921268 100.9366135 100.3097767  59.5549020
 101.5776726 101.3443804  58.6546158 101.0885906 100.0544296  56.3536316
 101.6173672  99.5436751  55.7406478 101.3514125  99.7386827  57.2181849
  99.8424139  91.8336229  71.4759135  99.1664776  91.7330358  72.1461510
 100.6651773  91.6775443  71.9395132  91.5902998  98.0708166  64.0971650
  92.1756435  97.3251854  64.2299554  91.3927837  98.3812122  64.9808314
  94.4441653 101.1059413  59.1134092  93.7752029 101.5905541  58.6298132
  94.3054523 101.3528634  60.0277471  86.1820653  90.6413766  62.8176093
  86.2204753  90.1077357  63.6113211  85.6760946  90.1148971  62.1987070
  98.5846922 103.1403157  65.7116751  99.1365230 103.3034778  66.4765836
  98.9253116 103.7307594  65.0396775  93.5611415  85.4878306  66.3138635
  93.6252742  86.3493137  65.9016033  93.4978536  84.8752308  65.5810994
  93.0363688  87.5601439  69.9611670  93.6635727  87.1778516  70.5749194
  92.1791607  87.3415641  70.3267362 103.4357796  97.9664414  71.5665405
 103.9797700  98.5794372  71.0720360 102.8544641  98.5243993  72.0832418
  89.8129231  89.3677868  55.8930024  90.1082672  88.4588546  55.8397078
  88.9117266  89.3465608  55.5711027 101.7215309 101.0885132  62.6980433
 101.5966449 100.2874872  62.1891378 102.3794400 101.5831326  62.2094403
  93.3423478  87.4433865  61.8757573  92.6210063  88.0569832  61.7365046
  94.1316733  87.9791629  61.7974219 103.7850218  98.8894152  64.3259983
 102.8380553  98.7699503  64.2538310 104.1332991  98.0016650  64.4086244
  96.1449791  84.7788291  68.1498225  96.6684193  85.0250588  68.9124534
  95.9262124  85.6108326  67.7301362  91.5417072  87.0491966  56.0169349
  91.2129778  86.1689345  55.8344455  91.8956443  86.9939634  56.9045739
 100.7896651  98.6846868  60.5264335 100.6421613  97.7563576  60.7071905
 101.6150145  98.7066959  60.0421410  94.6558895  87.3364936  56.3844827
  94.9954968  87.8650857  55.6623436  95.1031016  87.6745342  57.1603394
 104.3930773  99.5075427  61.6129208 105.3177320  99.3018289  61.4753659
 104.2246076  99.2591828  62.5218549  97.3502336  85.7201986  65.8347895
  97.0099157  84.9209799  66.2368575  96.6441342  86.0203697  65.2624728
  98.0018808  82.8051299  64.2875218  98.8244877  82.3311777  64.1654109
  98.2456872  83.5841782  64.7873905  96.6427042  85.8339557  54.5838120
  97.3635405  86.2120810  54.0801837  96.0192347  86.5528434  54.6873098
 100.7858165  86.5384706  55.5196452 101.0021780  87.4209344  55.2185280
 100.3052232  86.1470919  54.7902094  95.5257387  89.4970419  62.0967197
  95.3801967  89.8110722  62.9891478  95.0482590  90.1155320  61.5438095
  97.3853770  86.4872967  62.1448086  97.3715338  85.5914061  61.8080384
  98.1026198  86.4943631  62.7786372  99.2379900  86.9210308  64.1901214
  98.9797678  87.8427378  64.1885544  98.7064941  86.5240742  64.8801678
 104.1826089 100.0261095  56.9691299 104.3562967  99.4607517  56.2165152
 104.6754980 100.8261990  56.7870789  90.0003049  92.0375764  65.0354858
  89.4556517  92.8135572  65.1675132  90.8782399  92.3846568  64.8773979
  96.7890666  85.3687348  57.4135657  96.9106577  84.4403994  57.6126544
  96.4992708  85.3826034  56.5013972  99.6581856  83.0542258  60.5502376
  99.6803553  83.1181591  59.5954356 100.0749915  82.2146767  60.7442883
 110.0365480  92.7897518  58.5881599 110.4796626  92.0404843  58.1900722
 109.1591991  92.7807654  58.2055331 105.1701262  99.3427859  54.0688198
 105.8652166  99.9634552  54.2875512 105.5124412  98.4923210  54.3440575
  90.7869071  91.1645660  67.9285015  90.0450807  91.3128295  68.5149645
  90.4661815  91.4253926  67.0651764 107.0692685  96.7927565  55.5975528
 107.5944009  97.1314837  54.8724848 106.9815037  95.8574580  55.4138663
  98.7312733 100.7061638  67.7265405  99.0399860 100.4610785  68.5988104
  99.5288215 100.9108277  67.2384275  98.7533345 102.8599548  59.9570781
  98.3138336 102.3675927  60.6503638  99.5041462 102.3172516  59.7162857
  91.2325684  99.0511089  59.9595410  92.0583704  98.7514861  59.5794053
  90.8819736  98.2818711  60.4085198  96.2007218  98.4037557  62.0293083
  95.5787227  97.7408262  61.7295311  96.8712084  98.4298689  61.3466731
  89.4334289  96.9697415  60.9184343  88.5966198  96.5419590  60.7368344
  89.4057935  97.1629858  61.8555134  96.2731745  86.8819345  71.6225589
  96.3219901  87.7581468  71.2403359  96.8154259  86.3396738  71.0497232
 106.7586591  97.4260468  70.9026726 105.9682134  97.4084607  70.3631226
 106.5219945  97.9648762  71.6575763 106.8784466  94.2752935  68.2159455
 106.9282471  94.1102942  69.1574978 106.7698389  93.4080194  67.8257336
  95.7620724  96.9541480  55.5051544  95.9108845  97.6376945  54.8518216
  96.5687168  96.9346570  56.0200999 104.1688228  90.2583863  69.5318761
 105.0698091  90.1190327  69.2402759 104.2436203  90.4238317  70.4716939
  98.5031034  87.6350717  68.3771948  97.6334343  87.9284283  68.1054536
  98.7390514  88.2191162  69.0979211 108.3802663  96.6949876  68.4601476
 108.0887471  97.0579857  69.2964937 107.7674794  95.9816884  68.2814808
 109.5798345  94.2602756  60.9804047 110.4145236  94.6992560  61.1441607
 109.7157474  93.7841409  60.1612292 106.6289851  91.8182491  66.9281534
 107.1043972  92.0110137  66.1200386 105.7055416  91.8741677  66.6824918
  93.5173357  92.9806658  56.5112613  93.2719399  92.0768988  56.7092823
  93.6869272  92.9823808  55.5692091 101.2070067  83.8530334  65.8937368
 101.7252011  84.5891361  65.5683857 100.8525200  84.1594328  66.7284127
  92.7869005  88.7135015  54.0098774  92.0938250  88.7879370  53.3538810
  92.5420757  87.9495359  54.5320291 101.4582662  80.2730617  61.4138265
 101.7384415  79.6053806  62.0398691 102.2433268  80.4659712  60.9012929
  99.2616130  99.4489611  52.9763291  98.6890097 100.0679798  52.5233763
  99.8348924  99.9988972  53.5103213 105.3291520  88.6948251  65.1609840
 106.2808943  88.7946348  65.1822064 105.1594970  87.9026519  65.6707924
 103.3505899  85.7803834  65.3469241 102.7555831  86.0608847  64.6515729
 103.0655596  86.2697735  66.1185982 102.4813390  99.7326761  54.1071873
 103.4144063  99.6672323  54.3104749 102.3936603 100.5683028  53.6486406
 105.1101406  99.0492631  51.0675821 105.0315038  98.7152495  51.9611579
 105.9311073  99.5414399  51.0667293 107.8079598  91.9154370  64.2752140
 107.7755918  90.9770371  64.4611823 108.4180221  91.9938407  63.5417964
  99.6462929  90.7850423  50.3179344 100.5922033  90.6556632  50.3867762
  99.2677173  90.0465085  50.7948772 107.9574086  88.7065414  64.3210423
 107.4413135  87.9223871  64.1340352 108.8414035  88.3784131  64.4856942
 105.6184813  82.4506429  60.2806235 105.4209634  82.1421518  61.1649567
 106.2284519  83.1768068  60.4104165 113.6256148  92.9770377  63.4158176
 114.3559536  92.7155665  63.9765880 113.0163093  92.2399099  63.4560244
 111.7071445  91.1178240  64.0132628 110.9804608  90.9834205  63.4049119
 111.2918732  91.4255069  64.8189346  99.5301621  94.8368170  71.7780001
 100.4504631  95.0146769  71.9720047  99.4951204  93.8924215  71.6259700
  97.8305846  88.7100400  50.2534229  96.9237301  88.4133513  50.3296942
  98.1081827  88.4130218  49.3868515  88.7483786  90.0306763  60.7033275
  88.4286570  89.1772071  60.4107649  88.2017214  90.2455341  61.4591243
  92.5263694  92.7469204  64.4202782  92.7449703  93.6786312  64.4390816
  92.9389467  92.3877179  65.2057586  99.4467911  83.2537290  56.4078470
  98.6368640  82.9084375  56.7833716 100.1352328  82.9444833  56.9966082
 101.3758460  82.3315336  58.0302767 101.9289498  82.7510790  58.6892790
 101.6128546  81.4051084  58.0725723  97.3991559  88.3202410  73.8105531
  97.2988286  89.2696767  73.7417622  97.1813101  87.9920649  72.9381601
  96.6004630  85.5687335  50.3946208  97.4623794  85.8942233  50.6542025
  96.7854974  84.7818831  49.8819274  88.6172046  93.6509675  62.6726397
  87.9235517  93.2363628  62.1596351  89.3645037  93.6930211  62.0759816
 104.7537267  84.4415862  57.5381431 104.1735936  85.1000666  57.1559483
 104.4873199  83.6193206  57.1268849 103.2040833  83.8420919  59.7402751
 103.7040612  83.9537454  58.9317070 103.8476441  83.5381972  60.3803560
  97.2622829  91.7499549  72.6270592  96.7789911  92.5499909  72.8334481
  97.3483768  91.7607494  71.6738036  90.5308789  93.5827929  60.5492412
  90.5079477  93.6815616  59.5974295  90.8409425  94.4293079  60.8709578
  93.1896166  95.6404084  64.6639026  94.1439420  95.6088026  64.5968958
  92.9908690  95.1794707  65.4789252  93.7795549  94.2105200  67.2309824
  94.5988438  94.7049278  67.2544661  94.0532356  93.2937168  67.2027391
 103.5362145  86.6015952  56.5937779 102.6488000  86.8865603  56.3757974
 103.9516134  86.4409715  55.7465056 106.8876681  86.6262473  60.3092119
 107.6637071  87.1158925  60.5816735 106.1624815  87.0520527  60.7663988
 109.3249240  87.3390092  61.3666059 109.9193730  87.0985828  60.6559367
 109.3975823  86.6197223  61.9939595  91.5446395 101.1823703  61.6809224
  91.4100863 100.4224104  61.1147222  91.1278458 101.9064603  61.2138013
 102.6805358  96.3660627  50.6885799 103.3841208  96.5710629  51.3043455
 101.9568007  96.9337388  50.9534883 103.5103169  92.1170488  56.8088069
 103.4538370  92.5739039  55.9695702 104.0631511  91.3561172  56.6310912
 107.3207974  87.9060220  57.6338189 107.0644909  87.5056855  58.4646397
 106.6960842  88.6204014  57.5088328 111.6320312  90.6456293  60.1409480
 111.0719870  90.7149482  60.9141042 111.0263816  90.4697278  59.4208977
  94.7015521 102.0793020  61.8927667  94.5847905 103.0238453  61.7906357
  93.8807967 101.7766582  62.2813466 104.5892056  96.8043156  52.7384259
 105.4237660  96.3724354  52.5561734 104.4276399  96.6325169  53.6661154
 104.2437948  93.3075269  54.1040599 104.1886752  93.1419541  53.1629043
 103.6184003  94.0151302  54.2602788  89.0330463  88.5443333  67.9302021
  89.6789326  88.0342287  68.4189246  88.8247614  89.2812015  68.5045446
 101.5583855  95.6124181  73.4294161 102.4275015  95.7864833  73.0680796
 101.0790607  96.4318598  73.3069891  97.5534073  82.8083378  53.6825917
  97.5412743  83.7525218  53.8394188  98.4457495  82.6253524  53.3885378
  95.7270035 102.7321282  65.1083595  96.6297282 102.7644892  65.4250090
  95.5007405 101.8021733  65.1229931  97.4823637 101.4852269  61.7693674
  96.5319268 101.4854130  61.6558046  97.7856123 100.7385003  61.2529708
 101.3686193  79.4026155  57.9371854 100.6018589  78.8484641  58.0828536
 101.7796898  79.4748024  58.7986005  93.3727954  85.6910951  72.0277035
  94.2359415  85.3347755  72.2380360  92.7993364  85.3524845  72.7152439
 113.2176331 107.3212807  62.8339436 113.8554741 107.2019554  62.1302776
 113.0997174 108.2693651  62.8927388 110.0266037 107.2740235  62.7700961
 109.6884549 107.1581300  61.8821496 110.8955805 106.8731400  62.7501967
 105.8852853 109.1275711  58.7597852 105.3217718 109.0365648  57.9914139
 105.7705248 108.3075616  59.2400344 110.5085820 108.4275087  68.7287166
 110.4974461 108.0327885  67.8567670 110.6706460 107.6941159  69.3220938
 103.4317285 110.6226903  61.5982072 104.2238577 110.2817728  61.1828371
 103.6713935 110.7321878  62.5184225 105.3908039 109.8835816  54.4699451
 106.1638915 109.3364803  54.3312327 105.7433437 110.7480066  54.6813912
 107.2293081 111.2112199  67.6766350 106.9382947 112.1157829  67.5613017
 107.8650066 111.2528726  68.3910420 108.1549288 108.5889047  64.2667710
 108.7512860 108.3645069  63.5524673 108.2124260 107.8473793  64.8693158
 107.7274316 106.0428482  52.1017901 107.9799837 105.5210004  51.3401364
 106.7898876 105.8794628  52.2044584 112.7717599 105.0464261  59.9092644
 113.5580688 104.6283684  59.5583061 113.0356304 105.9510353  60.0774292
 112.9427677 110.4837111  54.6081301 112.3073510 110.5571738  55.3202206
 112.6125083 111.0730710  53.9300380 118.1726026 104.9839494  60.8125623
 118.9051198 104.4138711  61.0463452 117.4165382 104.5961094  61.2532128
 107.4470605 107.9456588  54.3042276 107.3306863 107.2701492  54.9723360
 107.5572865 107.4588962  53.4874429 109.7902146 107.4066735  58.0088965
 109.4260353 106.8797356  58.7201887 110.6469262 107.0165205  57.8355450
 115.6951447  98.6961068  65.2720231 115.3634772  99.5656479  65.0481446
 115.0997060  98.3797352  65.9514262 109.4307633 102.4356635  53.0050314
 109.5982035 103.3036872  53.3720785 109.2404802 102.5983917  52.0811603
 112.1882966 110.8973614  64.6716144 111.8883689 111.7998653  64.5631951
 111.8434026 110.6305797  65.5237297 105.6395448 107.3487411  60.7052848
 104.7145944 107.2163625  60.9130540 105.8879861 108.1281630  61.2022791
 115.5880110 103.4156154  62.3513581 114.6796987 103.3471563  62.0572342
 115.5367706 103.8928099  63.1795407 109.4096854 104.8914293  53.9896980
 109.2896479 105.3371343  54.8282461 108.7149442 105.2399610  53.4310519
 103.0004259 106.9920684  61.5396637 103.1296640 107.2455163  62.4536049
 102.3201710 107.5848392  61.2201293 109.6620976 104.8345800  70.2948479
 108.8854310 105.3939720  70.2851343 110.3011539 105.3202583  70.8163349
 117.4541756 101.6172593  64.1291455 116.8116137 101.9105126  63.4831250
 116.9496685 101.5025513  64.9344652 115.1081920 105.3635766  54.8177314
 116.0199776 105.5963153  54.6425012 114.5991567 105.9472810  54.2552393
 107.9167348 107.6431253  69.8566446 108.6582033 108.1816297  69.5801269
 107.2104334 108.2697542  70.0137997 113.3922688 109.7860394  68.4538607
 113.8006044 109.3442804  67.7093239 112.6699949 109.2113021  68.7072800
 109.7453758 104.7233000  65.8272164 110.5914953 105.1472414  65.9706813
 109.6852395 104.0666625  66.5210727 113.7151502 110.3461584  62.2090896
 113.0860365 110.5107298  61.5066964 113.3277165 110.7603194  62.9801860
 112.8953203 102.3837369  67.4853338 112.6514135 103.1379429  66.9487613
 113.1713134 102.7622716  68.3200585 114.8491666 108.9275981  66.1630603
 115.0608561 109.5707741  65.4864984 114.8021414 108.0938298  65.6952533
 112.4517895 101.5393802  63.0667175 111.5902374 101.8375055  63.3583913
 112.4780330 101.7564201  62.1348208 109.2679464 110.0835992  59.4740981
 109.7317810 110.3623695  58.6845604 109.0036262 109.1819437  59.2914072
 106.1603545 109.6307474  62.4120744 106.7304902 110.0594742  61.7738229
 106.7511657 109.3490059  63.1104930 108.2048350 106.2059145  56.2830546
 108.9072394 106.6580188  56.7504473 107.8728979 105.5642964  56.9110439
 106.6528712 104.7970901  70.6581756 106.0227372 105.4787182  70.8917152
 106.5464800 104.6853983  69.7134894 101.9473684 104.4642697  61.5847680
 101.1572738 104.7200226  61.1087790 102.4384932 105.2791035  61.6899720
 103.8988430 104.8287277  58.5431156 103.1019593 104.9405971  59.0614652
 103.6714022 105.1673929  57.6772047 109.7294097 111.3531980  66.4913671
 109.7938530 111.8152387  67.3271843 109.0205021 110.7229345  66.6195981
 100.2311387 104.7173188  64.0162671 100.4819426 105.6020198  64.2820246
 100.7670936 104.5377789  63.2437762 109.4442115 113.0200087  56.3592651
 109.3087790 113.8651623  56.7877499 109.9851927 113.2219365  55.5958585
 105.9309455  99.0991667  73.0207007 105.5376400  98.5457866  73.6954651
 106.7475595  99.4102246  73.4113524 102.8971512 110.5375525  56.9320576
 103.4096033 111.3318776  57.0826141 103.5494225 109.8401816  56.8654178
 104.7066397 113.6541282  59.0143330 104.8833025 114.5759246  58.8264314
 105.5023231 113.3399701  59.4437709 108.8477416 100.5149546  70.6127263
 109.5887129 101.1156699  70.5331726 109.0795338  99.7727184  70.0545306
 103.9918754 105.7005914  68.8905493 103.8772269 104.7991171  69.1912592
 103.1363271 105.9469610  68.5390309 105.8297713 115.1719455  65.0153672
 106.3805138 115.0436519  64.2430666 104.9909188 115.4714344  64.6648565
 109.6264884 111.4370583  69.3597903 110.1593220 110.6758871  69.1297211
 109.0978965 111.1444235  70.1022058 112.7934579  96.5430649  64.8891545
 112.4498848  97.4332291  64.8130655 113.1613541  96.3532307  64.0261130
 100.8620429 108.8664180  57.7080147 101.6995651 109.2761188  57.4913855
 101.0398697 107.9263622  57.6780341 112.7584861 106.5339260  53.3963980
 112.2431485 107.3043865  53.6352367 112.4862170 105.8604396  54.0197041
 110.3431972 101.3788961  58.4549218 109.4873569 100.9895812  58.2754857
 110.7558924 101.4580922  57.5949004 111.8731119  98.9135304  62.8540778
 111.3695915  98.8765440  62.0408583 112.1661726  99.8228047  62.9137435
 108.1174005  98.9974034  61.8606960 108.9827002  98.8016843  61.5012849
 108.1851514  98.7684386  62.7876317 112.5471164 104.4066352  55.2223761
 112.2421300 104.7212502  56.0733904 113.5001607 104.4847772  55.2651094
 110.9917596 110.5656576  56.8716715 110.4638958 109.8309335  56.5589953
 110.4905099 111.3431252  56.6256683 105.7236324 101.2276242  59.2323327
 106.2980076 101.0051424  58.4996520 106.3107306 101.2964937  59.9851928
 114.7815901 107.1149969  60.0387703 115.2947783 107.7479961  60.5409413
 115.4317125 106.5151164  59.6731063 106.0505911 103.2580703  53.2519212
 105.2143223 103.5955390  53.5728487 105.9110681 103.1229683  52.3146349
 108.0258992  98.1017491  57.9598396 107.3723404  97.7866508  57.3355011
 107.9839466  97.4793231  58.6858219 109.1370196 108.3836786  49.8751688
 108.2297258 108.1526039  50.0742837 109.6341228 107.5874405  50.0625670
 111.2596732 104.5899424  62.2846044 110.3419293 104.8114371  62.1267732
 111.6756876 104.6645735  61.4257751 112.0431780 105.9890840  57.4148724
 112.7903599 106.5012237  57.1055846 112.3123369 105.6674893  58.2753118
 110.3158430 108.4849381  54.3975678 109.4069649 108.2008414  54.4948148
 110.3453514 108.9048459  53.5378985 114.4910617 103.0247956  59.3967513
 113.7533374 102.5125343  59.7277756 114.7437390 102.5848338  58.5850790
 114.5922244  95.8024208  59.9909283 114.8981121  94.9421572  59.7035198
 115.3174849  96.3941829  59.7908276 100.8846600 106.2054895  58.3790880
 100.6871000 105.6124256  57.6541947 100.3293264 105.9007105  59.0966819
 108.8643324 106.0978001  60.4985474 108.9191934 105.1451838  60.4227950
 108.0534526 106.2537441  60.9826772 110.0134518 110.0258125  51.7363757
 109.5753948 109.3093983  51.2769394 110.7544959 110.2534239  51.1748848
 106.8035684 104.7155061  58.2575852 105.9903549 105.0149232  58.6641045
 107.2994678 104.3210750  58.9750335 112.4009896 105.1796886  67.0890746
 112.7559283 105.4068359  67.9485212 113.0482027 105.5115262  66.4668002
 106.2949759 102.2873417  63.8737087 106.9349138 102.1462176  63.1760051
 105.4627289 102.0007930  63.4975689 107.0710063 111.5875847  59.9872080
 107.8650661 111.0926167  59.7854655 106.3601755 111.0593710  59.6239785
 103.3792826 105.7318929  56.0631833 102.4490414 105.6703384  56.2801795
 103.4750298 105.2094882  55.2668474 103.2978375 102.2573742  58.6510074
 103.5585192 103.1719075  58.5419235 104.1195547 101.7898184  58.8006687
 104.7703300 103.6711499  65.8208899 105.4426354 103.4628861  65.1721548
 103.9433087 103.4733585  65.3814131 110.6728872 100.2973440  67.8374560
 110.0256787 100.9963389  67.7439036 111.4429888 100.7309584  68.2050808
 110.8493007 108.1354205  65.8971379 111.7785067 108.2865364  65.7240347
 110.4284037 108.2238226  65.0420026 109.6481339 112.1604869  63.6669917
 109.5092424 111.7923654  64.5395855 108.8595935 112.6752509  63.4953875
 111.1986554 111.5386472  61.0558755 110.8636386 111.4987242  61.9516405
 110.6990499 110.8731188  60.5829165 105.1730798 106.9454102  66.5811336
 105.0350596 106.2134341  67.1822875 106.0835721 106.8563002  66.2995524
 114.1345745 108.8842506  51.3295814 113.5174916 108.1589334  51.2328867
 113.6662234 109.6451866  50.9862889 107.8013098 106.6574061  66.0695016
 108.5112717 106.0167253  66.0281634 107.7582406 106.9086956  66.9921196
 106.5142032 103.6439279  67.8890655 105.9779389 103.1930018  68.5412251
 105.9258741 103.7785188  67.1461119 105.9244291 103.1027931  50.4517119
 105.0473758 102.9816731  50.0879365 106.4002044 102.3114009  50.1996007
  97.4446431 107.8905090  60.5458626  98.1317471 107.5766820  59.9579641
  97.2894560 108.7946455  60.2725877 102.2481154 102.7795287  64.9743650
 102.1639342 102.1720956  64.2394059 101.4263860 103.2704305  64.9753146
 112.4204867 101.2648850  60.3413845 112.9173567 100.5118813  60.0214915
 111.6491849 101.3013167  59.7757054 113.5034648 110.0220538  57.9152268
 112.5690927 110.1422000  57.7456972 113.6811317 109.1193004  57.6512278
 109.0039836 103.4066233  60.0685529 108.6337624 102.8537274  60.7566435
 109.4998929 102.8024367  59.5160529 116.8907199 105.8637857  58.4502302
 117.3567652 106.6965848  58.3762605 117.3414700 105.3982838  59.1547561
 106.8329035 113.8663728  67.1640547 107.5338494 114.5000211  67.3169941
 106.3624150 114.2078460  66.4036186 114.8623862  98.2318444  62.4893203
 113.9486942  98.4622671  62.6575410 115.2916964  98.3156888  63.3407236
 114.6330321 106.4208336  64.9893097 113.9801771 106.6684243  64.3345550
 115.0110701 105.6072474  64.6555575 110.6817894 107.1628147  71.4759135
 110.0058531 107.0622276  72.1461510 111.5045528 107.0067361  71.9395132
 102.4296753 113.4000083  64.0971650 103.0150190 112.6543771  64.2299554
 102.2321591 113.7104040  64.9808314 105.2835408 116.4351331  59.1134092
 104.6145783 116.9197458  58.6298132 105.1448278 116.6820551  60.0277471
  97.0214407 105.9705684  62.8176093  97.0598507 105.4369274  63.6113211
  96.5154700 105.4440889  62.1987070 104.4005170 100.8170224  66.3138635
 104.4646496 101.6785055  65.9016033 104.3372290 100.2044226  65.5810994
 103.8757442 102.8893357  69.9611670 104.5029481 102.5070434  70.5749194
 103.0185361 102.6707559  70.3267362 100.6522985 104.6969786  55.8930024
 100.9476426 103.7880464  55.8397078  99.7511021 104.6757525  55.5711027
 104.1817232 102.7725782  61.8757573 103.4603818 103.3861750  61.7365046
 104.9710488 103.3083547  61.7974219 106.9843546 100.1080209  68.1498225
 107.5077947 100.3542505  68.9124534 106.7655879 100.9400244  67.7301362
 102.3810827 102.3783883  56.0169349 102.0523533 101.4981262  55.8344455
 102.7350197 102.3231552  56.9045739 105.4952650 102.6656853  56.3844827
 105.8348722 103.1942774  55.6623436 105.9424770 103.0037259  57.1603394
 108.1896091 101.0493904  65.8347895 107.8492911 100.2501717  66.2368575
 107.4835097 101.3495615  65.2624728 108.8412562  98.1343216  64.2875218
 109.6638632  97.6603695  64.1654109 109.0850626  98.9133700  64.7873905
 107.4820797 101.1631475  54.5838120 108.2029159 101.5412728  54.0801837
 106.8586101 101.8820352  54.6873098 111.6251920 101.8676624  55.5196452
 111.8415534 102.7501262  55.2185280 111.1445987 101.4762837  54.7902094
 106.3651141 104.8262337  62.0967197 106.2195722 105.1402640  62.9891478
 105.8876345 105.4447237  61.5438095 108.2247524 101.8164885  62.1448086
 108.2109093 100.9205978  61.8080384 108.9419952 101.8235549  62.7786372
 110.0773655 102.2502225  64.1901214 109.8191433 103.1719296  64.1885544
 109.5458695 101.8532660  64.8801678 100.8396803 107.3667681  65.0354858
 100.2950271 108.1427489  65.1675132 101.7176153 107.7138486  64.8773979
 107.6284420 100.6979265  57.4135657 107.7500331  99.7695911  57.6126544
 107.3386462 100.7117951  56.5013972 110.4975610  98.3834176  60.5502376
 110.5197307  98.4473509  59.5954356 110.9143669  97.5438684  60.7442883
 101.6262825 106.4937578  67.9285015 100.8844561 106.6420213  68.5149645
 101.3055570 106.7545843  67.0651764 102.0719439 114.3803006  59.9595410
 102.8977459 114.0806778  59.5794053 101.7213491 113.6110629  60.4085198
 107.0400972 113.7329475  62.0293083 106.4180981 113.0700180  61.7295311
 107.7105839 113.7590606  61.3466731 100.2728044 112.2989333  60.9184343
  99.4359952 111.8711507  60.7368344 100.2451689 112.4921776  61.8555134
 107.1125500 102.2111263  71.6225589 107.1613655 103.0873385  71.2403359
 107.6548014 101.6688656  71.0497232 106.6014479 112.2833398  55.5051544
 106.7502599 112.9668862  54.8518216 107.4080922 112.2638488  56.0200999
 115.0081983 105.5875780  69.5318761 115.9091845 105.4482245  69.2402759
 115.0829957 105.7530235  70.4716939 109.3424788 102.9642635  68.3771948
 108.4728097 103.2576201  68.1054536 109.5784268 103.5483080  69.0979211
 117.4683605 107.1474408  66.9281534 117.9437727 107.3402055  66.1200386
 116.5449171 107.2033594  66.6824918 104.3567112 108.3098576  56.5112613
 104.1113154 107.4060906  56.7092823 104.5263027 108.3115726  55.5692091
 112.0463822  99.1822252  65.8937368 112.5645766  99.9183279  65.5683857
 111.6918955  99.4886245  66.7284127 103.6262760 104.0426933  54.0098774
 102.9332004 104.1171288  53.3538810 103.3814511 103.2787277  54.5320291
 112.2976416  95.6022534  61.4138265 112.5778170  94.9345724  62.0398691
 113.0827023  95.7951630  60.9012929 116.1685274 104.0240168  65.1609840
 117.1202697 104.1238266  65.1822064 115.9988725 103.2318437  65.6707924
 114.1899654 101.1095752  65.3469241 113.5949586 101.3900764  64.6515729
 113.9049351 101.5989653  66.1185982 110.4856683 106.1142341  50.3179344
 111.4315788 105.9848549  50.3867762 110.1070928 105.3757003  50.7948772
 118.7967841 104.0357332  64.3210423 118.2806889 103.2515788  64.1340352
 119.6807789 103.7076048  64.4856942 116.4578568  97.7798347  60.2806235
 116.2603389  97.4713435  61.1649567 117.0678273  98.5059986  60.4104165
 110.3695376 110.1660087  71.7780001 111.2898385 110.3438686  71.9720047
 110.3344959 109.2216133  71.6259700 108.6699600 104.0392318  50.2534229
 107.7631056 103.7425430  50.3296942 108.9475581 103.7422136  49.3868515
  99.5877541 105.3598681  60.7033275  99.2680325 104.5063989  60.4107649
  99.0410969 105.5747259  61.4591243 103.3657448 108.0761122  64.4202782
 103.5843458 109.0078230  64.4390816 103.7783222 107.7169096  65.2057586
 110.2861666  98.5829207  56.4078470 109.4762394  98.2376292  56.7833716
 110.9746083  98.2736751  56.9966082 112.2152214  97.6607254  58.0302767
 112.7683253  98.0802707  58.6892790 112.4522301  96.7343002  58.0725723
 108.2385313 103.6494328  73.8105531 108.1382040 104.5988685  73.7417622
 108.0206855 103.3212567  72.9381601 107.4398385 100.8979253  50.3946208
 108.3017549 101.2234151  50.6542025 107.6248729 100.1110749  49.8819274
  99.4565801 108.9801592  62.6726397  98.7629272 108.5655545  62.1596351
 100.2038792 109.0222129  62.0759816 115.5931021  99.7707779  57.5381431
 115.0129690 100.4292583  57.1559483 115.3266954  98.9485124  57.1268849
 114.0434588  99.1712837  59.7402751 114.5434366  99.2829371  58.9317070
 114.6870196  98.8673890  60.3803560 108.1016583 107.0791467  72.6270592
 107.6183665 107.8791827  72.8334481 108.1877523 107.0899411  71.6738036
 101.3702543 108.9119846  60.5492412 101.3473231 109.0107533  59.5974295
 101.6803180 109.7584997  60.8709578 104.0289921 110.9696001  64.6639026
 104.9833175 110.9379944  64.5968958 103.8302445 110.5086625  65.4789252
 104.6189303 109.5397117  67.2309824 105.4382192 110.0341196  67.2544661
 104.8926111 108.6229085  67.2027391 114.3755899 101.9307870  56.5937779
 113.4881754 102.2157520  56.3757974 114.7909888 101.7701633  55.7465056
 117.7270435 101.9554391  60.3092119 118.5030826 102.4450843  60.5816735
 117.0018570 102.3812445  60.7663988 120.1642994 102.6682010  61.3666059
 120.7587485 102.4277746  60.6559367 120.2369578 101.9489140  61.9939595
 102.3840150 116.5115621  61.6809224 102.2494618 115.7516022  61.1147222
 101.9672212 117.2356521  61.2138013 114.3496923 107.4462406  56.8088069
 114.2932124 107.9030957  55.9695702 114.9025266 106.6853090  56.6310912
 118.1601729 103.2352137  57.6338189 117.9038663 102.8348773  58.4646397
 117.5354597 103.9495931  57.5088328 115.0831702 108.6367187  54.1040599
 115.0280506 108.4711458  53.1629043 114.4577758 109.3443220  54.2602788
  99.8724217 103.8735251  67.9302021 100.5183081 103.3634205  68.4189246
  99.6641368 104.6103933  68.5045446 108.3927828  98.1375296  53.6825917
 108.3806498  99.0817136  53.8394188 109.2851250  97.9545441  53.3885378
 112.2079947  94.7318072  57.9371854 111.4412343  94.1776559  58.0828536
 112.6190652  94.8039941  58.7986005 104.2121708 101.0202868  72.0277035
 105.0753170 100.6639673  72.2380360 103.6387119 100.6816763  72.7152439
  44.9903511  -7.6949148  49.4946267  44.6522023  -7.8108084  48.6066802
  45.8593280  -8.0957983  49.4747274  40.8490327  -5.8413672  45.4843158
  40.2855192  -5.9323735  44.7159446  40.7342722  -6.6613768  45.9645651
  45.4723294  -6.5414297  55.4532473  45.4611935  -6.9361498  54.5812977
  45.6343934  -7.2748224  56.0466244  38.3954759  -4.3462480  48.3227379
  39.1876051  -4.6871656  47.9073678  38.6351409  -4.2367505  49.2429532
  46.4289886  -2.1742704  40.7957623  45.7777866  -1.5888624  40.4091637
  47.2234249  -1.6436509  40.8552661  40.3545513  -5.0853567  41.1944758
  41.1276389  -5.6324580  41.0557633  40.7070912  -4.2209318  41.4059219
  42.1930556  -3.7577185  54.4011657  41.9020421  -2.8531554  54.2858323
  42.8287540  -3.7160657  55.1155726  43.1186762  -6.3800336  50.9913017
  43.7150335  -6.6044314  50.2769979  43.1761734  -7.1215591  51.5938464
  42.6911791  -8.9260901  38.8263207  42.9437311  -9.4479380  38.0646671
  41.7536350  -9.0894756  38.9289891  47.9065151  -4.4852272  41.3326608
  47.2710984  -4.4117646  42.0447512  47.5762557  -3.8958674  40.6545687
  42.4108079  -7.0232795  41.0287582  42.2944338  -7.6987892  41.6968667
  42.5210339  -7.5100421  40.2119736  44.7539620  -7.5622648  44.7334272
  44.3897828  -8.0892027  45.4447193  45.6106736  -7.9524179  44.5600757
  47.1520441  -4.0715769  51.3961451  46.8521164  -3.1690731  51.2877258
  46.8071500  -4.3383586  52.2482603  40.6032922  -7.6201973  47.4298155
  39.6783419  -7.7525758  47.6375847  40.8517335  -6.8407753  47.9268097
  37.9641733  -7.9768699  48.2641944  38.0934114  -7.7234220  49.1781356
  37.2839184  -7.3840991  47.9446599  42.1341220   2.6928551  44.3632418
  42.0565250   3.6436376  44.4420899  41.5302864   2.3474423  45.0207345
  42.8804822  -7.3258130  56.5811752  43.6219507  -6.7873086  56.3046576
  42.1741808  -6.6991842  56.7383304  48.3560162  -5.1828990  55.1783914
  48.7643518  -5.6246579  54.4338546  47.6337424  -5.7576362  55.4318107
  48.6788977  -4.6227799  48.9336203  48.0497839  -4.4582085  48.2312270
  48.2914639  -4.2086190  49.7047167  52.5578209  -3.6873361  46.2880566
  51.8729247  -3.3074460  45.7377600  52.6422058  -3.0778035  47.0212514
  49.8129140  -6.0413402  52.8875910  50.0246035  -5.3981642  52.2110291
  49.7658889  -6.8751086  52.4197840  44.2316939  -4.8853391  46.1986288
  44.6955284  -4.6065688  45.4090910  43.9673737  -5.7869947  46.0159378
  41.1241020  -5.3381910  49.1366051  41.6942377  -4.9094641  48.4983535
  41.7149132  -5.6199325  49.8350237  43.1685825  -8.7630239  43.0075853
  43.8709868  -8.3109195  43.4749779  42.8366453  -9.4046420  43.6355746
  41.6166186 -10.1718482  57.3827062  40.9864847  -9.4902201  57.6162459
  41.5102274 -10.2835401  56.4380200  50.9274968  -3.1641447  51.0598267
  51.7492412  -3.5661260  50.7780949  50.9237371  -3.2673213  52.0114383
  44.6931572  -3.6157404  53.2158978  44.7576004  -3.1536996  54.0517150
  43.9842496  -4.2460039  53.3441288  44.4079589  -1.9489296  43.0837958
  44.2725264  -1.1037760  43.5122806  44.9489402  -1.7470018  42.3203892
  37.8608987  -4.4313858  43.6565883  38.3733507  -3.6370608  43.8071448
  38.5131700  -5.1287568  43.5899485  39.6703871  -1.3148102  45.7388636
  39.8470500  -0.3930137  45.5509620  40.4660705  -1.6289683  46.1683016
  46.0348066  -1.3265730  57.2138300  45.5911920  -2.1129351  56.8959205
  46.6965279  -1.1386579  56.5482191  40.7935187   0.2030072  51.7398979
  41.3442612   0.0747135  50.9675973  39.9546663   0.5024961  51.3893871
  48.1329304  -1.0462930  55.2419701  48.1147779  -0.2254049  54.7499971
  49.0549224  -1.1708854  55.4669843  44.5902358  -3.5318800  56.0843210
  45.1230695  -4.2930512  55.8542518  44.0616439  -3.8245148  56.8267364
  52.6956610  -5.6817768  42.0562460  51.9186052  -6.0206609  41.6117622
  53.3748091  -5.6765145  41.3817425  45.9555071  -4.4032808  43.5962022
  45.4276432  -5.1380048  43.2835259  45.4542573  -3.6258131  43.3501990
  50.9347917  -6.2083787  48.7129068  50.2771591  -5.5184526  48.8009197
  51.7388316  -5.8187355  49.0563054  44.1007671  -6.5852597  36.5996995
  43.1934733  -6.8163344  36.7988144  44.5978703  -7.3814978  36.7870976
  47.0075750   2.1244910  39.5193681  46.3337448   2.4276606  40.1278639
  47.3941572   2.9273990  39.1699138  45.2795904  -6.4840003  41.1220985
  44.3707123  -6.7680970  41.2193455  45.3090988  -6.0640924  40.2624292
  50.5115172  -2.8733413  44.8912152  50.0577499  -3.7142503  44.9477343
  49.8809138  -2.2372015  45.2286933  48.9548111  -1.0356916  45.8261971
  49.2471085  -0.4751859  45.1074336  49.4646731  -0.7428355  46.5815130
  44.9771992  -4.9431259  38.4609063  44.5391422  -5.6595400  38.0014701
  45.7182433  -4.7155144  37.8994155  43.9181736  -0.2576565  46.9155424
  43.8757915  -0.0315719  45.9863956  44.8344435  -0.4913191  47.0641225
  53.1214486  -4.5997535  49.5296654  53.5550993  -4.6922246  50.3779708
  53.8346067  -4.6240034  48.8916670  42.0347537  -3.3813536  46.7117386
  42.8288135  -3.8763216  46.5099961  41.3239229  -3.9095673  46.3485092
  46.8542381  -0.9995441  51.0629754  46.9079404  -0.4304504  51.8307470
  45.9857163  -0.8293556  50.6983791  53.9830036  -4.5573834  52.0629539
  54.1765926  -3.6528024  52.3088814  53.8830654  -5.0166415  52.8968124
  49.0445145  -4.4067091  57.6370420  48.8930651  -4.6356540  56.7200503
  49.0349824  -3.4496490  57.6501765  45.8130481  -6.8335179  52.6216686
  46.7422541  -6.6824019  52.4485653  45.3921511  -6.7451158  51.7665332
  44.6118813  -2.8084514  50.3915224  44.4729899  -3.1765730  51.2641162
  43.8233409  -2.2936875  50.2199181  45.2066965   2.2924582  41.7340760
  45.3818721   1.8212625  42.5486383  44.5199753   2.9190348  41.9622021
  46.1624028  -3.4302912  47.7804061  45.8273861  -3.4702142  48.6761711
  45.6627974  -4.0958196  47.3074472  40.1368272  -8.0235282  53.3056643
  39.9988070  -8.7555043  53.9068182  41.0473195  -8.1126381  53.0240830
  49.0983220  -6.0846877  38.0541121  48.4812390  -6.8100049  37.9574174
  48.6299708  -5.3237517  37.7108195  42.7650573  -8.3115322  52.7940322
  43.4750191  -8.9522130  52.7526941  42.7219881  -8.0602427  53.7166503
  50.7537351  -1.3747969  55.7146901  50.6949897  -2.0588749  55.0477484
  51.1556870  -0.6328979  55.2627527  39.7728050   5.4413945  48.5080620
  40.0124648   6.0732469  49.1859639  38.9297247   5.0901985  48.7945980
  50.7554759  -3.4108385  53.9460881  49.8681537  -3.7482463  54.0687280
  51.3253310  -4.1425354  54.1829646  44.2855912   1.2493067  50.9122124
  44.2126083   2.0548039  51.4241429  43.8433305   1.4485033  50.0870146
  44.0745692   0.4864837  44.4224946  43.2913213   1.0286518  44.5163170
  44.7738437   1.0038817  44.8219187  46.7454595   1.1479901  53.0680283
  47.4582568   1.7827366  52.9956184  46.2544624   1.2443767  52.2520285
  48.4672122  -4.9468846  44.6397575  47.5328401  -4.8267383  44.4702279
  48.6448791  -5.8496379  44.3757584  41.7966509  -1.1025655  53.8885854
  42.4975969  -0.4689172  54.0415248  41.3261624  -0.7610924  53.1281493
  49.9220905  -2.7607705  42.1733761  50.1980749  -2.8751111  43.0827635
  49.0525404  -3.1590220  42.1345934  46.5574969   1.4878645  45.8166574
  46.7397363   0.6700301  46.2794327  47.3807955   1.7046338  45.3791464
  46.8917134   0.4146831  43.0781623  47.4204901  -0.0960715  42.4651785
  47.1545354   0.0989361  43.9427156  45.6455368  -7.8061237  58.2004441
  44.9696005  -7.9067107  58.8706816  46.4683002  -7.9622023  58.6640438
  37.3934227  -1.5689300  50.8216956  37.9787664  -2.3145612  50.9544861
  37.1959066  -1.2585343  51.7053620  40.2472882   1.4661947  45.8379399
  39.5783258   1.9508075  45.3543439  40.1085752   1.7131168  46.7522777
  44.3878151   3.5005691  52.4362057  44.9396459   3.6637312  53.2011142
  44.7284344   4.0910129  51.7642082  49.2389025  -1.6733052  58.2910712
  49.7828929  -1.0603093  57.7965666  48.6575870  -1.1153473  58.8077725
  47.5246538   1.4487666  49.4225739  47.3997678   0.6477406  48.9136685
  48.1825629   1.9433860  48.9339709  49.5881447  -0.7503314  51.0505289
  48.6411782  -0.8697962  50.9783616  49.9364220  -1.6380816  51.1331551
  46.5927880  -0.9550597  47.2509642  46.4452842  -1.8833890  47.4317212
  47.4181373  -0.9330507  46.7666717  50.1962002  -0.1322039  48.3374514
  51.1208549  -0.3379177  48.1998966  50.0277305  -0.3805637  49.2463856
  41.3288616 -10.1427046  48.8212503  41.1833196  -9.8286743  49.7136785
  40.8513819  -9.5242146  48.2683402  49.9857318   0.3863629  43.6936606
  50.1594195  -0.1789949  42.9410458  50.4786209   1.1864524  43.5116096
  50.9732490  -0.2969607  40.7933504  51.6683395   0.3237086  41.0120819
  51.3155641  -1.1474256  41.0685882  52.8723914  -2.8469901  42.3220835
  53.3975238  -2.5082628  41.5970155  52.7846266  -3.7822886  42.1383970
  44.5343962   1.0664172  54.4510712  44.8431089   0.8213319  55.3233411
  45.3319444   1.2710811  53.9629582  44.5564574   3.2202082  46.6816088
  44.1169565   2.7278461  47.3748945  45.3072691   2.6775050  46.4408163
  37.0356913  -0.5886377  46.6840716  37.8614933  -0.8882605  46.3039360
  36.6850965  -1.3578755  47.1330505  42.0038446  -1.2359909  48.7538390
  41.3818456  -1.8989204  48.4540618  42.6743313  -1.2098777  48.0712038
  35.2365518  -2.6700051  47.6429650  34.3997427  -3.0977876  47.4613651
  35.2089164  -2.4767607  48.5800441  52.5617820  -2.2136998  57.6272033
  51.7713363  -2.2312859  57.0876532  52.3251174  -1.6748704  58.3821069
  52.6815695  -5.3644531  54.9404761  52.7313700  -5.5294524  55.8820284
  52.5729618  -6.2317272  54.5502642  41.5651953  -2.6855986  42.2296850
  41.7140074  -2.0020521  41.5763523  42.3718397  -2.7050895  42.7446306
  54.1833891  -2.9447590  55.1846783  53.8918700  -2.5817609  56.0210244
  53.5706023  -3.6580581  55.0060115  39.3204586  -6.6590808  43.2357919
  39.0750628  -7.5628478  43.4338129  39.4900501  -6.6573657  42.2937397
  45.0647359  -0.1907855  39.7008598  44.4921326   0.4282332  39.2479070
  45.6380153   0.3591507  40.2348520  48.2844619   0.0929295  40.8317180
  49.2175292   0.0274857  41.0350056  48.1967831   0.9285562  40.3731713
  50.9132635  -0.5904835  37.7921128  50.8346267  -0.9244971  38.6856885
  51.7342302  -0.0983067  37.7912600  45.3332850  -4.8029296  58.5025307
  46.2535859  -4.6250697  58.6965354  45.2982433  -5.7473251  58.3505006
  38.3294922  -6.8928262  51.1448088  38.5480932  -5.9611154  51.1636122
  38.7420696  -7.2520287  51.9302892  43.0654058  -7.8897917  59.3515899
  42.5821139  -7.0897557  59.5579788  43.1514997  -7.8789972  58.3983343
  36.3340017  -6.0569537  47.2737718  36.3110706  -5.9581850  46.3219601
  36.6440654  -5.2104386  47.5954884  38.9927395  -3.9993382  51.3884333
  39.9470649  -4.0309440  51.3214264  38.7939919  -4.4602758  52.2034559
  39.5826777  -5.4292266  53.9555130  40.4019666  -4.9348188  53.9789968
  39.8563585  -6.3460298  53.9272698  37.3477624   1.5426237  48.4054531
  37.2132092   0.7826638  47.8392529  36.9309686   2.2667137  47.9383319
  48.4836587  -3.2736839  37.4131106  49.1872437  -3.0686837  38.0288761
  47.7599236  -2.7060077  37.6780189  40.5046750   2.4395554  48.6172973
  40.3879134   3.3840987  48.5151664  39.6839196   2.1369116  49.0058772
  50.3923284  -2.8354310  39.4629566  51.2268888  -3.2673112  39.2807041
  50.2307627  -3.0072296  40.3906460  50.0469177  -6.3322197  40.8285905
  49.9917980  -6.4977925  39.8874349  49.4215232  -5.6246164  40.9848095
  47.3615084  -4.0273285  60.1539468  48.2306243  -3.8532633  59.7926103
  46.8821835  -3.2078868  60.0315197  41.5301264   3.0923816  51.8328902
  42.4328511   3.1247426  52.1495397  41.3038634   2.1624267  51.8475237
  43.2854866   1.8454803  48.4938980  42.3350497   1.8456664  48.3803353
  43.5887352   1.0987537  47.9775015  59.0207560   7.6815341  49.5584743
  59.6585970   7.5622088  48.8548083  58.9028402   8.6296185  49.6172695
  55.8297266   7.6342769  49.4946267  55.4915777   7.5183834  48.6066802
  56.6987034   7.2333934  49.4747274  51.6884082   9.4878246  45.4843158
  51.1248947   9.3968183  44.7159446  51.5736477   8.6678150  45.9645651
  56.3117049   8.7877621  55.4532473  56.3005690   8.3930419  54.5812977
  56.4737688   8.0543694  56.0466244  49.2348513  10.9829437  48.3227379
  50.0269805  10.6420262  47.9073678  49.4745164  11.0924412  49.2429532
  57.2683640  13.1549213  40.7957623  56.6171620  13.7403294  40.4091637
  58.0628003  13.6855408  40.8552661  51.1939267  10.2438350  41.1944758
  51.9670143   9.6967338  41.0557633  51.5464666  11.1082600  41.4059219
  53.0324310  11.5714733  54.4011657  52.7414176  12.4760364  54.2858323
  53.6681294  11.6131260  55.1155726  53.9580517   8.9491581  50.9913017
  54.5544089   8.7247604  50.2769979  54.0155488   8.2076327  51.5938464
  53.5305545   6.4031017  38.8263207  53.7831066   5.8812538  38.0646671
  52.5930104   6.2397162  38.9289891  58.5748828   5.4066795  46.6337951
  59.3611917   4.9886218  46.2828368  58.8387532   6.3112887  46.8019599
  58.7458905  10.8439645  41.3326608  58.1104738  10.9174272  42.0447512
  58.4156312  11.4333244  40.6545687  63.9757255   5.3442028  47.5370929
  64.7082427   4.7741245  47.7708759  63.2196611   4.9563629  47.9777435
  53.2501834   8.3059123  41.0287582  53.1338092   7.6304026  41.6968667
  53.3604094   7.8191496  40.2119736  55.5933375   7.7669270  44.7334272
  55.2291582   7.2399891  45.4447193  56.4500491   7.3767739  44.5600757
  61.4982676  -0.9436398  51.9965538  61.1666000  -0.0740987  51.7726753
  60.9028289  -1.2600114  52.6759568  55.2338862   2.7959169  39.7295620
  55.4013264   3.6639406  40.0966091  55.0436031   2.9586451  38.8056909
  57.9914195  11.2576148  51.3961451  57.6914918  12.1601187  51.2877258
  57.6465255  10.9908331  52.2482603  51.4426677   7.7089945  47.4298155
  50.5177173   7.5766159  47.6375847  51.6911090   8.4884164  47.9268097
  61.3911339   3.7758688  49.0758888  60.4828216   3.7074097  48.7817649
  61.3398935   4.2530633  49.9040713  55.2128083   5.2516827  40.7142287
  55.0927708   5.6973878  41.5527767  54.5180671   5.6002145  40.1555825
  48.8035488   7.3523219  48.2641944  48.9327869   7.6057698  49.1781356
  48.1232939   7.9450927  47.9446599  52.9734975  18.0220469  44.3632418
  52.8959005  18.9728294  44.4420899  52.3696618  17.6766341  45.0207345
  55.4652205   5.1948334  57.0193785  54.6885539   5.7542254  57.0096650
  56.1042768   5.6805117  57.5408655  63.2572985   1.9775127  50.8536762
  62.6147366   2.2707660  50.2076556  62.7527914   1.8628047  51.6589958
  60.9113149   5.7238300  41.5422621  61.8231005   5.9565687  41.3670319
  60.4022796   6.3075344  40.9797700  53.7198577   8.0033787  56.5811752
  54.4613261   8.5418831  56.3046576  53.0135562   8.6300076  56.7383304
  59.1953917  10.1462928  55.1783914  59.6037273   9.7045338  54.4338546
  58.4731178   9.5715555  55.4318107  55.5484987   5.0835535  52.5517471
  56.3946182   5.5074948  52.6952120  55.4883624   4.4269159  53.2456034
  59.5182731  10.7064118  48.9336203  58.8891594  10.8709833  48.2312270
  59.1308393  11.1205728  49.7047167  63.3971963  11.6418556  46.2880566
  62.7123001  12.0217458  45.7377600  63.4815812  12.2513883  47.0212514
  58.6984432   2.7439903  54.2098644  58.4545364   3.4981964  53.6732920
  58.9744362   3.1225251  55.0445891  60.6522895   9.2878515  52.8875910
  60.8639790   9.9310275  52.2110291  60.6052643   8.4540832  52.4197840
  58.2549124   1.8996336  49.7912482  57.3933603   2.1977590  50.0829220
  58.2811558   2.1166735  48.8593515  55.0710693  10.4438527  46.1986288
  55.5349039  10.7226230  45.4090910  54.8067491   9.5421971  46.0159378
  51.9634774   9.9910008  49.1366051  52.5336131  10.4197276  48.4983535
  52.5542886   9.7092593  49.8350237  54.0079579   6.5661679  43.0075853
  54.7103623   7.0182723  43.4749779  53.6760208   5.9245498  43.6355746
  52.4559941   5.1573436  57.3827062  51.8258601   5.8389716  57.6162459
  52.3496029   5.0456517  56.4380200  47.7504913   4.8245232  48.3092986
  46.9603967   5.0802760  47.8333097  48.2416161   5.6393569  48.4145027
  61.7668723  12.1650471  51.0598267  62.5886166  11.7630658  50.7780949
  61.7631126  12.0618705  52.0114383  49.7019659   5.1889811  45.2676463
  48.9050822   5.3008505  45.7859959  49.4745251   5.5276463  44.4017354
  55.5325326  11.7134514  53.2158978  55.5969759  12.1754921  54.0517150
  54.8236250  11.0831879  53.3441288  46.0342616   5.0775722  50.7407977
  46.2850655   5.9622732  51.0065553  46.5702165   4.8980324  49.9683069
  69.8574716   8.5089219  47.4083239  69.1038424   7.9396617  47.2527243
  69.9922257   8.4751884  48.3553873  55.2473344  13.3802622  43.0837958
  55.1119019  14.2254157  43.5122806  55.7883156  13.5821899  42.3203892
  51.7340683  -0.5405799  59.7452313  51.3407629  -1.0939600  60.4199957
  52.5506824  -0.2295220  60.1358831  48.7002741  10.8978060  43.6565883
  49.2127262  11.6921310  43.8071448  49.3525454  10.2004350  43.5899485
  50.5097626  14.0143816  45.7388636  50.6864254  14.9361781  45.5509620
  51.3054459  13.7002235  46.1683016  54.6508644   0.8752081  57.3372570
  55.3918358   1.4759234  57.2577032  54.8826567   0.1329718  56.7790612
  49.7949982   6.0608448  55.6150799  49.6803498   5.1593705  55.9157898
  48.9394500   6.3072145  55.2635616  56.8741820  14.0026188  57.2138300
  56.4305674  13.2162567  56.8959205  57.5359034  14.1905339  56.5482191
  51.6328941  15.5321990  51.7398979  52.1836366  15.4039053  50.9675973
  50.7940417  15.8316879  51.3893871  58.9723058  14.2828988  55.2419701
  58.9541534  15.1037869  54.7499971  59.8942978  14.1583063  55.4669843
  55.4296112  11.7973117  56.0843210  55.9624449  11.0361406  55.8542518
  54.9010193  11.5046769  56.8267364  58.5965807  -3.0966817  51.6136851
  58.2530077  -2.2065175  51.5375962  58.9644770  -3.2865159  50.7506436
  46.6651658   9.2266714  44.4325454  47.5026880   9.6363722  44.2159161
  46.8429926   8.2866156  44.4025648  58.5616090   6.8941795  40.1209287
  58.0462714   7.6646399  40.3597674  58.2893399   6.2206931  40.7442348
  56.1463201   1.7391495  45.1794525  55.2904797   1.3498346  45.0000164
  56.5590153   1.8183456  44.3194310  57.6762348  -0.7262161  49.5786085
  57.1727143  -0.7632026  48.7653890  57.9692955   0.1830581  49.6382741
  53.9205234  -0.6423432  48.5852266  54.7858230  -0.8380623  48.2258156
  53.9882743  -0.8713080  49.5121623  63.5350364   9.6474149  42.0562460
  62.7579807   9.3085309  41.6117622  64.2141845   9.6526772  41.3817425
  58.3502393   4.7668887  41.9469068  58.0452529   5.0815036  42.7979211
  59.3032835   4.8450307  41.9896401  56.7948825  10.9259110  43.5962022
  56.2670187  10.1911870  43.2835259  56.2936328  11.7033786  43.3501990
  61.7741671   9.1208130  48.7129068  61.1165346   9.8107392  48.8009197
  62.5782070   9.5104562  49.0563054  51.5267553   1.5878776  45.9568633
  52.1011305   1.3653958  45.2241826  52.1138535   1.6567471  46.7097235
  60.5847130   7.4752503  46.7633010  61.0979012   8.1082495  47.2654720
  61.2348354   6.8753699  46.3976370  51.8537140   3.6183237  39.9764519
  51.0174452   3.9557924  40.2973793  51.7141909   3.4832217  39.0391656
  53.8290220  -1.5379975  44.6843703  53.1754633  -1.8530958  44.0600317
  53.7870695  -2.1604234  45.4103526  54.9401425   8.7439320  36.5996995
  54.0328487   8.5128574  36.7988144  55.4372457   7.9476939  36.7870976
  57.8469504  17.4536827  39.5193681  57.1731203  17.7568524  40.1278639
  58.2335326  18.2565908  39.1699138  57.0627961   4.9501959  49.0091350
  56.1450522   5.1716906  48.8513038  57.4788104   5.0248269  48.1503058
  57.8463009   6.3493374  44.1394031  58.5934827   6.8614772  43.8301153
  58.1154598   6.0277427  44.9998424  56.1189659   8.8451915  41.1220985
  55.2100878   8.5610948  41.2193455  56.1484743   9.2650994  40.2624292
  61.3508926  12.4558505  44.8912152  60.8971253  11.6149414  44.9477343
  60.7202893  13.0919903  45.2286933  60.2941846   3.3850491  46.1212820
  59.5564602   2.8727877  46.4523062  60.5468619   2.9450872  45.3096097
  59.7941865  14.2935001  45.8261971  60.0864840  14.8540058  45.1074336
  60.3040486  14.5863562  46.5815130  46.6877829   6.5657429  45.1036187
  46.4902229   5.9726790  44.3787254  46.1324493   6.2609639  45.8212126
  54.6674553   6.4580536  47.2230780  54.7223163   5.5054372  47.1473257
  53.8565755   6.6139975  47.7072079  55.8165747  10.3860659  38.4609063
  55.3785176   9.6696518  38.0014701  56.5576187  10.6136774  37.8994155
  52.6066913   5.0757595  44.9821159  51.7934778   5.3751766  45.3886351
  53.1025907   4.6813284  45.6995641  54.7575491  15.0715352  46.9155424
  54.7151669  15.2976199  45.9863956  55.6738189  14.8378727  47.0641225
  58.2041124   5.5399420  53.8136053  58.5590512   5.7670893  54.6730519
  58.8513256   5.8717797  53.1913308  63.9338861   8.6617856  44.5185382
  63.7956760   8.8519452  43.5906571  63.5775080   9.4237239  44.9753433
  52.0980987   2.6475951  50.5982394  52.7380367   2.5064710  49.9005357
  51.2658518   2.3610464  50.2220996  63.9608241  10.7294383  49.5296654
  64.3944748  10.6369672  50.3779708  64.6739822  10.7051883  48.8916670
  52.8741291  11.9478381  46.7117386  53.6681890  11.4528702  46.5099961
  52.1632984  11.4196245  46.3485092  57.6936136  14.3296477  51.0629754
  57.7473158  14.8987413  51.8307470  56.8250917  14.4998362  50.6983791
  49.1824055   6.0921463  42.7877139  48.2521643   6.0305919  43.0047101
  49.2781527   5.5697416  41.9913780  49.1009604   2.6176276  45.3755381
  49.3616421   3.5321609  45.2664541  49.9226776   2.1500719  45.5251994
  50.5734529   4.0314033  52.5454205  51.2457583   3.8231395  51.8966854
  49.7464316   3.8336119  52.1059438  64.8223790  10.7718083  52.0629539
  65.0159681  11.6763894  52.3088814  64.7224409  10.3125503  52.8968124
  56.4760101   0.6575974  54.5619866  55.8288016   1.3565924  54.4684343
  57.2461117   1.0912118  54.9296114  59.8838899  10.9224826  57.6370420
  59.7324406  10.6935378  56.7200503  59.8743579  11.8795428  57.6501765
  56.6524236   8.4956739  52.6216686  57.5816296   8.6467899  52.4485653
  56.2315266   8.5840760  51.7665332  55.4512567  12.5207403  50.3915224
  55.3123653  12.1526188  51.2641162  54.6627164  13.0355043  50.2199181
  56.0460719  17.6216500  41.7340760  56.2212475  17.1504543  42.5486383
  55.3593507  18.2482266  41.9622021  57.0017782  11.8989006  47.7804061
  56.6667615  11.8589776  48.6761711  56.5021728  11.2333722  47.3074472
  50.9762026   7.3056636  53.3056643  50.8381824   6.5736875  53.9068182
  51.8866950   7.2165536  53.0240830  59.9376974   9.2445040  38.0541121
  59.3206145   8.5191869  37.9574174  59.4693463  10.0054401  37.7108195
  53.6044327   7.0176595  52.7940322  54.3143946   6.3769788  52.7526941
  53.5613635   7.2689490  53.7166503  61.5931106  13.9543949  55.7146901
  61.5343652  13.2703169  55.0477484  61.9950624  14.6962939  55.2627527
  52.3173261   4.0041813  54.6135962  51.7810618   3.5532552  55.2657558
  51.7289970   4.1387722  53.8706426  50.6121805  20.7705863  48.5080620
  50.8518403  21.4024387  49.1859639  49.7691001  20.4193903  48.7945980
  51.7275520   3.4630465  37.1762425  50.8504986   3.3419266  36.8124672
  52.2033273   2.6716543  36.9241314  61.5948513  11.9183533  53.9460881
  60.7075292  11.5809454  54.0687280  62.1647064  11.1866564  54.1829646
  43.2477660   8.2507624  47.2703932  43.9348700   7.9369354  46.6824948
  43.0925789   9.1548989  46.9971184  48.0512382   3.1397821  51.6988956
  47.9670571   2.5323491  50.9639366  47.2295089   3.6306839  51.6998452
  55.1249666  16.5784985  50.9122124  55.0519838  17.3839957  51.4241429
  54.6827060  16.7776951  50.0870146  54.9139446  15.8156755  44.4224946
  54.1306968  16.3578435  44.5163170  55.6132191  16.3330735  44.8219187
  58.2236096   1.6251385  47.0659151  58.7204796   0.8721347  46.7460221
  57.4523078   1.6615701  46.5002361  66.0765854   7.3291750  48.7077443
  66.0655730   8.2116465  48.3371376  65.2083233   6.9763301  48.5131980
  57.5848350  16.4771819  53.0680283  58.2976322  17.1119284  52.9956184
  57.0938379  16.5735685  52.2520285  59.3065877  10.3823072  44.6397575
  58.3722156  10.5024534  44.4702279  59.4842545   9.4795539  44.3757584
  54.8071065   3.7668768  46.7930836  54.4368852   3.2139808  47.4811741
  55.3030157   3.1626901  46.2405836  62.6938428   6.2240391  45.1747609
  63.1598880   7.0568383  45.1007911  63.1445929   5.7585373  45.8792867
  52.6360264  14.2266263  53.8885854  53.3369723  14.8602746  54.0415248
  52.1655379  14.5680994  53.1281493  60.7614659  12.5684212  42.1733761
  61.0374503  12.4540807  43.0827635  59.8919158  12.1701697  42.1345934
  60.6655091  -1.4079022  49.2138510  59.7518171  -1.1774795  49.3820717
  61.0948192  -1.3240578  50.0652542  60.4361549   6.7810870  51.7138404
  59.7833000   7.0286777  51.0590857  60.8141929   5.9675008  51.3800881
  57.3968723  16.8170563  45.8166574  57.5791118  15.9992219  46.2794327
  58.2201709  17.0338255  45.3791464  57.7310889  15.7438748  43.0781623
  58.2598655  15.2331203  42.4651785  57.9939108  15.4281279  43.9427156
  56.4849122   7.5230681  58.2004441  55.8089760   7.4224810  58.8706816
  57.3076756   7.3669895  58.6640438  48.2327982  13.7602618  50.8216956
  48.8181418  13.0146305  50.9544861  48.0352820  14.0706574  51.7053620
  51.0866637  16.7953865  45.8379399  50.4177012  17.2799993  45.3543439
  50.9479506  17.0423085  46.7522777  42.8245636   6.3308218  49.5421400
  42.8629736   5.7971808  50.3358518  42.3185929   5.8043423  48.9232377
  55.2271905  18.8297609  52.4362057  55.7790213  18.9929230  53.2011142
  55.5678099  19.4202046  51.7642082  50.2036399   1.1772758  53.0383942
  50.2677725   2.0387589  52.6261340  50.1403519   0.5646760  52.3056300
  49.6788671   3.2495891  56.6856976  50.3060710   2.8672968  57.2994500
  48.8216590   3.0310093  57.0512669  60.0782780  13.6558866  58.2910712
  60.6222684  14.2688824  57.7965666  59.4969625  14.2138444  58.8077725
  46.4554214   5.0572320  42.6175331  46.7507655   4.1482998  42.5642385
  45.5542250   5.0360059  42.2956333  58.3640293  16.7779584  49.4225739
  58.2391432  15.9769324  48.9136685  59.0219384  17.2725777  48.9339709
  49.9848461   3.1328317  48.6002880  49.2635047   3.7464284  48.4610353
  50.7741717   3.6686081  48.5219526  60.4275201  14.5788604  51.0505289
  59.4805537  14.4593955  50.9783616  60.7757974  13.6911102  51.1331551
  52.7874774   0.4682743  54.8743531  53.3109176   0.7145040  55.6369841
  52.5687108   1.3002778  54.4546669  48.1842055   2.7386418  42.7414656
  47.8554762   1.8583797  42.5589762  48.5381426   2.6834086  43.6291045
  57.4321634  14.3741320  47.2509642  57.2846597  13.4458028  47.4317212
  58.2575128  14.3961411  46.7666717  51.2983879   3.0259387  43.1090134
  51.6379951   3.5545309  42.3868742  51.7455999   3.3639794  43.8848700
  61.0355756  15.1969879  48.3374514  61.9602304  14.9912740  48.1998966
  60.8671060  14.9486280  49.2463856  53.9927319   1.4096438  52.5593202
  53.6524140   0.6104251  52.9613882  53.2866326   1.7098149  51.9870035
  54.6443791  -1.5054249  51.0120525  55.4669861  -1.9793771  50.8899415
  54.8881855  -0.7263766  51.5119211  53.2852026   1.5234009  41.3083427
  54.0060388   1.9015262  40.8047143  52.6617330   2.2422886  41.4118405
  57.4283149   2.2279158  42.2441759  57.6446763   3.1103796  41.9430587
  56.9477216   1.8365371  41.5147401  52.1682370   5.1864871  48.8212503
  52.0226951   5.5005174  49.7136785  51.6907574   5.8049772  48.2683402
  54.0278753   2.1767419  48.8693393  54.0140322   1.2808512  48.5325691
  54.7451181   2.1838083  49.5031679  55.8804884   2.6104759  50.9146520
  55.6222661   3.5321830  50.9130851  55.3489924   2.2135194  51.6046985
  60.8251072  15.7155547  43.6936606  60.9987950  15.1501969  42.9410458
  61.3179964  16.5156441  43.5116096  46.6428032   7.7270216  51.7600165
  46.0981500   8.5030024  51.8920439  47.5207382   8.0741020  51.6019286
  53.4315649   1.0581799  44.1380963  53.5531560   0.1298446  44.3371851
  53.1417691   1.0720485  43.2259279  56.3006839  -1.2563290  47.2747683
  56.3228536  -1.1923957  46.3199663  56.7174898  -2.0958781  47.4688189
  66.6790464   8.4791969  45.3126906  67.1221610   7.7299295  44.9146029
  65.8016974   8.4702106  44.9300638  61.8126245  15.0322311  40.7933504
  62.5077150  15.6529004  41.0120819  62.1549395  14.1817662  41.0685882
  47.4294054   6.8540112  54.6530322  46.6875790   7.0022747  55.2394952
  47.1086798   7.1148377  53.7897071  63.7117668  12.4822016  42.3220835
  64.2368992  12.8209289  41.5970155  63.6240021  11.5469032  42.1383970
  55.3737717  16.3956090  54.4510712  55.6824843  16.1505237  55.3233411
  56.1713199  16.6002729  53.9629582  55.3958329  18.5494000  46.6816088
  54.9563319  18.0570378  47.3748945  56.1466446  18.0066967  46.4408163
  47.8750668  14.7405541  46.6840716  48.7008688  14.4409312  46.3039360
  47.5244720  13.9713163  47.1330505  52.8432201  14.0932009  48.7538390
  52.2212210  13.4302714  48.4540618  53.5137068  14.1193141  48.0712038
  46.0759273  12.6591867  47.6429650  45.2391181  12.2314041  47.4613651
  46.0482918  12.8524310  48.5800441  52.9156728   2.5713797  58.3470896
  52.9644884   3.4475920  57.9648665  53.4579243   2.0291190  57.7742539
  63.4011574  13.1154920  57.6272033  62.6107118  13.0979059  57.0876532
  63.1644929  13.6543214  58.3821069  63.5209449   9.9647386  54.9404761
  63.5707454   9.7997394  55.8820284  63.4123372   9.0974645  54.5502642
  52.4045708  12.6435932  42.2296850  52.5533828  13.3271397  41.5763523
  53.2112151  12.6241022  42.7446306  60.8113212   5.9478314  56.2564068
  61.7123074   5.8084779  55.9648066  60.8861186   6.1132769  57.1962246
  55.1456017   3.3245169  55.1017254  54.2759326   3.6178735  54.8299843
  55.3815497   3.9085614  55.8224518  65.0227646  12.3844328  55.1846783
  64.7312454  12.7474309  56.0210244  64.4099777  11.6711336  55.0060115
  66.2223328   9.9497208  47.7049353  67.0570220  10.3887012  47.8686914
  66.3582457   9.4735861  46.8857599  63.2714834   7.5076943  53.6526841
  63.7468956   7.7004589  52.8445692  62.3480400   7.5636128  53.4070225
  50.1598341   8.6701110  43.2357919  49.9144383   7.7663440  43.4338129
  50.3294255   8.6718260  42.2937397  57.8495051  -0.4575214  52.6182675
  58.3676995   0.2785813  52.2929163  57.4950183  -0.1511221  53.4529434
  49.4293988   4.4029467  40.7344081  48.7363233   4.4773822  40.0784117
  49.1845740   3.6389811  41.2565598  55.9041113  15.1384063  39.7008598
  55.3315080  15.7574250  39.2479070  56.4773907  15.6883424  40.2348520
  61.9716503   4.3842703  51.8855147  62.9233926   4.4840800  51.9067371
  61.8019954   3.5920971  52.3953231  59.9930883   1.4698286  52.0714547
  59.3980815   1.7503299  51.3761036  59.7080579   1.9592187  52.8431289
  59.1238373  15.4221213  40.8317180  60.0569046  15.3566774  41.0350056
  59.0361586  16.2577480  40.3731713  61.7526390  14.7387083  37.7921128
  61.6740021  14.4046947  38.6856885  62.5736057  15.2308851  37.7912600
  64.4504581   7.6048822  50.9997446  64.4180901   6.6664823  51.1857130
  65.0605205   7.6832859  50.2663271  56.2887912   6.4744875  37.0424650
  57.2347017   6.3451083  37.1113068  55.9102157   5.7359537  37.5194078
  64.5999069   4.3959866  51.0455729  64.0838118   3.6118322  50.8585658
  65.4839018   4.0678582  51.2102249  62.2609796  -1.8599119  47.0051542
  62.0634618  -2.1684030  47.8894874  62.8709502  -1.1337480  47.1349472
  70.2681131   8.6664829  50.1403483  70.9984519   8.4050117  50.7011186
  69.6588076   7.9293551  50.1805551  68.3496428   6.8072692  50.7377934
  67.6229592   6.6728657  50.1294426  67.9343715   7.1149520  51.5434652
  56.1726604  10.5262621  58.5025307  57.0929614  10.7041220  58.6965354
  56.1376187   9.5818667  58.3505006  54.4730829   4.3994852  36.9779535
  53.5662284   4.1027964  37.0542249  54.7506810   4.1024670  36.1113822
  45.3908769   5.7201215  47.4278582  45.0711554   4.8666523  47.1352956
  44.8442198   5.9349793  48.1836549  49.1688677   8.4363656  51.1448088
  49.3874687   9.3680764  51.1636122  49.5814451   8.0771631  51.9302892
  56.0892895  -1.0568259  43.1323777  55.2793623  -1.4021174  43.5079023
  56.7777312  -1.3660715  43.7211388  58.0183443  -1.9790212  44.7548073
  58.5714482  -1.5594758  45.4138096  58.2553529  -2.9054464  44.7971029
  54.0416542   4.0096862  60.5350837  53.9413269   4.9591219  60.4662928
  53.8238084   3.6815101  59.6626907  53.2429614   1.2581787  37.1191515
  54.1048778   1.5836685  37.3787332  53.4279958   0.4713283  36.6064580
  45.2597029   9.3404127  49.3971703  44.5660501   8.9258079  48.8841658
  46.0070020   9.3824663  48.8005122  61.3962250   0.1310313  44.2626738
  60.8160919   0.7895117  43.8804790  61.1298183  -0.6912342  43.8514155
  59.8465816  -0.4684629  46.4648058  60.3465595  -0.3568094  45.6562377
  60.4901424  -0.7723576  47.1048866  53.9047812   7.4394001  59.3515899
  53.4214894   8.2394361  59.5579788  53.9908751   7.4501946  58.3983343
  47.1733772   9.2722380  47.2737718  47.1504460   9.3710068  46.3219601
  47.4834408  10.1187531  47.5954884  49.8321150  11.3298535  51.3884333
  50.7864403  11.2982478  51.3214264  49.6333673  10.8689159  52.2034559
  50.4220532   9.8999651  53.9555130  51.2413421  10.3943730  53.9789968
  50.6957340   8.9831620  53.9272698  60.1787128   2.2910404  43.3183086
  59.2912983   2.5760054  43.1003281  60.5941117   2.1304167  42.4710363
  63.5301664   2.3156925  47.0337425  64.3062054   2.8053377  47.3062042
  62.8049798   2.7414979  47.4909295  65.9674223   3.0284544  48.0911366
  66.5618714   2.7880280  47.3804674  66.0400807   2.3091675  48.7184902
  48.1871379  16.8718155  48.4054531  48.0525846  16.1118556  47.8392529
  47.7703441  17.5959055  47.9383319  59.3230342  12.0555078  37.4131106
  60.0266192  12.2605081  38.0288761  58.5992990  12.6231840  37.6780189
  60.1528152   7.8064940  43.5333376  60.0963353   8.2633491  42.6941008
  60.7056494   7.0455624  43.3556219  63.9632958   3.5954672  44.3583496
  63.7069892   3.1951307  45.1891703  63.3385826   4.3098466  44.2333635
  68.2745296   6.3350745  46.8654787  67.7144854   6.4043934  47.6386349
  67.6688799   6.1591729  46.1454283  51.3440504  17.7687472  48.6172973
  51.2272889  18.7132904  48.5151664  50.5232951  17.4661034  49.0058772
  61.2317039  12.4937608  39.4629566  62.0662643  12.0618806  39.2807041
  61.0701382  12.3219621  40.3906460  60.8862931   8.9969721  40.8285905
  60.8311735   8.8313992  39.8874349  60.2608986   9.7045754  40.9848095
  45.6755446   4.2337785  54.6547327  46.3214310   3.7236739  55.1434553
  45.4672597   4.9706467  55.2290753  58.2008838  11.3018633  60.1539468
  59.0699998  11.4759285  59.7926103  57.7215590  12.1213050  60.0315197
  54.1959057  -1.5022170  40.4071224  54.1837726  -0.5580330  40.5639495
  55.0882478  -1.6852025  40.1130685  52.3695019  18.4215734  51.8328902
  53.2722265  18.4539344  52.1495397  52.1432389  17.4916185  51.8475237
  54.1248621  17.1746720  48.4938980  53.1744252  17.1748582  48.3803353
  54.4281107  16.4279455  47.9775015  50.0152937   1.3805402  58.7522342
  50.8784399   1.0242207  58.9625666  49.4418348   1.0419297  59.4397746
  69.8601314  23.0107259  49.5584743  70.4979724  22.8914006  48.8548083
  69.7422157  23.9588103  49.6172695  66.6691020  22.9634687  49.4946267
  66.3309532  22.8475752  48.6066802  67.5380789  22.5625852  49.4747274
  67.1510803  24.1169539  55.4532473  67.1399444  23.7222337  54.5812977
  67.3131443  23.3835611  56.0466244  60.0742268  26.3121355  48.3227379
  60.8663560  25.9712180  47.9073678  60.3138918  26.4216330  49.2429532
  63.8718064  26.9006650  54.4011657  63.5807930  27.8052281  54.2858323
  64.5075049  26.9423178  55.1155726  64.7974271  24.2783499  50.9913017
  65.3937844  24.0539521  50.2769979  64.8549243  23.5368244  51.5938464
  69.4142583  20.7358713  46.6337951  70.2005672  20.3178136  46.2828368
  69.6781287  21.6404805  46.8019599  74.8151010  20.6733946  47.5370929
  75.5476182  20.1033163  47.7708759  74.0590365  20.2855546  47.9777435
  72.3376430  14.3855520  51.9965538  72.0059755  15.2550931  51.7726753
  71.7422043  14.0691804  52.6759568  66.0732616  18.1251087  39.7295620
  66.2407019  18.9931323  40.0966091  65.8829785  18.2878369  38.8056909
  62.2820431  23.0381863  47.4298155  61.3570928  22.9058077  47.6375847
  62.5304844  23.8176082  47.9268097  72.2305093  19.1050606  49.0758888
  71.3221971  19.0366015  48.7817649  72.1792689  19.5822551  49.9040713
  66.0521837  20.5808745  40.7142287  65.9321462  21.0265795  41.5527767
  65.3574426  20.9294062  40.1555825  59.6429242  22.6815136  48.2641944
  59.7721623  22.9349615  49.1781356  58.9626693  23.2742844  47.9446599
  66.3045959  20.5240252  57.0193785  65.5279293  21.0834172  57.0096650
  66.9436522  21.0097035  57.5408655  74.0966740  17.3067045  50.8536762
  73.4541120  17.5999578  50.2076556  73.5921668  17.1919965  51.6589958
  71.7506903  21.0530218  41.5422621  72.6624760  21.2857604  41.3670319
  71.2416550  21.6367262  40.9797700  64.5592331  23.3325705  56.5811752
  65.3007016  23.8710749  56.3046576  63.8529317  23.9591994  56.7383304
  66.3878741  20.4127452  52.5517471  67.2339936  20.8366866  52.6952120
  66.3277379  19.7561077  53.2456034  69.5378186  18.0731821  54.2098644
  69.2939118  18.8273881  53.6732920  69.8138117  18.4517168  55.0445891
  69.0942878  17.2288254  49.7912482  68.2327357  17.5269507  50.0829220
  69.1205313  17.4458653  48.8593515  62.8028529  25.3201926  49.1366051
  63.3729886  25.7489194  48.4983535  63.3936641  25.0384510  49.8350237
  64.8473334  21.8953597  43.0075853  65.5497377  22.3474640  43.4749779
  64.5153962  21.2537415  43.6355746  63.2953695  20.4865353  57.3827062
  62.6652356  21.1681634  57.6162459  63.1889783  20.3748435  56.4380200
  58.5898668  20.1537149  48.3092986  57.7997722  20.4094678  47.8333097
  59.0809915  20.9685487  48.4145027  60.5413413  20.5181729  45.2676463
  59.7444576  20.6300423  45.7859959  60.3139005  20.8568381  44.4017354
  66.3719081  27.0426432  53.2158978  66.4363513  27.5046839  54.0517150
  65.6630005  26.4123797  53.3441288  56.8736371  20.4067640  50.7407977
  57.1244409  21.2914650  51.0065553  57.4095919  20.2272241  49.9683069
  62.5734438  14.7886119  59.7452313  62.1801383  14.2352318  60.4199957
  63.3900578  15.0996698  60.1358831  65.4902399  16.2043998  57.3372570
  66.2312112  16.8051151  57.2577032  65.7220322  15.4621636  56.7790612
  60.6343737  21.3900365  55.6150799  60.5197252  20.4885623  55.9157898
  59.7788255  21.6364062  55.2635616  69.4359562  12.2325101  51.6136851
  69.0923831  13.1226743  51.5375962  69.8038524  12.0426759  50.7506436
  69.4009845  22.2233712  40.1209287  68.8856468  22.9938317  40.3597674
  69.1287153  21.5498848  40.7442348  66.9856956  17.0683413  45.1794525
  66.1298552  16.6790263  45.0000164  67.3983907  17.1475374  44.3194310
  68.5156102  14.6029756  49.5786085  68.0120898  14.5659891  48.7653890
  68.8086709  15.5122499  49.6382741  64.7598988  14.6868486  48.5852266
  65.6251985  14.4911295  48.2258156  64.8276497  14.4578838  49.5121623
  74.3744119  24.9766067  42.0562460  73.5973561  24.6377226  41.6117622
  75.0535600  24.9818690  41.3817425  69.1896148  20.0960804  41.9469068
  68.8846283  20.4106954  42.7979211  70.1426590  20.1742224  41.9896401
  62.3661307  16.9170694  45.9568633  62.9405059  16.6945875  45.2241826
  62.9532290  16.9859388  46.7097235  71.4240884  22.8044421  46.7633010
  71.9372766  23.4374413  47.2654720  72.0742108  22.2045616  46.3976370
  62.6930894  18.9475155  39.9764519  61.8568207  19.2849841  40.2973793
  62.5535664  18.8124135  39.0391656  64.6683975  13.7911943  44.6843703
  64.0148387  13.4760960  44.0600317  64.6264449  13.1687683  45.4103526
  67.9021715  20.2793876  49.0091350  66.9844277  20.5008823  48.8513038
  68.3181859  20.3540187  48.1503058  68.6856763  21.6785292  44.1394031
  69.4328582  22.1906689  43.8301153  68.9548353  21.3569345  44.9998424
  72.1902681  27.7850422  44.8912152  71.7365008  26.9441332  44.9477343
  71.5596647  28.4211821  45.2286933  71.1335600  18.7142408  46.1212820
  70.3958357  18.2019795  46.4523062  71.3862374  18.2742790  45.3096097
  71.2347227  11.4918660  46.7154589  71.5406104  10.6316024  46.4280504
  71.9599832  12.0836281  46.5153583  57.5271584  21.8949347  45.1036187
  57.3295983  21.3018708  44.3787254  56.9718248  21.5901557  45.8212126
  65.5068307  21.7872453  47.2230780  65.5616917  20.8346290  47.1473257
  64.6959509  21.9431892  47.7072079  63.4460667  20.4049513  44.9821159
  62.6328533  20.7043684  45.3886351  63.9419661  20.0105202  45.6995641
  69.0434879  20.8691338  53.8136053  69.3984267  21.0962811  54.6730519
  69.6907010  21.2009714  53.1913308  62.9374742  17.9767869  50.5982394
  63.5774121  17.8356628  49.9005357  62.1052272  17.6902382  50.2220996
  60.0217809  21.4213381  42.7877139  59.0915397  21.3597836  43.0047101
  60.1175281  20.8989334  41.9913780  59.9403358  17.9468194  45.3755381
  60.2010176  18.8613527  45.2664541  60.7620531  17.4792636  45.5251994
  61.4128284  19.3605951  52.5454205  62.0851337  19.1523313  51.8966854
  60.5858070  19.1628037  52.1059438  67.3153856  15.9867892  54.5619866
  66.6681771  16.6857841  54.4684343  68.0854871  16.4204036  54.9296114
  67.4917990  23.8248657  52.6216686  68.4210050  23.9759816  52.4485653
  67.0709020  23.9132677  51.7665332  67.8411537  27.2280924  47.7804061
  67.5061370  27.1881694  48.6761711  67.3415483  26.5625640  47.3074472
  61.8155781  22.6348554  53.3056643  61.6775579  21.9028793  53.9068182
  62.7260704  22.5457454  53.0240830  70.7770729  24.5736958  38.0541121
  70.1599899  23.8483786  37.9574174  70.3087217  25.3346318  37.7108195
  64.4438082  22.3468513  52.7940322  65.1537700  21.7061705  52.7526941
  64.4007390  22.5981408  53.7166503  63.1567016  19.3333731  54.6135962
  62.6204373  18.8824469  55.2657558  62.5683724  19.4679640  53.8706426
  61.4515559  36.0997780  48.5080620  61.6912157  36.7316304  49.1859639
  60.6084756  35.7485820  48.7945980  62.5669275  18.7922382  37.1762425
  61.6898741  18.6711183  36.8124672  63.0427028  18.0008461  36.9241314
  54.0871415  23.5799542  47.2703932  54.7742455  23.2661272  46.6824948
  53.9319543  24.4840907  46.9971184  58.8906137  18.4689739  51.6988956
  58.8064326  17.8615408  50.9639366  58.0688843  18.9598757  51.6998452
  69.0629851  16.9543302  47.0659151  69.5598550  16.2013265  46.7460221
  68.2916832  16.9907619  46.5002361  70.1459631  25.7114989  44.6397575
  69.2115910  25.8316452  44.4702279  70.3236300  24.8087456  44.3757584
  65.6464819  19.0960685  46.7930836  65.2762607  18.5431726  47.4811741
  66.1423912  18.4918819  46.2405836  73.5332183  21.5532309  45.1747609
  73.9992635  22.3860300  45.1007911  73.9839683  21.0877290  45.8792867
  71.5048845  13.9212896  49.2138510  70.5911925  14.1517123  49.3820717
  71.9341947  14.0051340  50.0652542  71.2755304  22.1102788  51.7138404
  70.6226754  22.3578695  51.0590857  71.6535684  21.2966926  51.3800881
  67.3242877  22.8522599  58.2004441  66.6483514  22.7516728  58.8706816
  68.1470511  22.6961812  58.6640438  59.0721736  29.0894535  50.8216956
  59.6575173  28.3438223  50.9544861  58.8746575  29.3998492  51.7053620
  53.6639391  21.6600135  49.5421400  53.7023490  21.1263726  50.3358518
  53.1579684  21.1335341  48.9232377  61.0430153  16.5064676  53.0383942
  61.1071480  17.3679507  52.6261340  60.9797273  15.8938678  52.3056300
  60.5182426  18.5787809  56.6856976  61.1454464  18.1964886  57.2994500
  59.6610344  18.3602010  57.0512669  57.2947968  20.3864238  42.6175331
  57.5901409  19.4774916  42.5642385  56.3936004  20.3651977  42.2956333
  60.8242215  18.4620234  48.6002880  60.1028801  19.0756202  48.4610353
  61.6135471  18.9977999  48.5219526  63.6268529  15.7974661  54.8743531
  64.1502931  16.0436957  55.6369841  63.4080862  16.6294696  54.4546669
  59.0235810  18.0678335  42.7414656  58.6948516  17.1875714  42.5589762
  59.3775181  18.0126004  43.6291045  62.1377633  18.3551305  43.1090134
  62.4773706  18.8837226  42.3868742  62.5849754  18.6931711  43.8848700
  64.8321074  16.7388356  52.5593202  64.4917894  15.9396169  52.9613882
  64.1260080  17.0390067  51.9870035  65.4837546  13.8237668  51.0120525
  66.3063615  13.3498146  50.8899415  65.7275609  14.6028152  51.5119211
  64.1245780  16.8525927  41.3083427  64.8454143  17.2307179  40.8047143
  63.5011084  17.5714803  41.4118405  68.2676903  17.5571076  42.2441759
  68.4840518  18.4395714  41.9430587  67.7870970  17.1657289  41.5147401
  63.0076125  20.5156789  48.8212503  62.8620705  20.8297092  49.7136785
  62.5301328  21.1341689  48.2683402  64.8672507  17.5059337  48.8693393
  64.8534076  16.6100430  48.5325691  65.5844936  17.5130001  49.5031679
  66.7198638  17.9396677  50.9146520  66.4616416  18.8613748  50.9130851
  66.1883678  17.5427112  51.6046985  57.4821787  23.0562133  51.7600165
  56.9375255  23.8321941  51.8920439  58.3601137  23.4032938  51.6019286
  64.2709403  16.3873717  44.1380963  64.3925315  15.4590363  44.3371851
  63.9811446  16.4012403  43.2259279  67.1400594  14.0728628  47.2747683
  67.1622291  14.1367961  46.3199663  67.5568653  13.2333136  47.4688189
  58.2687809  22.1832030  54.6530322  57.5269545  22.3314665  55.2394952
  57.9480553  22.4440295  53.7897071  74.5511422  27.8113934  42.3220835
  75.0762747  28.1501207  41.5970155  74.4633775  26.8760949  42.1383970
  58.7144422  30.0697458  46.6840716  59.5402442  29.7701230  46.3039360
  58.3638474  29.3005081  47.1330505  56.9153027  27.9883785  47.6429650
  56.0784936  27.5605959  47.4613651  56.8876673  28.1816228  48.5800441
  63.7550483  17.9005715  58.3470896  63.8038638  18.7767837  57.9648665
  64.2972997  17.3583108  57.7742539  71.6506966  21.2770232  56.2564068
  72.5516829  21.1376697  55.9648066  71.7254941  21.4424687  57.1962246
  65.9849771  18.6537087  55.1017254  65.1153081  18.9470653  54.8299843
  66.2209252  19.2377532  55.8224518  74.1108589  22.8368860  53.6526841
  74.5862710  23.0296507  52.8445692  73.1874154  22.8928046  53.4070225
  68.6888805  14.8716704  52.6182675  69.2070749  15.6077731  52.2929163
  68.3343938  15.1780697  53.4529434  60.2687743  19.7321385  40.7344081
  59.5756988  19.8065740  40.0784117  60.0239495  18.9681729  41.2565598
  68.9401399  11.2916986  48.1383571  69.2203153  10.6240175  48.7643998
  69.7252006  11.4846082  47.6258235  72.8110258  19.7134620  51.8855147
  73.7627681  19.8132718  51.9067371  72.6413708  18.9212889  52.3953231
  70.8324637  16.7990204  52.0714547  70.2374569  17.0795216  51.3761036
  70.5474334  17.2884105  52.8431289  75.2898335  22.9340740  50.9997446
  75.2574656  21.9956741  51.1857130  75.8998959  23.0124777  50.2663271
  67.1281666  21.8036793  37.0424650  68.0740771  21.6743001  37.1113068
  66.7495911  21.0651455  37.5194078  75.4392824  19.7251783  51.0455729
  74.9231873  18.9410240  50.8585658  76.3232772  19.3970500  51.2102249
  73.1003551  13.4692799  47.0051542  72.9028372  13.1607887  47.8894874
  73.7103256  14.1954438  47.1349472  67.0120359  25.8554539  58.5025307
  67.9323368  26.0333138  58.6965354  66.9769942  24.9110585  58.3505006
  65.3124583  19.7286769  36.9779535  64.4056039  19.4319882  37.0542249
  65.5900564  19.4316588  36.1113822  56.2302524  21.0493133  47.4278582
  55.9105308  20.1958441  47.1352956  55.6835952  21.2641711  48.1836549
  60.0082431  23.7655574  51.1448088  60.2268441  24.6972682  51.1636122
  60.4208205  23.4063548  51.9302892  66.9286649  14.2723659  43.1323777
  66.1187378  13.9270744  43.5079023  67.6171066  13.9631203  43.7211388
  68.8577197  13.3501706  44.7548073  69.4108236  13.7697159  45.4138096
  69.0947284  12.4237454  44.7971029  64.8810297  19.3388780  60.5350837
  64.7807024  20.2883137  60.4662928  64.6631839  19.0107018  59.6626907
  64.0823368  16.5873705  37.1191515  64.9442532  16.9128603  37.3787332
  64.2673712  15.8005201  36.6064580  56.0990784  24.6696044  49.3971703
  55.4054255  24.2549997  48.8841658  56.8463775  24.7116581  48.8005122
  72.2356005  15.4602231  44.2626738  71.6554674  16.1187035  43.8804790
  71.9691937  14.6379576  43.8514155  70.6859571  14.8607289  46.4648058
  71.1859349  14.9723823  45.6562377  71.3295179  14.5568342  47.1048866
  64.7441567  22.7685918  59.3515899  64.2608648  23.5686279  59.5579788
  64.8302506  22.7793863  58.3983343  58.0127526  24.6014298  47.2737718
  57.9898214  24.7001985  46.3219601  58.3228163  25.4479449  47.5954884
  60.6714904  26.6590453  51.3884333  61.6258158  26.6274395  51.3214264
  60.4727428  26.1981077  52.2034559  61.2614286  25.2291569  53.9555130
  62.0807175  25.7235648  53.9789968  61.5351094  24.3123537  53.9272698
  71.0180883  17.6202321  43.3183086  70.1306738  17.9051972  43.1003281
  71.4334872  17.4596085  42.4710363  74.3695419  17.6448842  47.0337425
  75.1455809  18.1345295  47.3062042  73.6443553  18.0706897  47.4909295
  76.8067977  18.3576462  48.0911366  77.4012468  18.1172198  47.3804674
  76.8794561  17.6383592  48.7184902  59.0265133  32.2010073  48.4054531
  58.8919601  31.4410474  47.8392529  58.6097195  32.9250972  47.9383319
  70.1624096  27.3846996  37.4131106  70.8659946  27.5896999  38.0288761
  69.4386745  27.9523758  37.6780189  70.9921906  23.1356857  43.5333376
  70.9357108  23.5925409  42.6941008  71.5450249  22.3747542  43.3556219
  74.8026712  18.9246589  44.3583496  74.5463646  18.5243225  45.1891703
  74.1779580  19.6390383  44.2333635  79.1139050  21.6642663  46.8654787
  78.5538608  21.7335852  47.6386349  78.5082553  21.4883647  46.1454283
  71.7256686  24.3261639  40.8285905  71.6705489  24.1605910  39.8874349
  71.1002741  25.0337672  40.9848095  56.5149201  19.5629703  54.6547327
  57.1608064  19.0528657  55.1434553  56.3066352  20.2998385  55.2290753
  65.0352811  13.8269748  40.4071224  65.0231481  14.7711588  40.5639495
  65.9276233  13.6439893  40.1130685  68.8504931  10.4212524  44.6617160
  68.0837326   9.8671011  44.8073843  69.2615636  10.4934393  45.5231312
  60.8546692  16.7097320  58.7522342  61.7178153  16.3534125  58.9625666
  60.2812102  16.3711215  59.4397746  91.5362225  39.1673055  47.4083239
  90.7825933  38.5980453  47.2527243  91.6709766  39.1335719  48.3553873
  75.8746566  29.1561665  40.4071224  75.8625235  30.1003505  40.5639495
  76.7669987  28.9731811  40.1130685  94.0163939  45.0439355  51.9965538
  93.6847264  45.9134766  51.7726753  93.4209552  44.7275639  52.6759568
  95.7754249  47.9650880  50.8536762  95.1328629  48.2583413  50.2076556
  95.2709177  47.8503800  51.6589958  90.7730387  47.8872089  49.7912482
  89.9114866  48.1853343  50.0829220  90.7992822  48.1042488  48.8593515
  90.1943611  45.2613592  49.5786085  89.6908407  45.2243727  48.7653890
  90.4874218  46.1706334  49.6382741  92.8123109  49.3726244  46.1212820
  92.0745866  48.8603630  46.4523062  93.0649883  48.9326625  45.3096097
  92.9134736  42.1502496  46.7154589  93.2193613  41.2899859  46.4280504
  93.6387341  42.7420116  46.5153583  90.7417360  47.6127138  47.0659151
  91.2386059  46.8597100  46.7460221  89.9704341  47.6491454  46.5002361
  95.2119692  52.2116144  45.1747609  95.6780144  53.0444136  45.1007911
  95.6627192  51.7461126  45.8792867  93.1836354  44.5796731  49.2138510
  92.2699434  44.8100958  49.3820717  93.6129456  44.6635175  50.0652542
  97.5408909  58.3720081  55.1846783  97.2493718  58.7350062  56.0210244
  96.9281041  57.6587089  55.0060115  90.3676314  45.5300539  52.6182675
  90.8858258  46.2661566  52.2929163  90.0131447  45.8364532  53.4529434
  90.6188908  41.9500822  48.1383571  90.8990662  41.2824011  48.7643998
  91.4039515  42.1429917  47.6258235  94.7791060  44.1276634  47.0051542
  94.5815881  43.8191723  47.8894874  95.3890765  44.8538273  47.1349472
 100.8677691  52.7948445  50.7377934 100.1410855  52.6604410  50.1294426
 100.4524978  53.1025273  51.5434652  93.9143514  46.1186066  44.2626738
  93.3342183  46.7770870  43.8804790  93.6479446  45.2963411  43.8514155
  92.3647080  45.5191124  46.4648058  92.8646858  45.6307659  45.6562377
  93.0082688  45.2152177  47.1048866  92.6968392  48.2786157  43.3183086
  91.8094247  48.5635807  43.1003281  93.1122381  48.1179920  42.4710363
  96.0482928  48.3032678  47.0337425  96.8243318  48.7929130  47.3062042
  95.3231062  48.7290732  47.4909295  98.4855486  49.0160297  48.0911366
  99.0799977  48.7756033  47.3804674  98.5582070  48.2967428  48.7184902
  96.4814221  49.5830425  44.3583496  96.2251155  49.1827060  45.1891703
  95.8567089  50.2974219  44.2333635 100.7926559  52.3226498  46.8654787
 100.2326117  52.3919687  47.6386349 100.1870062  52.1467483  46.1454283
 102.3782578  68.9983012  49.5584743 103.0160987  68.8789759  48.8548083
 102.2603420  69.9463856  49.6172695  99.6692067  70.1045292  55.4532473
  99.6580708  69.7098090  54.5812977  99.8312706  69.3711364  56.0466244
 100.6258658  74.4716884  40.7957623  99.9746638  75.0570964  40.4091637
 101.4203021  75.0023079  40.8552661  96.3899328  72.8882403  54.4011657
  96.0989194  73.7928034  54.2858323  97.0256312  72.9298931  55.1155726
 102.1033923  72.1607316  41.3326608 101.4679756  72.2341942  42.0447512
 101.7731330  72.7500915  40.6545687 107.3332273  66.6609699  47.5370929
 108.0657445  66.0908916  47.7708759 106.5771629  66.2731299  47.9777435
 104.8557693  60.3731273  51.9965538 104.5241018  61.2426684  51.7726753
 104.2603307  60.0567557  52.6759568 101.3489213  72.5743819  51.3961451
 101.0489936  73.4768858  51.2877258 101.0040273  72.3076002  52.2482603
 104.7486357  65.0926359  49.0758888 103.8403234  65.0241768  48.7817649
 104.6973953  65.5698304  49.9040713  98.5703101  66.5684498  40.7142287
  98.4502726  67.0141548  41.5527767  97.8755689  66.9169815  40.1555825
  96.3309993  79.3388139  44.3632418  96.2534023  80.2895964  44.4420899
  95.7271636  78.9934012  45.0207345  98.8227223  66.5116005  57.0193785
  98.0460557  67.0709925  57.0096650  99.4617786  66.9972788  57.5408655
 106.6148003  63.2942798  50.8536762 105.9722383  63.5875331  50.2076556
 106.1102932  63.1795718  51.6589958 104.2688167  67.0405971  41.5422621
 105.1806023  67.2733357  41.3670319 103.7597814  67.6243015  40.9797700
  97.0773595  69.3201458  56.5811752  97.8188279  69.8586502  56.3046576
  96.3710580  69.9467747  56.7383304 102.5528935  71.4630599  55.1783914
 102.9612291  71.0213009  54.4338546 101.8306196  70.8883226  55.4318107
  98.9060005  66.4003205  52.5517471  99.7521200  66.8242619  52.6952120
  98.8458642  65.7436830  53.2456034 102.8757749  72.0231789  48.9336203
 102.2466612  72.1877503  48.2312270 102.4883411  72.4373399  49.7047167
 106.7546981  72.9586227  46.2880566 106.0698019  73.3385128  45.7377600
 106.8390830  73.5681554  47.0212514 102.0559450  64.0607574  54.2098644
 101.8120382  64.8149634  53.6732920 102.3319380  64.4392921  55.0445891
 104.0097913  70.6046186  52.8875910 104.2214808  71.2477946  52.2110291
 103.9627661  69.7708503  52.4197840 101.6124142  63.2164007  49.7912482
 100.7508621  63.5145260  50.0829220 101.6386576  63.4334406  48.8593515
  95.8134959  66.4741106  57.3827062  95.1833619  67.1557387  57.6162459
  95.7071047  66.3624188  56.4380200 105.1243741  73.4818141  51.0598267
 105.9461184  73.0798329  50.7780949 105.1206144  73.3786376  52.0114383
  98.8900344  73.0302185  53.2158978  98.9544777  73.4922592  54.0517150
  98.1811268  72.3999550  53.3441288 113.2149734  69.8256890  47.4083239
 112.4613442  69.2564288  47.2527243 113.3497275  69.7919554  48.3553873
  95.0915701  60.7761872  59.7452313  94.6982647  60.2228071  60.4199957
  95.9081842  61.0872451  60.1358831  93.8672644  75.3311487  45.7388636
  94.0439272  76.2529451  45.5509620  94.6629477  75.0169906  46.1683016
  98.0083662  62.1919751  57.3372570  98.7493376  62.7926904  57.2577032
  98.2401585  61.4497389  56.7790612  93.1525000  67.3776118  55.6150799
  93.0378516  66.4761376  55.9157898  92.2969518  67.6239815  55.2635616
 100.2316838  75.3193859  57.2138300  99.7880692  74.5330237  56.8959205
 100.8934052  75.5073009  56.5482191  94.9903959  76.8489660  51.7398979
  95.5411384  76.7206724  50.9675973  94.1515435  77.1484549  51.3893871
 102.3298076  75.5996659  55.2419701 102.3116552  76.4205540  54.7499971
 103.2517996  75.4750734  55.4669843  98.7871130  73.1140788  56.0843210
  99.3199467  72.3529076  55.8542518  98.2585211  72.8214440  56.8267364
 101.9191108  68.2109465  40.1209287 101.4037731  68.9814070  40.3597674
 101.6468416  67.5374601  40.7442348 106.8925382  70.9641820  42.0562460
 106.1154825  70.6252979  41.6117622 107.5716863  70.9694443  41.3817425
 101.7077411  66.0836557  41.9469068 101.4027547  66.3982707  42.7979211
 102.6607853  66.1617977  41.9896401 105.1316689  70.4375801  48.7129068
 104.4740364  71.1275063  48.8009197 105.9357088  70.8272233  49.0563054
 103.9422148  68.7920174  46.7633010 104.4554030  69.4250166  47.2654720
 104.5923372  68.1921369  46.3976370  98.2976443  70.0606991  36.5996995
  97.3903505  69.8296244  36.7988144  98.7947475  69.2644610  36.7870976
 101.2044522  78.7704498  39.5193681 100.5306221  79.0736195  40.1278639
 101.5910344  79.5733578  39.1699138 104.7083944  73.7726175  44.8912152
 104.2546271  72.9317085  44.9477343 104.0777911  74.4087574  45.2286933
 103.1516883  75.6102672  45.8261971 103.4439858  76.1707729  45.1074336
 103.6615504  75.9031233  46.5815130  99.1740764  71.7028329  38.4609063
  98.7360194  70.9864188  38.0014701  99.9151205  71.9304444  37.8994155
  98.1150509  76.3883023  46.9155424  98.0726687  76.6143869  45.9863956
  99.0313207  76.1546398  47.0641225 101.5616142  66.8567091  53.8136053
 101.9165530  67.0838564  54.6730519 102.2088274  67.1885467  53.1913308
 107.2913879  69.9785527  44.5185382 107.1531778  70.1687122  43.5906571
 106.9350098  70.7404909  44.9753433 107.3183259  72.0462054  49.5296654
 107.7519766  71.9537343  50.3779708 108.0314840  72.0219554  48.8916670
 101.0511154  75.6464148  51.0629754 101.1048176  76.2155084  51.8307470
 100.1825935  75.8166033  50.6983791 108.1798808  72.0885754  52.0629539
 108.3734699  72.9931565  52.3088814 108.0799427  71.6293173  52.8968124
  99.8335119  61.9743645  54.5619866  99.1863034  62.6733594  54.4684343
 100.6036135  62.4079789  54.9296114 103.2413917  72.2392497  57.6370420
 103.0899424  72.0103049  56.7200503 103.2318597  73.1963098  57.6501765
 100.0099254  69.8124410  52.6216686 100.9391314  69.9635569  52.4485653
  99.5890284  69.9008430  51.7665332  98.8087585  73.8375074  50.3915224
  98.6698671  73.4693858  51.2641162  98.0202182  74.3522714  50.2199181
  99.4035737  78.9384171  41.7340760  99.5787493  78.4672214  42.5486383
  98.7168525  79.5649937  41.9622021 103.2951992  70.5612711  38.0541121
 102.6781163  69.8359539  37.9574174 102.8268481  71.3222071  37.7108195
  96.9619345  68.3344266  52.7940322  97.6718964  67.6937458  52.7526941
  96.9188653  68.5857161  53.7166503 104.9506124  75.2711619  55.7146901
 104.8918670  74.5870840  55.0477484 105.3525642  76.0130609  55.2627527
  93.9696823  82.0873533  48.5080620  94.2093421  82.7192057  49.1859639
  93.1266019  81.7361573  48.7945980 104.9523531  73.2351203  53.9460881
 104.0650310  72.8977125  54.0687280 105.5222082  72.5034235  54.1829646
  98.4824684  77.8952656  50.9122124  98.4094856  78.7007627  51.4241429
  98.0402078  78.0944622  50.0870146  98.2714464  77.1324426  44.4224946
  97.4881986  77.6746106  44.5163170  98.9707209  77.6498405  44.8219187
 109.4340872  68.6459421  48.7077443 109.4230748  69.5284136  48.3371376
 108.5658251  68.2930972  48.5131980 100.9423368  77.7939490  53.0680283
 101.6551340  78.4286955  52.9956184 100.4513397  77.8903356  52.2520285
 102.6640895  71.6990742  44.6397575 101.7297174  71.8192205  44.4702279
 102.8417563  70.7963209  44.3757584 106.0513446  67.5408062  45.1747609
 106.5173898  68.3736053  45.1007911 106.5020947  67.0753043  45.8792867
  95.9935281  75.5433933  53.8885854  96.6944741  76.1770416  54.0415248
  95.5230396  75.8848665  53.1281493 104.1189677  73.8851883  42.1733761
 104.3949521  73.7708478  43.0827635 103.2494176  73.4869368  42.1345934
 103.7936567  68.0978541  51.7138404 103.1408018  68.3454448  51.0590857
 104.1716947  67.2842679  51.3800881 100.7543741  78.1338234  45.8166574
 100.9366136  77.3159890  46.2794327 101.5776727  78.3505926  45.3791464
 101.0885907  77.0606419  43.0781623 101.6173673  76.5498874  42.4651785
 101.3514126  76.7448949  43.9427156  99.8424140  68.8398352  58.2004441
  99.1664777  68.7392481  58.8706816 100.6651774  68.6837565  58.6640438
  91.5903000  75.0770288  50.8216956  92.1756436  74.3313976  50.9544861
  91.3927838  75.3874245  51.7053620  94.4441655  78.1121536  45.8379399
  93.7752030  78.5967663  45.3543439  94.3054524  78.3590756  46.7522777
  98.5846923  80.1465279  52.4362057  99.1365231  80.3096901  53.2011142
  98.9253117  80.7369717  51.7642082  93.0363689  64.5663562  56.6856976
  93.6635728  64.1840639  57.2994500  92.1791608  64.3477763  57.0512669
 103.4357798  74.9726537  58.2910712 103.9797702  75.5856495  57.7965666
 102.8544643  75.5306115  58.8077725 101.7215311  78.0947255  49.4225739
 101.5966450  77.2936995  48.9136685 102.3794402  78.5893448  48.9339709
 103.7850219  75.8956275  51.0505289 102.8380555  75.7761626  50.9783616
 104.1332992  75.0078773  51.1331551  96.1449792  61.7850414  54.8743531
  96.6684194  62.0312710  55.6369841  95.9262126  62.6170449  54.4546669
 100.7896652  75.6908991  47.2509642 100.6421615  74.7625698  47.4317212
 101.6150146  75.7129082  46.7666717 104.3930774  76.5137550  48.3374514
 105.3177322  76.3080411  48.1998966 104.2246078  76.2653951  49.2463856
  97.3502337  62.7264109  52.5593202  97.0099158  61.9271922  52.9613882
  96.6441344  63.0265820  51.9870035 104.1826090  77.0323217  43.6936606
 104.3562968  76.4669640  42.9410458 104.6754982  77.8324112  43.5116096
 110.0365482  69.7959640  45.3126906 110.4796628  69.0466965  44.9146029
 109.1591992  69.7869777  44.9300638 105.1701263  76.3489982  40.7933504
 105.8652167  76.9696674  41.0120819 105.5124413  75.4985333  41.0685882
 107.0692686  73.7989687  42.3220835 107.5944010  74.1376960  41.5970155
 106.9815039  72.8636702  42.1383970  98.7312735  77.7123761  54.4510712
  99.0399861  77.4672908  55.3233411  99.5288217  77.9170399  53.9629582
  98.7533347  79.8661670  46.6816088  98.3138337  79.3738049  47.3748945
  99.5041464  79.3234638  46.4408163  91.2325686  76.0573211  46.6840716
  92.0583706  75.7576983  46.3039360  90.8819738  75.2880834  47.1330505
  96.2007219  75.4099680  48.7538390  95.5787228  74.7470385  48.4540618
  96.8712086  75.4360811  48.0712038  96.2731746  63.8881468  58.3470896
  96.3219902  64.7643590  57.9648665  96.8154261  63.3458861  57.7742539
 106.7586592  74.4322591  57.6272033 105.9682136  74.4146730  57.0876532
 106.5219947  74.9710884  58.3821069 106.8784467  71.2815057  54.9404761
 106.9282472  71.1165065  55.8820284 106.7698390  70.4142316  54.5502642
  95.7620726  73.9603603  42.2296850  95.9108846  74.6439067  41.5763523
  96.5687169  73.9408693  42.7446306 104.1688229  67.2645985  56.2564068
 105.0698092  67.1252450  55.9648066 104.2436204  67.4300440  57.1962246
  98.5031035  64.6412840  55.1017254  97.6334344  64.9346406  54.8299843
  98.7390515  65.2253285  55.8224518 108.3802664  73.7011999  55.1846783
 108.0887472  74.0641979  56.0210244 107.7674795  72.9879007  55.0060115
 109.5798346  71.2664878  47.7049353 110.4145238  71.7054683  47.8686914
 109.7157475  70.7903532  46.8857599 106.6289852  68.8244613  53.6526841
 107.1043974  69.0172260  52.8445692 105.7055418  68.8803799  53.4070225
 101.2070069  60.8592457  52.6182675 101.7252012  61.5953484  52.2929163
 100.8525201  61.1656450  53.4529434  99.2616131  76.4551733  39.7008598
  98.6890098  77.0741920  39.2479070  99.8348925  77.0051095  40.2348520
 105.3291521  65.7010373  51.8855147 106.2808944  65.8008471  51.9067371
 105.1594972  64.9088642  52.3953231 103.3505901  62.7865957  52.0714547
 102.7555833  63.0670969  51.3761036 103.0655597  63.2759858  52.8431289
 102.4813391  76.7388883  40.8317180 103.4144064  76.6734445  41.0350056
 102.3936604  77.5745150  40.3731713 105.1101408  76.0554754  37.7921128
 105.0315039  75.7214617  38.6856885 105.9311075  76.5476522  37.7912600
 107.8079599  68.9216493  50.9997446 107.7755919  67.9832494  51.1857130
 108.4180223  69.0000530  50.2663271  99.6462930  67.7912546  37.0424650
 100.5922035  67.6618754  37.1113068  99.2677175  67.0527208  37.5194078
 107.9574087  65.7127537  51.0455729 107.4413136  64.9285993  50.8585658
 108.8414036  65.3846253  51.2102249 113.6256149  69.9832500  50.1403483
 114.3559537  69.7217788  50.7011186 113.0163094  69.2461222  50.1805551
 111.7071446  68.1240363  50.7377934 110.9804609  67.9896327  50.1294426
 111.2918733  68.4317191  51.5434652  99.5301622  71.8430292  58.5025307
 100.4504632  72.0208891  58.6965354  99.4951205  70.8986338  58.3505006
  97.3991560  65.3264533  60.5350837  97.2988287  66.2758890  60.4662928
  97.1813102  64.9982772  59.6626907  97.2622830  68.7561671  59.3515899
  96.7789912  69.5562032  59.5579788  97.3483769  68.7669616  58.3983343
 106.8876682  63.6324595  47.0337425 107.6637072  64.1221048  47.3062042
 106.1624816  64.0582650  47.4909295 109.3249241  64.3452215  48.0911366
 109.9193732  64.1047951  47.3804674 109.3975825  63.6259345  48.7184902
  91.5446397  78.1885826  48.4054531  91.4100864  77.4286227  47.8392529
  91.1278459  78.9126726  47.9383319 102.6805360  73.3722749  37.4131106
 103.3841210  73.5772752  38.0288761 101.9568008  73.9399511  37.6780189
 103.5103170  69.1232610  43.5333376 103.4538371  69.5801162  42.6941008
 104.0631512  68.3623295  43.3556219 107.3207976  64.9122342  44.3583496
 107.0644910  64.5118978  45.1891703 106.6960844  65.6266136  44.2333635
 111.6320314  67.6518416  46.8654787 111.0719872  67.7211605  47.6386349
 111.0263817  67.4759400  46.1454283  94.7015522  79.0855143  48.6172973
  94.5847907  80.0300575  48.5151664  93.8807969  78.7828704  49.0058772
 104.5892057  73.8105278  39.4629566 105.4237661  73.3786477  39.2807041
 104.4276400  73.6387292  40.3906460 104.2437949  70.3137392  40.8285905
 104.1886753  70.1481663  39.8874349 103.6184004  71.0213425  40.9848095
 101.5583856  72.6186304  60.1539468 102.4275016  72.7926956  59.7926103
 101.0790608  73.4380720  60.0315197  95.7270037  79.7383405  51.8328902
  96.6297283  79.7707015  52.1495397  95.5007407  78.8083856  51.8475237
  97.4823639  78.4914391  48.4938980  96.5319270  78.4916253  48.3803353
  97.7856125  77.7447126  47.9775015  93.3727955  62.6973073  58.7522342
  94.2359417  62.3409878  58.9625666  92.7993366  62.3586968  59.4397746
 113.2176332  84.3274929  49.5584743 113.8554742  84.2081677  48.8548083
 113.0997175  85.2755773  49.6172695 110.0266038  84.2802358  49.4946267
 109.6884550  84.1643422  48.6066802 110.8955806  83.8793523  49.4747274
 105.8852854  86.1337834  45.4843158 105.3217719  86.0427771  44.7159446
 105.7705249  85.3137738  45.9645651 110.5085821  85.4337209  55.4532473
 110.4974462  85.0390008  54.5812977 110.6706461  84.7003282  56.0466244
 103.4317286  87.6289026  48.3227379 104.2238578  87.2879850  47.9073678
 103.6713936  87.7384001  49.2429532 111.4652413  89.8008802  40.7957623
 110.8140392  90.3862882  40.4091637 112.2596776  90.3314997  40.8552661
 105.3908040  86.8897939  41.1944758 106.1638916  86.3426926  41.0557633
 105.7433439  87.7542188  41.4059219 107.2293082  88.2174321  54.4011657
 106.9382948  89.1219952  54.2858323 107.8650067  88.2590849  55.1155726
 108.1549289  85.5951170  50.9913017 108.7512862  85.3707192  50.2769979
 108.2124261  84.8535915  51.5938464 107.7274318  83.0490605  38.8263207
 107.9799838  82.5272126  38.0646671 106.7898877  82.8856750  38.9289891
 112.7717601  82.0526383  46.6337951 113.5580690  81.6345807  46.2828368
 113.0356305  82.9572476  46.8019599 112.9427678  87.4899234  41.3326608
 112.3073511  87.5633860  42.0447512 112.6125084  88.0792832  40.6545687
 118.1726028  81.9901617  47.5370929 118.9051200  81.4200833  47.7708759
 117.4165383  81.6023217  47.9777435 107.4470606  84.9518711  41.0287582
 107.3306865  84.2763614  41.6968667 107.5572866  84.4651085  40.2119736
 109.7902147  84.4128858  44.7334272 109.4260355  83.8859479  45.4447193
 110.6469263  84.0227327  44.5600757 115.6951448  75.7023191  51.9965538
 115.3634773  76.5718602  51.7726753 115.0997061  75.3859475  52.6759568
 109.4307634  79.4418758  39.7295620 109.5982037  80.3098994  40.0966091
 109.2404803  79.6046039  38.8056909 112.1882968  87.9035737  51.3961451
 111.8883691  88.8060775  51.2877258 111.8434027  87.6367920  52.2482603
 105.6395449  84.3549533  47.4298155 104.7145945  84.2225748  47.6375847
 105.8879862  85.1343753  47.9268097 115.5880111  80.4218277  49.0758888
 114.6796989  80.3533685  48.7817649 115.5367707  80.8990222  49.9040713
 109.4096855  81.8976415  40.7142287 109.2896480  82.3433466  41.5527767
 108.7149444  82.2461733  40.1555825 103.0004260  83.9982807  48.2641944
 103.1296641  84.2517286  49.1781356 102.3201711  84.5910515  47.9446599
 107.1703747  94.6680057  44.3632418 107.0927777  95.6187882  44.4420899
 106.5665391  94.3225929  45.0207345 109.6620977  81.8407922  57.0193785
 108.8854311  82.4001843  57.0096650 110.3011540  82.3264705  57.5408655
 117.4541758  78.6234715  50.8536762 116.8116138  78.9167248  50.2076556
 116.9496686  78.5087636  51.6589958 115.1081921  82.3697888  41.5422621
 116.0199777  82.6025275  41.3670319 114.5991568  82.9534933  40.9797700
 107.9167349  84.6493376  56.5811752 108.6582034  85.1878420  56.3046576
 107.2104335  85.2759665  56.7383304 113.3922689  86.7922516  55.1783914
 113.8006045  86.3504927  54.4338546 112.6699951  86.2175144  55.4318107
 109.7453759  81.7295123  52.5517471 110.5914954  82.1534537  52.6952120
 109.6852397  81.0728747  53.2456034 113.7151504  87.3523707  48.9336203
 113.0860366  87.5169421  48.2312270 113.3277166  87.7665316  49.7047167
 117.5940736  88.2878145  46.2880566 116.9091774  88.6677046  45.7377600
 117.6784585  88.8973471  47.0212514 112.8953204  79.3899491  54.2098644
 112.6514136  80.1441552  53.6732920 113.1713135  79.7684839  55.0445891
 114.8491667  85.9338104  52.8875910 115.0608562  86.5769864  52.2110291
 114.8021415  85.1000420  52.4197840 112.4517896  78.5455924  49.7912482
 111.5902375  78.8437178  50.0829220 112.4780331  78.7626323  48.8593515
 109.2679466  87.0898115  46.1986288 109.7317811  87.3685818  45.4090910
 109.0036264  86.1881560  46.0159378 106.1603547  86.6369596  49.1366051
 106.7304904  87.0656865  48.4983535 106.7511658  86.3552181  49.8350237
 108.2048352  83.2121267  43.0075853 108.9072395  83.6642311  43.4749779
 107.8728980  82.5705086  43.6355746 106.6528713  81.8033024  57.3827062
 106.0227374  82.4849305  57.6162459 106.5464801  81.6916106  56.4380200
 101.9473686  81.4704820  48.3092986 101.1572740  81.7262349  47.8333097
 102.4384933  82.2853158  48.4145027 115.9637495  88.8110059  51.0598267
 116.7854939  88.4090246  50.7780949 115.9599898  88.7078293  52.0114383
 103.8988431  81.8349399  45.2676463 103.1019594  81.9468093  45.7859959
 103.6714023  82.1736051  44.4017354 109.7294099  88.3594102  53.2158978
 109.7938531  88.8214510  54.0517150 109.0205022  87.7291467  53.3441288
 100.2311389  81.7235310  50.7407977 100.4819427  82.6082320  51.0065553
 100.7670937  81.5439912  49.9683069 109.4442116  90.0262210  43.0837958
 109.3087791  90.8713746  43.5122806 109.9851929  90.2281488  42.3203892
 105.9309456  76.1053790  59.7452313 105.5376401  75.5519988  60.4199957
 106.7475596  76.4164368  60.1358831 102.8971514  87.5437648  43.6565883
 103.4096034  88.3380898  43.8071448 103.5494226  86.8463938  43.5899485
 104.7066398  90.6603404  45.7388636 104.8833027  91.5821369  45.5509620
 105.5023232  90.3461823  46.1683016 108.8477417  77.5211669  57.3372570
 109.5887130  78.1218822  57.2577032 109.0795340  76.7789307  56.7790612
 103.9918755  82.7068036  55.6150799 103.8772270  81.8053293  55.9157898
 103.1363273  82.9531733  55.2635616 111.0710593  90.6485776  57.2138300
 110.6274447  89.8622155  56.8959205 111.7327806  90.8364927  56.5482191
 105.8297714  92.1781578  51.7398979 106.3805139  92.0498641  50.9675973
 104.9909190  92.4776467  51.3893871 113.1691831  90.9288576  55.2419701
 113.1510306  91.7497457  54.7499971 114.0911751  90.8042652  55.4669843
 109.6264885  88.4432706  56.0843210 110.1593222  87.6820994  55.8542518
 109.0978966  88.1506358  56.8267364 112.7934580  73.5492772  51.6136851
 112.4498849  74.4394414  51.5375962 113.1613542  73.3594429  50.7506436
 100.8620430  85.8726302  44.4325454 101.6995652  86.2823311  44.2159161
 101.0398698  84.9325744  44.4025648 112.7584863  83.5401383  40.1209287
 112.2431486  84.3105988  40.3597674 112.4862171  82.8666519  40.7442348
 110.3431974  78.3851084  45.1794525 109.4873570  77.9957934  45.0000164
 110.7558925  78.4643045  44.3194310 111.8731120  75.9197427  49.5786085
 111.3695916  75.8827562  48.7653890 112.1661727  76.8290170  49.6382741
 108.1174006  76.0036157  48.5852266 108.9827003  75.8078965  48.2258156
 108.1851515  75.7746508  49.5121623 117.7319137  86.2933738  42.0562460
 116.9548579  85.9544897  41.6117622 118.4110618  86.2986361  41.3817425
 112.5471166  81.4128475  41.9469068 112.2421301  81.7274624  42.7979211
 113.5001608  81.4909895  41.9896401 110.9917598  87.5718698  43.5962022
 110.4638959  86.8371458  43.2835259 110.4905100  88.3493375  43.3501990
 115.9710444  85.7667719  48.7129068 115.3134118  86.4566980  48.8009197
 116.7750843  86.1564151  49.0563054 105.7236325  78.2338365  45.9568633
 106.2980077  78.0113546  45.2241826 106.3107308  78.3027059  46.7097235
 114.7815902  84.1212092  46.7633010 115.2947784  84.7542083  47.2654720
 115.4317126  83.5213287  46.3976370 106.0505912  80.2642826  39.9764519
 105.2143225  80.6017512  40.2973793 105.9110682  80.1291805  39.0391656
 108.0258993  75.1079614  44.6843703 107.3723405  74.7928631  44.0600317
 107.9839467  74.4855354  45.4103526 109.1370198  85.3898909  36.5996995
 108.2297259  85.1588162  36.7988144 109.6341230  84.5936528  36.7870976
 112.0438277  94.0996416  39.5193681 111.3699975  94.4028113  40.1278639
 112.4304099  94.9025496  39.1699138 111.2596733  81.5961547  49.0091350
 110.3419295  81.8176494  48.8513038 111.6756877  81.6707858  48.1503058
 112.0431781  82.9952963  44.1394031 112.7903600  83.5074360  43.8301153
 112.3123371  82.6737015  44.9998424 110.3158431  85.4911503  41.1220985
 109.4069650  85.2070536  41.2193455 110.3453515  85.9110582  40.2624292
 115.5477699  89.1018093  44.8912152 115.0940026  88.2609003  44.9477343
 114.9171665  89.7379491  45.2286933 114.4910618  80.0310079  46.1212820
 113.7533375  79.5187465  46.4523062 114.7437392  79.5910461  45.3096097
 113.9910638  90.9394590  45.8261971 114.2833612  91.4999647  45.1074336
 114.5009258  91.2323151  46.5815130 114.5922245  72.8086331  46.7154589
 114.8981122  71.9483694  46.4280504 115.3174850  73.4003951  46.5153583
 100.8846602  83.2117018  45.1036187 100.6871001  82.6186378  44.3787254
 100.3293266  82.9069228  45.8212126 108.8643325  83.1040124  47.2230780
 108.9191935  82.1513960  47.1473257 108.0534527  83.2599563  47.7072079
 110.0134519  87.0320247  38.4609063 109.5753949  86.3156106  38.0014701
 110.7544960  87.2596362  37.8994155 106.8035685  81.7217184  44.9821159
 105.9903551  82.0211354  45.3886351 107.2994679  81.3272873  45.6995641
 108.9544263  91.7174941  46.9155424 108.9120442  91.9435787  45.9863956
 109.8706962  91.4838315  47.0641225 112.4009897  82.1859008  53.8136053
 112.7559285  82.4130481  54.6730519 113.0482028  82.5177385  53.1913308
 118.1307634  85.3077444  44.5185382 117.9925532  85.4979040  43.5906571
 117.7743853  86.0696827  44.9753433 106.2949760  79.2935539  50.5982394
 106.9349139  79.1524298  49.9005357 105.4627290  79.0070053  50.2220996
 118.1577013  87.3753971  49.5296654 118.5913520  87.2829260  50.3779708
 118.8708594  87.3511472  48.8916670 107.0710064  88.5937970  46.7117386
 107.8650662  88.0988290  46.5099961 106.3601756  88.0655833  46.3485092
 111.8904908  90.9756065  51.0629754 111.9441931  91.5447002  51.8307470
 111.0219690  91.1457950  50.6983791 103.3792827  82.7381052  42.7877139
 102.4490415  82.6765507  43.0047101 103.4750299  82.2157004  41.9913780
 103.2978376  79.2635864  45.3755381 103.5585194  80.1781198  45.2664541
 104.1195549  78.7960307  45.5251994 104.7703302  80.6773622  52.5454205
 105.4426355  80.4690984  51.8966854 103.9433088  80.4795708  52.1059438
 119.0192563  87.4177672  52.0629539 119.2128453  88.3223482  52.3088814
 118.9193181  86.9585091  52.8968124 110.6728874  77.3035562  54.5619866
 110.0256789  78.0025512  54.4684343 111.4429889  77.7371706  54.9296114
 114.0807672  87.5684415  57.6370420 113.9293178  87.3394966  56.7200503
 114.0712351  88.5255016  57.6501765 110.8493008  85.1416327  52.6216686
 111.7785068  85.2927487  52.4485653 110.4284038  85.2300348  51.7665332
 109.6481340  89.1666992  50.3915224 109.5092425  88.7985776  51.2641162
 108.8595936  89.6814631  50.2199181 110.2429492  94.2676088  41.7340760
 110.4181247  93.7964131  42.5486383 109.5562280  94.8941854  41.9622021
 111.1986555  88.5448594  47.7804061 110.8636388  88.5049364  48.6761711
 110.6990501  87.8793310  47.3074472 105.1730799  83.9516224  53.3056643
 105.0350597  83.2196463  53.9068182 106.0835722  83.8625125  53.0240830
 114.1345747  85.8904629  38.0541121 113.5174917  85.1651457  37.9574174
 113.6662235  86.6513989  37.7108195 107.8013100  83.6636184  52.7940322
 108.5112718  83.0229376  52.7526941 107.7582408  83.9149079  53.7166503
 115.7899878  90.6003537  55.7146901 115.7312424  89.9162757  55.0477484
 116.1919397  91.3422527  55.2627527 106.5142034  80.6501402  54.6135962
 105.9779391  80.1992140  55.2657558 105.9258742  80.7847311  53.8706426
 104.8090577  97.4165451  48.5080620 105.0487175  98.0483975  49.1859639
 103.9659774  97.0653491  48.7945980 105.9244292  80.1090053  37.1762425
 105.0473759  79.9878854  36.8124672 106.4002046  79.3176131  36.9241314
 115.7917286  88.5643121  53.9460881 114.9044064  88.2269043  54.0687280
 116.3615837  87.8326152  54.1829646  97.4446433  84.8967213  47.2703932
  98.1317472  84.5828943  46.6824948  97.2894561  85.8008577  46.9971184
 102.2481155  79.7857409  51.6988956 102.1639344  79.1783079  50.9639366
 101.4263861  80.2766428  51.6998452 109.3218439  93.2244573  50.9122124
 109.2488610  94.0299545  51.4241429 108.8795832  93.4236539  50.0870146
 109.1108219  92.4616343  44.4224946 108.3275740  93.0038024  44.5163170
 109.8100964  92.9790323  44.8219187 112.4204869  78.2710973  47.0659151
 112.9173568  77.5180935  46.7460221 111.6491850  78.3075290  46.5002361
 120.2734626  83.9751338  48.7077443 120.2624502  84.8576054  48.3371376
 119.4052005  83.6222889  48.5131980 111.7817122  93.1231407  53.0680283
 112.4945095  93.7578872  52.9956184 111.2907151  93.2195273  52.2520285
 113.5034649  87.0282660  44.6397575 112.5690928  87.1484123  44.4702279
 113.6811318  86.1255127  44.3757584 109.0039837  80.4128356  46.7930836
 108.6337625  79.8599396  47.4811741 109.4998930  79.8086489  46.2405836
 116.8907201  82.8699979  45.1747609 117.3567653  83.7027971  45.1007911
 117.3414701  82.4044961  45.8792867 106.8329036  90.8725851  53.8885854
 107.5338495  91.5062334  54.0415248 106.3624151  91.2140582  53.1281493
 114.9583432  89.2143801  42.1733761 115.2343276  89.1000395  43.0827635
 114.0887931  88.8161286  42.1345934 114.8623863  75.2380566  49.2138510
 113.9486943  75.4684793  49.3820717 115.2916965  75.3219010  50.0652542
 114.6330322  83.4270458  51.7138404 113.9801772  83.6746366  51.0590857
 115.0110702  82.6134597  51.3800881 111.5937496  93.4630152  45.8166574
 111.7759890  92.6451807  46.2794327 112.4170482  93.6797844  45.3791464
 111.9279661  92.3898337  43.0781623 112.4567428  91.8790791  42.4651785
 112.1907881  92.0740867  43.9427156 110.6817895  84.1690269  58.2004441
 110.0058532  84.0684399  58.8706816 111.5045529  84.0129483  58.6640438
 102.4296754  90.4062206  50.8216956 103.0150191  89.6605894  50.9544861
 102.2321592  90.7166163  51.7053620 105.2835409  93.4413453  45.8379399
 104.6145785  93.9259581  45.3543439 105.1448279  93.6882674  46.7522777
  97.0214409  82.9767806  49.5421400  97.0598508  82.4431397  50.3358518
  96.5154702  82.4503012  48.9232377 109.4240678  95.4757197  52.4362057
 109.9758986  95.6388818  53.2011142 109.7646871  96.0661635  51.7642082
 104.4005171  77.8232347  53.0383942 104.4646498  78.6847178  52.6261340
 104.3372291  77.2106348  52.3056300 103.8757444  79.8955479  56.6856976
 104.5029482  79.5132557  57.2994500 103.0185362  79.6769681  57.0512669
 114.2751552  90.3018454  58.2910712 114.8191456  90.9148413  57.7965666
 113.6938397  90.8598033  58.8077725 100.6522986  81.7031908  42.6175331
 100.9476427  80.7942587  42.5642385  99.7511022  81.6819648  42.2956333
 112.5609065  93.4239172  49.4225739 112.4360205  92.6228912  48.9136685
 113.2188156  93.9185366  48.9339709 104.1817233  79.7787905  48.6002880
 103.4603819  80.3923873  48.4610353 104.9710489  80.3145670  48.5219526
 114.6243973  91.2248192  51.0505289 113.6774309  91.1053544  50.9783616
 114.9726747  90.3370691  51.1331551 106.9843547  77.1142331  54.8743531
 107.5077949  77.3604628  55.6369841 106.7655880  77.9462366  54.4546669
 102.3810828  79.3846006  42.7414656 102.0523534  78.5043385  42.5589762
 102.7350199  79.3293675  43.6291045 111.6290407  91.0200909  47.2509642
 111.4815369  90.0917616  47.4317212 112.4543900  91.0420999  46.7666717
 105.4952651  79.6718976  43.1090134 105.8348724  80.2004897  42.3868742
 105.9424772  80.0099382  43.8848700 115.2324529  91.8429467  48.3374514
 116.1571076  91.6372329  48.1998966 115.0639832  91.5945869  49.2463856
 108.1896092  78.0556027  52.5593202 107.8492912  77.2563840  52.9613882
 107.4835098  78.3557737  51.9870035 108.8412564  75.1405339  51.0120525
 109.6638633  74.6665817  50.8899415 109.0850627  75.9195823  51.5119211
 107.4820798  78.1693597  41.3083427 108.2029161  78.5474850  40.8047143
 106.8586102  78.8882474  41.4118405 111.6251921  78.8738746  42.2441759
 111.8415535  79.7563384  41.9430587 111.1445988  78.4824960  41.5147401
 106.3651142  81.8324460  48.8212503 106.2195723  82.1464763  49.7136785
 105.8876346  82.4509360  48.2683402 108.2247525  78.8227008  48.8693393
 108.2109094  77.9268101  48.5325691 108.9419953  78.8297671  49.5031679
 110.0773656  79.2564348  50.9146520 109.8191434  80.1781418  50.9130851
 109.5458696  78.8594782  51.6046985 115.0219845  92.3615135  43.6936606
 115.1956722  91.7961557  42.9410458 115.5148736  93.1616030  43.5116096
 100.8396805  84.3729804  51.7600165 100.2950273  85.1489612  51.8920439
 101.7176155  84.7200608  51.6019286 107.6284421  77.7041388  44.1380963
 107.7500332  76.7758034  44.3371851 107.3386464  77.7180074  43.2259279
 110.4975612  75.3896298  47.2747683 110.5197309  75.4535631  46.3199663
 110.9143671  74.5500807  47.4688189 120.8759236  85.1251558  45.3126906
 121.3190382  84.3758883  44.9146029 119.9985746  85.1161694  44.9300638
 116.0095017  91.6781899  40.7933504 116.7045922  92.2988592  41.0120819
 116.3518167  90.8277251  41.0685882 101.6262827  83.4999700  54.6530322
 100.8844563  83.6482336  55.2394952 101.3055571  83.7607966  53.7897071
 117.9086440  89.1281605  42.3220835 118.4337765  89.4668878  41.5970155
 117.8208793  88.1928620  42.1383970 109.5706489  93.0415678  54.4510712
 109.8793616  92.7964825  55.3233411 110.3681971  93.2462317  53.9629582
 109.5927101  95.1953588  46.6816088 109.1532091  94.7029967  47.3748945
 110.3435218  94.6526556  46.4408163 102.0719440  91.3865129  46.6840716
 102.8977460  91.0868901  46.3039360 101.7213492  90.6172751  47.1330505
 107.0400973  90.7391597  48.7538390 106.4180983  90.0762302  48.4540618
 107.7105840  90.7652729  48.0712038 100.2728045  89.3051455  47.6429650
  99.4359954  88.8773630  47.4613651 100.2451691  89.4983899  48.5800441
 107.1125501  79.2173385  58.3470896 107.1613656  80.0935508  57.9648665
 107.6548015  78.6750778  57.7742539 117.5980347  89.7614508  57.6272033
 116.8075890  89.7438647  57.0876532 117.3613701  90.3002802  58.3821069
 117.7178222  86.6106975  54.9404761 117.7676226  86.4456982  55.8820284
 117.6092145  85.7434234  54.5502642 106.6014480  89.2895521  42.2296850
 106.7502601  89.9730985  41.5763523 107.4080924  89.2700611  42.7446306
 115.0081984  82.5937903  56.2564068 115.9091847  82.4544368  55.9648066
 115.0829958  82.7592358  57.1962246 109.3424789  79.9704758  55.1017254
 108.4728099  80.2638324  54.8299843 109.5784270  80.5545203  55.8224518
 119.2196418  89.0303916  55.1846783 118.9281227  89.3933897  56.0210244
 118.6068550  88.3170925  55.0060115 120.4192101  86.5956796  47.7049353
 121.2538992  87.0346600  47.8686914 120.5551230  86.1195449  46.8857599
 117.4683607  84.1536531  53.6526841 117.9437728  84.3464177  52.8445692
 116.5449172  84.2095717  53.4070225 104.3567113  85.3160698  43.2357919
 104.1113155  84.4123028  43.4338129 104.5263028  85.3177849  42.2937397
 112.0463823  76.1884375  52.6182675 112.5645767  76.9245401  52.2929163
 111.6918956  76.4948368  53.4529434 103.6262761  81.0489056  40.7344081
 102.9332006  81.1233411  40.0784117 103.3814513  80.2849399  41.2565598
 112.2976417  72.6084657  48.1383571 112.5778171  71.9407846  48.7643998
 113.0827024  72.8013753  47.6258235 110.1009886  91.7843651  39.7008598
 109.5283853  92.4033838  39.2479070 110.6742679  92.3343013  40.2348520
 116.1685276  81.0302291  51.8855147 117.1202699  81.1300389  51.9067371
 115.9988726  80.2380560  52.3953231 114.1899655  78.1157874  52.0714547
 113.5949587  78.3962887  51.3761036 113.9049352  78.6051775  52.8431289
 113.3207146  92.0680801  40.8317180 114.2537819  92.0026363  41.0350056
 113.2330358  92.9037068  40.3731713 115.9495162  91.3846671  37.7921128
 115.8708794  91.0506535  38.6856885 116.7704829  91.8768439  37.7912600
 118.6473353  84.2508411  50.9997446 118.6149674  83.3124411  51.1857130
 119.2573977  84.3292447  50.2663271 110.4856684  83.1204464  37.0424650
 111.4315789  82.9910672  37.1113068 110.1070929  82.3819126  37.5194078
 118.7967842  81.0419454  51.0455729 118.2806891  80.2577911  50.8585658
 119.6807790  80.7138171  51.2102249 116.4578569  74.7860470  47.0051542
 116.2603390  74.4775558  47.8894874 117.0678274  75.5122109  47.1349472
 110.3695377  87.1722210  58.5025307 111.2898386  87.3500809  58.6965354
 110.3344960  86.2278255  58.3505006 108.6699601  81.0454440  36.9779535
 107.7631057  80.7487553  37.0542249 108.9475582  80.7484258  36.1113822
  99.5877542  82.3660804  47.4278582  99.2680326  81.5126112  47.1352956
  99.0410970  82.5809382  48.1836549 103.3657449  85.0823245  51.1448088
 103.5843459  86.0140352  51.1636122 103.7783223  84.7231219  51.9302892
 110.2861667  75.5891330  43.1323777 109.4762395  75.2438415  43.5079023
 110.9746084  75.2798874  43.7211388 112.2152215  74.6669377  44.7548073
 112.7683254  75.0864830  45.4138096 112.4522302  73.7405125  44.7971029
 108.2385315  80.6556450  60.5350837 108.1382042  81.6050807  60.4662928
 108.0206857  80.3274689  59.6626907 107.4398386  77.9041375  37.1191515
 108.3017550  78.2296274  37.3787332 107.6248730  77.1172871  36.6064580
  99.4565802  85.9863715  49.3971703  98.7629273  85.5717668  48.8841658
 100.2038793  86.0284252  48.8005122 115.5931023  76.7769902  44.2626738
 115.0129692  77.4354706  43.8804790 115.3266955  75.9547246  43.8514155
 114.0434589  76.1774960  46.4648058 114.5434367  76.2891494  45.6562377
 114.6870197  75.8736012  47.1048866 108.1016585  84.0853589  59.3515899
 107.6183666  84.8853949  59.5579788 108.1877524  84.0961534  58.3983343
 101.3702544  85.9181969  47.2737718 101.3473232  86.0169656  46.3219601
 101.6803181  86.7647120  47.5954884 104.0289922  87.9758124  51.3884333
 104.9833176  87.9442066  51.3214264 103.8302446  87.5148748  52.2034559
 104.6189304  86.5459240  53.9555130 105.4382193  87.0403319  53.9789968
 104.8926112  85.6291208  53.9272698 114.3755901  78.9369992  43.3183086
 113.4881756  79.2219643  43.1003281 114.7909890  78.7763756  42.4710363
 117.7270437  78.9616513  47.0337425 118.5030827  79.4512966  47.3062042
 117.0018571  79.3874567  47.4909295 120.1642995  79.6744132  48.0911366
 120.7587486  79.4339868  47.3804674 120.2369579  78.9551263  48.7184902
 102.3840151  93.5177743  48.4054531 102.2494619  92.7578144  47.8392529
 101.9672213  94.2418643  47.9383319 113.5199114  88.7014667  37.4131106
 114.2234964  88.9064669  38.0288761 112.7961763  89.2691429  37.6780189
 114.3496924  84.4524528  43.5333376 114.2932126  84.9093080  42.6941008
 114.9025267  83.6915213  43.3556219 118.1601730  80.2414260  44.3583496
 117.9038664  79.8410896  45.1891703 117.5354598  80.9558054  44.2333635
 122.4714068  82.9810333  46.8654787 121.9113626  83.0503523  47.6386349
 121.8657571  82.8051318  46.1454283 105.5409277  94.4147060  48.6172973
 105.4241661  95.3592493  48.5151664 104.7201723  94.1120622  49.0058772
 115.4285811  89.1397196  39.4629566 116.2631415  88.7078395  39.2807041
 115.2670154  88.9679210  40.3906460 115.0831704  85.6429309  40.8285905
 115.0280507  85.4773581  39.8874349 114.4577759  86.3505342  40.9848095
  99.8724219  80.8797374  54.6547327 100.5183082  80.3696328  55.1434553
  99.6641370  81.6166055  55.2290753 112.3977611  87.9478221  60.1539468
 113.2668770  88.1218874  59.7926103 111.9184362  88.7672638  60.0315197
 108.3927829  75.1437418  40.4071224 108.3806499  76.0879258  40.5639495
 109.2851251  74.9607564  40.1130685 106.5663791  95.0675322  51.8328902
 107.4691038  95.0998933  52.1495397 106.3401161  94.1375773  51.8475237
 108.3217393  93.8206309  48.4938980 107.3713024  93.8208170  48.3803353
 108.6249879  93.0739043  47.9775015 112.2079949  71.7380195  44.6617160
 111.4412344  71.1838682  44.8073843 112.6190653  71.8102064  45.5231312
 104.2121710  78.0264991  58.7522342 105.0753171  77.6701796  58.9625666
 103.6387120  77.6878886  59.4397746 120.8659793  99.6094275  49.4946267
 120.5278304  99.4935340  48.6066802 121.7349561  99.2085440  49.4747274
 116.7246608 101.4629752  45.4843158 116.1611474 101.3719689  44.7159446
 116.6099004 100.6429656  45.9645651 121.3479576 100.7629127  55.4532473
 121.3368217 100.3681925  54.5812977 121.5100215 100.0295200  56.0466244
 114.2711040 102.9580943  48.3227379 115.0632332 102.6171768  47.9073678
 114.5107691 103.0675918  49.2429532 116.2301794 102.2189857  41.1944758
 117.0032670 101.6718844  41.0557633 116.5827193 103.0834106  41.4059219
 118.0686837 103.5466239  54.4011657 117.7776703 104.4511870  54.2858323
 118.7043821 103.5882766  55.1155726 118.9943044 100.9243087  50.9913017
 119.5906616 100.6999110  50.2769979 119.0518015 100.1827833  51.5938464
 118.5668072  98.3782523  38.8263207 118.8193593  97.8564044  38.0646671
 117.6292631  98.2148668  38.9289891 118.2864361 100.2810629  41.0287582
 118.1700619  99.6055532  41.6968667 118.3966621  99.7943003  40.2119736
 120.6295902  99.7420776  44.7334272 120.2654109  99.2151397  45.4447193
 121.4863018  99.3519245  44.5600757 120.2701389  94.7710675  39.7295620
 120.4375791  95.6390912  40.0966091 120.0798558  94.9337957  38.8056909
 116.4789203  99.6841451  47.4298155 115.5539700  99.5517665  47.6375847
 116.7273617 100.4635670  47.9268097 120.2490610  97.2268333  40.7142287
 120.1290235  97.6725384  41.5527767 119.5543198  97.5753651  40.1555825
 113.8398015  99.3274725  48.2641944 113.9690396  99.5809204  49.1781356
 113.1595466  99.9202433  47.9446599 120.5014732  97.1699840  57.0193785
 119.7248066  97.7293760  57.0096650 121.1405295  97.6556623  57.5408655
 118.7561104  99.9785293  56.5811752 119.4975788 100.5170337  56.3046576
 118.0498089 100.6051582  56.7383304 120.5847514  97.0587041  52.5517471
 121.4308709  97.4826454  52.6952120 120.5246151  96.4020665  53.2456034
 120.1073220 102.4190033  46.1986288 120.5711566 102.6977736  45.4090910
 119.8430018 101.5173477  46.0159378 116.9997301 101.9661514  49.1366051
 117.5698658 102.3948783  48.4983535 117.5905413 101.6844099  49.8350237
 119.0442106  98.5413185  43.0075853 119.7466149  98.9934229  43.4749779
 118.7122735  97.8997004  43.6355746 117.4922468  97.1324942  57.3827062
 116.8621128  97.8141222  57.6162459 117.3858556  97.0208023  56.4380200
 112.7867440  96.7996738  48.3092986 111.9966494  97.0554266  47.8333097
 113.2778687  97.6145076  48.4145027 114.7382185  97.1641317  45.2676463
 113.9413349  97.2760011  45.7859959 114.5107778  97.5027969  44.4017354
 120.5687853 103.6886020  53.2158978 120.6332286 104.1506427  54.0517150
 119.8598777 103.0583385  53.3441288 111.0705143  97.0527228  50.7407977
 111.3213181  97.9374238  51.0065553 111.6064691  96.8731830  49.9683069
 120.2835871 105.3554128  43.0837958 120.1481546 106.2005663  43.5122806
 120.8245683 105.5573405  42.3203892 116.7703210  91.4345707  59.7452313
 116.3770156  90.8811906  60.4199957 117.5869351  91.7456286  60.1358831
 113.7365268 102.8729566  43.6565883 114.2489789 103.6672816  43.8071448
 114.3887981 102.1755856  43.5899485 115.5460153 105.9895322  45.7388636
 115.7226781 106.9113287  45.5509620 116.3416986 105.6753741  46.1683016
 119.6871171  92.8503587  57.3372570 120.4280885  93.4510740  57.2577032
 119.9189094  92.1081224  56.7790612 114.8312509  98.0359954  55.6150799
 114.7166024  97.1345211  55.9157898 113.9757027  98.2823651  55.2635616
 116.6691468 107.5073496  51.7398979 117.2198893 107.3790559  50.9675973
 115.8302944 107.8068385  51.3893871 120.4658639 103.7724624  56.0843210
 120.9986976 103.0112912  55.8542518 119.9372720 103.4798275  56.8267364
 111.7014185 101.2018220  44.4325454 112.5389407 101.6115228  44.2159161
 111.8792453 100.2617662  44.4025648 121.1825728  93.7143001  45.1794525
 120.3267324  93.3249852  45.0000164 121.5952680  93.7934962  44.3194310
 118.9567761  91.3328074  48.5852266 119.8220757  91.1370883  48.2258156
 119.0245269  91.1038426  49.5121623 121.8311352 102.9010616  43.5962022
 121.3032714 102.1663376  43.2835259 121.3298855 103.6785292  43.3501990
 116.5630080  93.5630282  45.9568633 117.1373832  93.3405464  45.2241826
 117.1501062  93.6318977  46.7097235 116.8899667  95.5934743  39.9764519
 116.0536979  95.9309430  40.2973793 116.7504436  95.4583723  39.0391656
 118.8652747  90.4371531  44.6843703 118.2117160  90.1220548  44.0600317
 118.8233221  89.8147272  45.4103526 119.9763952 100.7190826  36.5996995
 119.0691014 100.4880080  36.7988144 120.4734984  99.9228446  36.7870976
 121.1552186 100.8203421  41.1220985 120.2463405 100.5362454  41.2193455
 121.1847269 101.2402500  40.2624292 111.7240356  98.5408935  45.1036187
 111.5264756  97.9478296  44.3787254 111.1687020  98.2361145  45.8212126
 119.7037080  98.4332042  47.2230780 119.7585689  97.4805878  47.1473257
 118.8928282  98.5891481  47.7072079 120.8528273 102.3612165  38.4609063
 120.4147703 101.6448024  38.0014701 121.5938714 102.5888280  37.8994155
 117.6429440  97.0509101  44.9821159 116.8297305  97.3503272  45.3886351
 118.1388434  96.6564790  45.6995641 117.1343514  94.6227457  50.5982394
 117.7742894  94.4816216  49.9005357 116.3021045  94.3361970  50.2220996
 117.9103818 103.9229887  46.7117386 118.7044417 103.4280208  46.5099961
 117.1995511 103.3947751  46.3485092 114.2186582  98.0672969  42.7877139
 113.2884170  98.0057425  43.0047101 114.3144054  97.5448922  41.9913780
 114.1372131  94.5927782  45.3755381 114.3978948  95.5073115  45.2664541
 114.9589303  94.1252225  45.5251994 115.6097056  96.0065539  52.5454205
 116.2820110  95.7982901  51.8966854 114.7826843  95.8087625  52.1059438
 121.5122628  92.6327480  54.5619866 120.8650543  93.3317430  54.4684343
 122.2823644  93.0663624  54.9296114 120.4875094 104.4958909  50.3915224
 120.3486180 104.1277694  51.2641162 119.6989690 105.0106549  50.2199181
 122.0380309 103.8740512  47.7804061 121.7030142 103.8341282  48.6761711
 121.5384255 103.2085228  47.3074472 116.0124553  99.2808142  53.3056643
 115.8744351  98.5488381  53.9068182 116.9229477  99.1917042  53.0240830
 118.6406854  98.9928101  52.7940322 119.3506473  98.3521294  52.7526941
 118.5976162  99.2440996  53.7166503 117.3535788  95.9793319  54.6135962
 116.8173145  95.5284058  55.2657558 116.7652496  96.1139228  53.8706426
 116.7638047  95.4381971  37.1762425 115.8867513  95.3170772  36.8124672
 117.2395800  94.6468049  36.9241314 108.2840187 100.2259131  47.2703932
 108.9711227  99.9120861  46.6824948 108.1288316 101.1300495  46.9971184
 113.0874909  95.1149327  51.6988956 113.0033098  94.5074997  50.9639366
 112.2657616  95.6058345  51.6998452 119.8433592  95.7420274  46.7930836
 119.4731379  95.1891314  47.4811741 120.3392684  95.1378407  46.2405836
 117.6722790 106.2017769  53.8885854 118.3732250 106.8354252  54.0415248
 117.2017905 106.5432500  53.1281493 121.5211649  99.4982187  58.2004441
 120.8452286  99.3976316  58.8706816 122.3439283  99.3421401  58.6640438
 113.2690509 105.7354124  50.8216956 113.8543945 104.9897812  50.9544861
 113.0715347 106.0458080  51.7053620 116.1229164 108.7705371  45.8379399
 115.4539539 109.2551499  45.3543439 115.9842033 109.0174591  46.7522777
 107.8608163  98.3059724  49.5421400 107.8992263  97.7723315  50.3358518
 107.3548456  97.7794929  48.9232377 115.2398926  93.1524264  53.0383942
 115.3040252  94.0139095  52.6261340 115.1766046  92.5398266  52.3056300
 114.7151198  95.2247397  56.6856976 115.3423237  94.8424474  57.2994500
 113.8579117  95.0061599  57.0512669 111.4916741  97.0323826  42.6175331
 111.7870182  96.1234504  42.5642385 110.5904777  97.0111565  42.2956333
 115.0210988  95.1079823  48.6002880 114.2997574  95.7215790  48.4610353
 115.8104244  95.6437587  48.5219526 117.8237301  92.4434249  54.8743531
 118.3471703  92.6896546  55.6369841 117.6049635  93.2754284  54.4546669
 113.2204582  94.7137924  42.7414656 112.8917289  93.8335303  42.5589762
 113.5743953  94.6585592  43.6291045 116.3346406  95.0010893  43.1090134
 116.6742478  95.5296815  42.3868742 116.7818526  95.3391300  43.8848700
 119.0289846  93.3847944  52.5593202 118.6886667  92.5855757  52.9613882
 118.3228853  93.6849655  51.9870035 119.6806318  90.4697257  51.0120525
 120.5032388  89.9957735  50.8899415 119.9244382  91.2487740  51.5119211
 118.3214553  93.4985515  41.3083427 119.0422915  93.8766768  40.8047143
 117.6979857  94.2174392  41.4118405 117.2044897  97.1616377  48.8212503
 117.0589478  97.4756680  49.7136785 116.7270101  97.7801278  48.2683402
 119.0641280  94.1518925  48.8693393 119.0502849  93.2560019  48.5325691
 119.7813708  94.1589589  49.5031679 120.9167411  94.5856265  50.9146520
 120.6585188  95.5073336  50.9130851 120.3852451  94.1886700  51.6046985
 111.6790559  99.7021722  51.7600165 111.1344027 100.4781530  51.8920439
 112.5569909 100.0492526  51.6019286 118.4678176  93.0333306  44.1380963
 118.5894087  92.1049952  44.3371851 118.1780218  93.0471991  43.2259279
 121.3369366  90.7188216  47.2747683 121.3591063  90.7827549  46.3199663
 121.7537425  89.8792725  47.4688189 112.4656581  98.8291618  54.6530322
 111.7238317  98.9774253  55.2394952 112.1449325  99.0899884  53.7897071
 112.9113195 106.7157047  46.6840716 113.7371215 106.4160819  46.3039360
 112.5607247 105.9464669  47.1330505 117.8794728 106.0683515  48.7538390
 117.2574737 105.4054220  48.4540618 118.5499595 106.0944647  48.0712038
 111.1121800 104.6343373  47.6429650 110.2753708 104.2065547  47.4613651
 111.0845445 104.8275816  48.5800441 117.9519255  94.5465303  58.3470896
 118.0007411  95.4227426  57.9648665 118.4941770  94.0042696  57.7742539
 117.4408235 104.6187438  42.2296850 117.5896355 105.3022903  41.5763523
 118.2474678 104.5992528  42.7446306 120.1818544  95.2996675  55.1017254
 119.3121853  95.5930241  54.8299843 120.4178024  95.8837120  55.8224518
 115.1960868 100.6452616  43.2357919 114.9506910  99.7414946  43.4338129
 115.3656782 100.6469766  42.2937397 114.4656515  96.3780973  40.7344081
 113.7725760  96.4525328  40.0784117 114.2208267  95.6141317  41.2565598
 121.3250439  98.4496381  37.0424650 122.2709543  98.3202590  37.1113068
 120.9464684  97.7111043  37.5194078 121.2089131 102.5014128  58.5025307
 122.1292141 102.6792727  58.6965354 121.1738714 101.5570173  58.3505006
 119.5093356  96.3746358  36.9779535 118.6024811  96.0779471  37.0542249
 119.7869337  96.0776176  36.1113822 110.4271296  97.6952721  47.4278582
 110.1074081  96.8418029  47.1352956 109.8804724  97.9101299  48.1836549
 114.2051204 100.4115162  51.1448088 114.4237214 101.3432270  51.1636122
 114.6176978 100.0523137  51.9302892 121.1255422  90.9183248  43.1323777
 120.3156150  90.5730332  43.5079023 121.8139839  90.6090791  43.7211388
 119.0779069  95.9848368  60.5350837 118.9775796  96.9342725  60.4662928
 118.8600611  95.6566607  59.6626907 118.2792141  93.2333293  37.1191515
 119.1411305  93.5588191  37.3787332 118.4642485  92.4464789  36.6064580
 110.2959556 101.3155633  49.3971703 109.6023028 100.9009585  48.8841658
 111.0432547 101.3576169  48.8005122 118.9410339  99.4145507  59.3515899
 118.4577421 100.2145867  59.5579788 119.0271278  99.4253452  58.3983343
 112.2096299 101.2473886  47.2737718 112.1866987 101.3461574  46.3219601
 112.5196935 102.0939037  47.5954884 114.8683677 103.3050042  51.3884333
 115.8226930 103.2733984  51.3214264 114.6696200 102.8440665  52.2034559
 115.4583059 101.8751158  53.9555130 116.2775948 102.3695236  53.9789968
 115.7319867 100.9583126  53.9272698 113.2233906 108.8469661  48.4054531
 113.0888373 108.0870062  47.8392529 112.8065968 109.5710561  47.9383319
 110.7117973  96.2089291  54.6547327 111.3576837  95.6988245  55.1434553
 110.5035124  96.9457973  55.2290753 119.2321584  90.4729336  40.4071224
 119.2200253  91.4171176  40.5639495 120.1245005  90.2899481  40.1130685
 115.0515464  93.3556908  58.7522342 115.9146926  92.9993713  58.9625666
 114.4780875  93.0170803  59.4397746  52.9734976  -4.9717409  31.0877725
  52.8959006  -4.0209584  31.1666205  52.3696620  -5.3171536  31.7452651
  50.6121806  -2.2232015  35.2325927  50.8518404  -1.5913491  35.9104945
  49.7691002  -2.5743975  35.5191286  51.0866638  -6.1984012  32.5624705
  50.4177013  -5.7137885  32.0788746  50.9479508  -5.9514792  33.4768084
  55.2271907  -4.1640269  39.1607364  55.7790215  -4.0008647  39.9256449
  55.5678100  -3.5735831  38.4887389  55.3958330  -4.4443878  33.4061395
  54.9563320  -4.9367499  34.0994251  56.1466447  -4.9870910  33.1653470
  48.1871380  -6.1219722  35.1299837  48.0525848  -6.8819322  34.5637835
  47.7703442  -5.3978823  34.6628626  51.3440506  -5.2250405  35.3418280
  51.2272890  -4.2804973  35.2396970  50.5232952  -5.5276844  35.7304079
  52.3695020  -4.5722144  38.5574208  53.2722267  -4.5398533  38.8740703
  52.1432390  -5.5021693  38.5720544  66.6691022  -0.0303191  36.2191574
  66.3309533  -0.1462126  35.3312109  67.5380790  -0.4312025  36.1992580
  62.5277837   1.8232286  32.2088465  61.9642702   1.7322223  31.4404753
  62.4130232   1.0032190  32.6890958  67.1510805   1.1231661  42.1777780
  67.1399445   0.7284459  41.3058283  67.3131444   0.3897734  42.7711551
  60.0742269   3.3183478  35.0472685  60.8663561   2.9774302  34.6318985
  60.3138919   3.4278453  35.9674839  68.1077396   5.4903254  27.5202930
  67.4565376   6.0757334  27.1336944  68.9021759   6.0209449  27.5797967
  62.0333023   2.5792391  27.9190064  62.8063899   2.0321378  27.7802940
  62.3858422   3.4436640  28.1304526  63.8718066   3.9068773  41.1256964
  63.5807932   4.8114404  41.0103630  64.5075050   3.9485301  41.8401033
  64.7974273   1.2845622  37.7158323  65.3937845   1.0601644  37.0015286
  64.8549244   0.5430367  38.3183771  64.3699301  -1.2614943  25.5508514
  64.6224822  -1.7833422  24.7891977  63.4323860  -1.4248798  25.6535198
  69.5852661   3.1793686  28.0571914  68.9498494   3.2528312  28.7692819
  69.2550068   3.7687284  27.3790993  64.0895590   0.6413163  27.7532889
  63.9731848  -0.0341934  28.4213973  64.1997850   0.1545537  26.9365042
  66.4327131   0.1023310  31.4579578  66.0685338  -0.4246069  32.1692500
  67.2894247  -0.2878221  31.2846064  68.8307951   3.5930189  38.1206757
  68.5308674   4.4955227  38.0122564  68.4859010   3.3262372  38.9727910
  62.2820432   0.0443985  34.1543462  61.3570929  -0.0879801  34.3621153
  62.5304846   0.8238205  34.6513404  59.6429243  -0.3122741  34.9887251
  59.7721625  -0.0588262  35.9026662  58.9626695   0.2804967  34.6691906
  63.8128731  10.3574509  31.0877725  63.7352760  11.3082334  31.1666205
  63.2090374  10.0120381  31.7452651  64.5592333   0.3387828  43.3057059
  65.3007017   0.8772872  43.0291882  63.8529318   0.9654116  43.4628611
  70.0347672   2.4816968  41.9029220  70.4431028   2.0399379  41.1583853
  69.3124934   1.9069596  42.1563413  70.3576487   3.0418159  35.6581509
  69.7285349   3.2063873  34.9557577  69.9702149   3.4559768  36.4292473
  74.2365719   3.9772597  33.0125873  73.5516757   4.3571498  32.4622906
  74.3209568   4.5867923  33.7457821  71.4916650   1.6232556  39.6121216
  71.7033546   2.2664316  38.9355598  71.4446399   0.7894872  39.1443147
  65.9104449   2.7792567  32.9231594  66.3742794   3.0580270  32.1336217
  65.6461247   1.8776011  32.7404685  62.8028530   2.3264048  35.8611358
  63.3729887   2.7551317  35.2228842  63.3936642   2.0446633  36.5595543
  64.8473335  -1.0984281  29.7321159  65.5497378  -0.6463237  30.1995086
  64.5153963  -1.7400462  30.3601053  63.2953696  -2.5072524  44.1072369
  62.6652357  -1.8256243  44.3407766  63.1889784  -2.6189443  43.1625507
  58.5898669  -2.8400728  35.0338293  57.7997723  -2.5843200  34.5578404
  59.0809916  -2.0252390  35.1390334  72.6062478   4.5004511  37.7843574
  73.4279922   4.0984698  37.5026255  72.6024881   4.3972745  38.7359690
  60.5413414  -2.4756149  31.9921770  59.7444578  -2.3637455  32.5105265
  60.3139006  -2.1369497  31.1262660  66.3719082   4.0488554  39.9404284
  66.4363514   4.5108962  40.7762456  65.6630006   3.4185919  40.0686594
  56.8736372  -2.5870238  37.4653284  57.1244410  -1.7023228  37.7310860
  57.4095920  -2.7665636  36.6928376  66.0867100   5.7156662  29.8083265
  65.9512774   6.5608198  30.2368112  66.6276912   5.9175939  29.0449198
  59.5396497   3.2332100  30.3811190  60.0521017   4.0275350  30.5316754
  60.1919210   2.5358390  30.3144791  61.3491382   6.3497856  32.4633943
  61.5258010   7.2715821  32.2754927  62.1448215   6.0356275  32.8928323
  60.6343738  -1.6037512  42.3396106  60.5197253  -2.5052255  42.6403205
  59.7788256  -1.3573815  41.9880923  67.7135576   6.3380228  43.9383607
  67.2699430   5.5516607  43.6204511  68.3752789   6.5259379  43.2727498
  62.4722697   7.8676030  38.4644285  63.0230122   7.7393093  37.6921279
  61.6334173   8.1670919  38.1139178  69.8116814   6.6183028  41.9665008
  69.7935289   7.4391909  41.4745277  70.7336734   6.4937103  42.1915149
  66.2689868   4.1327158  42.8088516  66.8018205   3.3715446  42.5787824
  65.7403949   3.8400810  43.5512671  57.5045414   1.5620754  31.1570760
  58.3420636   1.9717763  30.9404468  57.6823681   0.6220196  31.1270954
  74.3744120   1.9828189  28.7807767  73.5973563   1.6439349  28.3362929
  75.0535601   1.9880813  28.1062732  67.6342581   3.2613150  30.3207328
  67.1063942   2.5265910  30.0080566  67.1330084   4.0387827  30.0747297
  72.6135427   1.4562171  35.4374375  71.9559101   2.1461432  35.5254503
  73.4175826   1.8458603  35.7808361  65.7795181   1.0793361  23.3242301
  64.8722243   0.8482614  23.5233450  66.2766213   0.2830980  23.5116283
  68.6863260   9.7890868  26.2438988  68.0124959  10.0922564  26.8523945
  69.0729082  10.5919948  25.8944445  66.9583414   1.1805955  27.8466292
  66.0494634   0.8964988  27.9438761  66.9878498   1.6005034  26.9869598
  72.1902682   4.7912545  31.6157459  71.7365009   3.9503455  31.6722650
  71.5596649   5.4273943  31.9532239  70.6335621   6.6289042  32.5507277
  70.9258595   7.1894099  31.8319643  71.1434242   6.9217603  33.3060436
  57.5271585  -1.0988531  31.8281494  57.3295985  -1.6919170  31.1032560
  56.9718249  -1.4036320  32.5457432  66.6559502   2.7214699  25.1854370
  66.2178932   2.0050558  24.7260007  67.3969943   2.9490814  24.6239461
  65.5969246   7.4069393  33.6400730  65.5545425   7.6330239  32.7109262
  66.5131945   7.1732767  33.7886532  74.8001997   3.0648423  36.2541960
  75.2338503   2.9723712  37.1025014  75.5133577   3.0405924  35.6161976
  63.7135047   4.2832422  33.4362693  64.5075646   3.7882742  33.2345268
  63.0026739   3.7550285  33.0730399  68.5329892   6.6650517  37.7875061
  68.5866914   7.2341454  38.5552777  67.6644673   6.8352402  37.4229098
  60.0217811  -1.5724497  29.5122446  59.0915399  -1.6340041  29.7292408
  60.1175283  -2.0948544  28.7159087  75.6617546   3.1072124  38.7874846
  75.8553436   4.0117934  39.0334120  75.5618164   2.6479543  39.6213431
  70.7232655   3.2578866  44.3615726  70.5718161   3.0289418  43.4445810
  70.7137334   4.2149468  44.3747071  67.4917991   0.8310779  39.3461993
  68.4210051   0.9821939  39.1730960  67.0709021   0.9194800  38.4910639
  66.2906323   4.8561444  37.1160530  66.1517409   4.4880228  37.9886468
  65.5020919   5.3709083  36.9444488  66.8854475   9.9570540  28.4586067
  67.0606231   9.4858583  29.2731689  66.1987263  10.5836306  28.6867327
  67.8411538   4.2343046  34.5049368  67.5061371   4.1943816  35.4007018
  67.3415484   3.5687762  34.0319778  61.8155782  -0.3589324  40.0301949
  61.6775580  -1.0909085  40.6313488  62.7260706  -0.4480424  39.7486137
  70.7770730   1.5799081  24.7786428  70.1599901   0.8545909  24.6819480
  70.3087218   2.3408441  24.4353502  64.4438083  -0.6469364  39.5185629
  65.1537701  -1.2876172  39.4772247  64.4007391  -0.3956469  40.4411810
  72.4324862   6.2897989  42.4392208  72.3737408   5.6057209  41.7722791
  72.8344380   7.0316979  41.9872834  61.4515560  13.1059903  35.2325927
  61.6912159  13.7378427  35.9104945  60.6084757  12.7547943  35.5191286
  72.4342269   4.2537573  40.6706188  71.5469048   3.9163495  40.7932587
  73.0040820   3.5220604  40.9074953  54.0871416   0.5861665  33.9949239
  54.7742456   0.2723395  33.4070254  53.9319545   1.4903029  33.7216491
  65.9643422   8.9139025  37.6367431  65.8913594   9.7193997  38.1486735
  65.5220815   9.1130991  36.8115452  65.7533202   8.1510795  31.1470252
  64.9700724   8.6932476  31.2408477  66.4525947   8.6684775  31.5464494
  68.4242106   8.8125859  39.7925590  69.1370078   9.4473324  39.7201491
  67.9332134   8.9089725  38.9765591  70.1459633   2.7177112  31.3642881
  69.2115911   2.8378574  31.1947586  70.3236301   1.8149579  31.1002891
  63.4754019   6.5620303  40.6131160  64.1763479   7.1956786  40.7660555
  63.0049134   6.9035034  39.8526800  71.6008415   4.9038253  28.8979067
  71.8768259   4.7894847  29.8072941  70.7312914   4.5055737  28.8591241
  68.2362479   9.1524603  32.5411881  68.4184874   8.3346259  33.0039633
  69.0595465   9.3692296  32.1036771  68.5704645   8.0792789  29.8026930
  69.0992411   7.5685243  29.1897092  68.8332864   7.7635319  30.6672463
  67.3242878  -0.1415279  44.9249748  66.6483515  -0.2421149  45.5952123
  68.1470512  -0.2976065  45.3885745  59.0721737   6.0956658  37.5462263
  59.6575174   5.3500346  37.6790167  58.8746576   6.4060615  38.4298927
  61.9260393   9.1307905  32.5624705  61.2570768   9.6154033  32.0788746
  61.7873262   9.3777126  33.4768084  53.6639392  -1.3337742  36.2666706
  53.7023492  -1.8674151  37.0603824  53.1579685  -1.8602536  35.6477683
  66.0665661  11.1651649  39.1607364  66.6183969  11.3283270  39.9256449
  66.4071855  11.7556087  38.4887389  70.9176535   5.9912906  45.0156018
  71.4616439   6.6042865  44.5210973  70.3363380   6.5492485  45.5323031
  57.2947970  -2.6073640  29.3420638  57.5901411  -3.5162961  29.2887691
  56.3936005  -2.6285900  29.0201640  69.2034048   9.1133624  36.1471046
  69.0785188   8.3123364  35.6381991  69.8613140   9.6079818  35.6585016
  71.2668957   6.9142644  37.7750596  70.3199292   6.7947996  37.7028923
  71.6151730   6.0265142  37.8576857  68.2715390   6.7095361  33.9754948
  68.1240353   5.7812068  34.1562518  69.0968884   6.7315451  33.4912024
  71.8749512   7.5323919  35.0619821  72.7996059   7.3266781  34.9244272
  71.7064815   7.2840320  35.9709163  63.0076126  -2.4781089  35.5457810
  62.8620706  -2.1640785  36.4382092  62.5301329  -1.8596188  34.9928709
  71.6644828   8.0509587  30.4181913  71.8381706   7.4856009  29.6655765
  72.1573719   8.8510482  30.2361402  57.4821788   0.0624256  38.4845471
  56.9375256   0.8384064  38.6165746  58.3601138   0.4095060  38.3264593
  72.6520001   7.3676351  27.5178811  73.3470905   7.9883044  27.7366125
  72.9943151   6.5171702  27.7931189  58.2687810  -0.8105848  41.3775628
  57.5269546  -0.6623213  41.9640259  57.9480554  -0.5497582  40.5142378
  74.5511424   4.8176057  29.0466142  75.0762748   5.1563329  28.3215462
  74.4633776   3.8823072  28.8629276  66.2131472   8.7310130  41.1756018
  66.5218599   8.4859277  42.0478718  67.0106954   8.9356769  40.6874888
  66.2352084  10.8848040  33.4061395  65.7957075  10.3924419  34.0994251
  66.9860201  10.3421008  33.1653470  58.7144423   7.0759581  33.4086023
  59.5402443   6.7763353  33.0284666  58.3638475   6.3067203  33.8575811
  63.6825957   6.4286049  35.4783696  63.0605966   5.7656754  35.1785924
  64.3530824   6.4547181  34.7957344  56.9153029   4.9945907  34.3674956
  56.0784937   4.5668082  34.1858958  56.8876674   5.1878351  35.3045748
  74.2405330   5.4508960  44.3517340  73.4500874   5.4333099  43.8121839
  74.0038684   5.9897254  45.1066376  74.3603205   2.3001427  41.6650068
  74.4101210   2.1351434  42.6065591  74.2517128   1.4328686  41.2747949
  63.2439464   4.9789972  28.9542157  63.3927584   5.6625437  28.3008830
  64.0505907   4.9595062  29.4691613  75.8621402   4.7198368  41.9092090
  75.5706210   5.0828349  42.7455551  75.2493533   4.0065377  41.7305422
  60.9992097   1.0055150  29.9603226  60.7538138   0.1017480  30.1583436
  61.1688011   1.0072301  29.0182704  66.7434869   7.4738103  26.4253904
  66.1708836   8.0928290  25.9724376  67.3167663   8.0237465  26.9593826
  69.9632129   7.7575253  27.5562487  70.8962802   7.6920815  27.7595362
  69.8755342   8.5931520  27.0977019  72.5920146   7.0741123  24.5166434
  72.5133777   6.7400987  25.4102192  73.4129812   7.5662891  24.5157907
  67.0120360   2.8616662  45.2270614  67.9323370   3.0395261  45.4210660
  66.9769943   1.9172707  45.0750313  56.2302525  -1.9444745  34.1523888
  55.9105309  -2.7979436  33.8598262  55.6835953  -1.7296166  34.9081856
  60.0082433   0.7717696  37.8693395  60.2268442   1.7034804  37.8881429
  60.4208206   0.4125671  38.6548199  56.0990785   1.6758167  36.1217010
  55.4054257   1.2612120  35.6086964  56.8463776   1.7178703  35.5250429
  64.7441568  -0.2251959  46.0761206  64.2608650   0.5748401  46.2825095
  64.8302507  -0.2144014  45.1228650  58.0127528   1.6076421  33.9983025
  57.9898216   1.7064108  33.0464908  58.3228164   2.4541571  34.3200191
  60.6714906   3.6652576  38.1129639  61.6258159   3.6336518  38.0459571
  60.4727429   3.2043199  38.9279865  61.2614288   2.2353692  40.6800437
  62.0807177   2.7297770  40.7035274  61.5351095   1.3185660  40.6518005
  59.0265134   9.2072195  35.1299837  58.8919602   8.4472596  34.5637835
  58.6097197   9.9313095  34.6628626  70.1624097   4.3909119  24.1376413
  70.8659947   4.5959121  24.7534068  69.4386746   4.9585881  24.4025496
  62.1834260  10.1041512  35.3418280  62.0666644  11.0486945  35.2396970
  61.3626706   9.8015074  35.7304079  72.0710795   4.8291648  26.1874873
  72.9056399   4.3972846  26.0052347  71.9095138   4.6573662  27.1151767
  71.7256687   1.3323761  27.5531212  71.6705491   1.1668033  26.6119656
  71.1002742   2.0399794  27.7093402  56.5149202  -3.4308174  41.3792634
  57.1608065  -3.9409220  41.8679859  56.3066353  -2.6939493  41.9536059
  69.0402594   3.6372673  46.8784775  69.9093754   3.8113325  46.5171410
  68.5609346   4.4567090  46.7560504  63.2088774  10.7569774  38.5574208
  64.1116021  10.7893384  38.8740703  62.9826144   9.8270225  38.5720544
  64.9642376   9.5100761  35.2184287  64.0138007   9.5102622  35.1048659
  65.2674862   8.7633495  34.7020322  80.6995070  15.3461299  36.2830049
  81.3373480  15.2268046  35.5793389  80.5815913  16.2942143  36.3418001
  77.5084776  15.2988727  36.2191574  77.1703288  15.1829792  35.3312109
  78.3774544  14.8979892  36.1992580  73.3671592  17.1524204  32.2088465
  72.8036457  17.0614141  31.4404753  73.2523987  16.3324108  32.6890958
  77.9904559  16.4523579  42.1777780  77.9793200  16.0576377  41.3058283
  78.1525199  15.7189652  42.7711551  70.9136024  18.6475395  35.0472685
  71.7057316  18.3066220  34.6318985  71.1532674  18.7570370  35.9674839
  78.9471151  20.8195171  27.5202930  78.2959130  21.4049252  27.1336944
  79.7415513  21.3501366  27.5797967  72.8726778  17.9084308  27.9190064
  73.6457654  17.3613296  27.7802940  73.2252177  18.7728558  28.1304526
  74.7111820  19.2360691  41.1256964  74.4201686  20.1406322  41.0103630
  75.3468805  19.2777218  41.8401033  75.6368027  16.6137539  37.7158323
  76.2331599  16.3893562  37.0015286  75.6942999  15.8722285  38.3183771
  75.2093055  14.0676975  25.5508514  75.4618576  13.5458496  24.7891977
  74.2717615  13.9043120  25.6535198  80.2536338  13.0712753  33.3583257
  81.0399428  12.6532176  33.0073674  80.5175043  13.9758845  33.5264906
  80.4246416  18.5085603  28.0571914  79.7892249  18.5820230  28.7692819
  80.0943822  19.0979202  27.3790993  85.6544765  13.0087986  34.2616236
  86.3869937  12.4387203  34.4954065  84.8984121  12.6209587  34.7022741
  74.9289344  15.9705081  27.7532889  74.8125602  15.2949984  28.4213973
  75.0391604  15.4837454  26.9365042  77.2720885  15.4315228  31.4579578
  76.9079092  14.9045849  32.1692500  78.1288001  15.0413697  31.2846064
  83.1770186   6.7209560  38.7210844  82.8453511   7.5904971  38.4972059
  82.5815799   6.4045844  39.4004875  76.9126372  10.4605127  26.4540927
  77.0800774  11.3285364  26.8211398  76.7223541  10.6232409  25.5302216
  79.6701705  18.9222106  38.1206757  79.3702428  19.8247145  38.0122564
  79.3252765  18.6554289  38.9727910  73.1214187  15.3735903  34.1543462
  72.1964683  15.2412117  34.3621153  73.3698600  16.1530122  34.6513404
  83.0698849  11.4404646  35.8004195  82.1615726  11.3720055  35.5062956
  83.0186445  11.9176591  36.6286020  76.8915593  12.9162785  27.4387594
  76.7715218  13.3619836  28.2773074  76.1968181  13.2648102  26.8801132
  70.4822998  15.0169177  34.9887251  70.6115379  15.2703656  35.9026662
  69.8020449  15.6096885  34.6691906  74.6522485  25.6866427  31.0877725
  74.5746515  26.6374252  31.1666205  74.0484129  25.3412299  31.7452651
  77.1439715  12.8594292  43.7439092  76.3673049  13.4188212  43.7341956
  77.7830278  13.3451075  44.2653962  84.9360496   9.6421085  37.5782068
  84.2934876   9.9353618  36.9321863  84.4315424   9.5274005  38.3835265
  82.5900659  13.3884258  28.2667928  83.5018515  13.6211645  28.0915625
  82.0810306  13.9721302  27.7043006  75.3986087  15.6679745  43.3057059
  76.1400772  16.2064789  43.0291882  74.6923073  16.2946034  43.4628611
  80.8741427  17.8108886  41.9029220  81.2824783  17.3691296  41.1583853
  80.1518688  17.2361513  42.1563413  77.2272497  12.7481493  39.2762777
  78.0733692  13.1720906  39.4197426  77.1671135  12.0915117  39.9701340
  81.1970241  18.3710076  35.6581509  80.5679104  18.5355791  34.9557577
  80.8095904  18.7851686  36.4292473  85.0759473  19.3064514  33.0125873
  84.3910512  19.6863416  32.4622906  85.1603323  19.9159841  33.7457821
  80.3771942  10.4085861  40.9343951  80.1332874  11.1627921  40.3978227
  80.6531873  10.7871209  41.7691198  82.3310405  16.9524473  39.6121216
  82.5427300  17.5956233  38.9355598  82.2840153  16.1186790  39.1443147
  79.9336634   9.5642294  36.5157789  79.0721113   9.8623548  36.8074526
  79.9599069   9.7812693  35.5838821  76.7498203  18.1084485  32.9231594
  77.2136549  18.3872188  32.1336217  76.4855001  17.2067929  32.7404685
  73.6422284  17.6555966  35.8611358  74.2123641  18.0843234  35.2228842
  74.2330396  17.3738551  36.5595543  75.6867089  14.2307637  29.7321159
  76.3891133  14.6828681  30.1995086  75.3547718  13.5891456  30.3601053
  74.1347451  12.8219394  44.1072369  73.5046112  13.5035674  44.3407766
  74.0283539  12.7102475  43.1625507  69.4292423  12.4891190  35.0338293
  68.6391477  12.7448718  34.5578404  69.9203671  13.3039527  35.1390334
  83.4456233  19.8296429  37.7843574  84.2673677  19.4276616  37.5026255
  83.4418636  19.7264663  38.7359690  71.3807169  12.8535769  31.9921770
  70.5838332  12.9654463  32.5105265  71.1532761  13.1922421  31.1262660
  77.2112836  19.3780472  39.9404284  77.2757269  19.8400879  40.7762456
  76.5023760  18.7477837  40.0686594  67.7130126  12.7421680  37.4653284
  67.9638165  13.6268690  37.7310860  68.2489675  12.5626282  36.6928376
  91.5362226  16.1735177  34.1328545  90.7825934  15.6042575  33.9772550
  91.6709767  16.1397842  35.0799180  76.9260854  21.0448580  29.8083265
  76.7906529  21.8900115  30.2368112  77.4670667  21.2467857  29.0449198
  73.4128194   7.1240159  46.4697620  73.0195139   6.5706358  47.1445264
  74.2294334   7.4350738  46.8604137  70.3790251  18.5624018  30.3811190
  70.8914772  19.3567268  30.5316754  71.0312964  17.8650308  30.3144791
  72.1885136  21.6789774  32.4633943  72.3651764  22.6007739  32.2754927
  72.9841970  21.3648193  32.8928323  76.3296155   8.5398038  44.0617876
  77.0705868   9.1405192  43.9822339  76.5614077   7.7975676  43.5035919
  71.4737493  13.7254406  42.3396106  71.3591008  12.8239663  42.6403205
  70.6182010  13.9718102  41.9880923  78.5529330  21.6672146  43.9383607
  78.1093185  20.8808525  43.6204511  79.2146544  21.8551297  43.2727498
  73.3116452  23.1967948  38.4644285  73.8623877  23.0685011  37.6921279
  72.4727927  23.4962837  38.1139178  80.6510568  21.9474946  41.9665008
  80.6329044  22.7683827  41.4745277  81.5730489  21.8229021  42.1915149
  77.1083623  19.4619075  42.8088516  77.6411959  18.7007364  42.5787824
  76.5797704  19.1692727  43.5512671  80.2753318   4.5679141  38.3382158
  79.9317587   5.4580783  38.2621269  80.6432280   4.3780799  37.4751743
  68.3439168  16.8912672  31.1570760  69.1814390  17.3009680  30.9404468
  68.5217436  15.9512114  31.1270954  80.2403600  14.5587752  26.8454593
  79.7250224  15.3292357  27.0842981  79.9680909  13.8852889  27.4687655
  77.8250711   9.4037453  31.9039832  76.9692308   9.0144304  31.7245470
  78.2377663   9.4829414  31.0439617  79.3549858   6.9383797  36.3031391
  78.8514654   6.9013932  35.4899197  79.6480465   7.8476539  36.3628048
  75.5992744   7.0222526  35.3097573  76.4645741   6.8265335  34.9503463
  75.6670253   6.7932878  36.2366930  85.2137874  17.3120107  28.7807767
  84.4367317  16.9731267  28.3362929  85.8929355  17.3172730  28.1062732
  80.0289903  12.4314845  28.6714374  79.7240039  12.7460994  29.5224518
  80.9820346  12.5096264  28.7141707  78.4736335  18.5905068  30.3207328
  77.9457697  17.8557827  30.0080566  77.9723838  19.3679744  30.0747297
  83.4529181  16.7854088  35.4374375  82.7952856  17.4753350  35.5254503
  84.2569581  17.1750520  35.7808361  73.2055063   9.2524734  32.6813940
  73.7798815   9.0299916  31.9487133  73.7926045   9.3213429  33.4342541
  82.2634640  15.1398461  33.4878316  82.7766522  15.7728453  33.9900026
  82.9135864  14.5399657  33.1221676  73.5324650  11.2829195  26.7009825
  72.6961962  11.6203882  27.0219100  73.3929420  11.1478175  25.7636962
  75.5077731   6.1265983  31.4089009  74.8542143   5.8115000  30.7845624
  75.4658205   5.5041724  32.1348832  76.6188936  16.4085278  23.3242301
  75.7115997  16.1774532  23.5233450  77.1159967  15.6122897  23.5116283
  79.5257014  25.1182785  26.2438988  78.8518713  25.4214482  26.8523945
  79.9122836  25.9211866  25.8944445  78.7415471  12.6147917  35.7336657
  77.8238032  12.8362864  35.5758345  79.1575615  12.6894227  34.8748364
  79.5250519  14.0139332  30.8639337  80.2722338  14.5260730  30.5546459
  79.7942108  13.6923385  31.7243731  77.7977169  16.5097873  27.8466292
  76.8888388  16.2256906  27.9438761  77.8272253  16.9296952  26.9869598
  83.0296436  20.1204463  31.6157459  82.5758763  19.2795372  31.6722650
  82.3990403  20.7565861  31.9532239  81.9729356  11.0496449  32.8458127
  81.2352113  10.5373835  33.1768369  82.2256129  10.6096830  32.0341403
  81.4729376  21.9580959  32.5507277  81.7652350  22.5186016  31.8319643
  81.9827996  22.2509520  33.3060436  68.3665339  14.2303387  31.8281494
  68.1689739  13.6372748  31.1032560  67.8112003  13.9255597  32.5457432
  76.3462063  14.1226494  33.9476087  76.4010673  13.1700330  33.8718563
  75.5353265  14.2785933  34.4317385  77.4953257  18.0506617  25.1854370
  77.0572687  17.3342476  24.7260007  78.2363698  18.2782732  24.6239461
  74.2854423  12.7403553  31.7066466  73.4722288  13.0397724  32.1131658
  74.7813417  12.3459242  32.4240948  76.4363001  22.7361310  33.6400730
  76.3939180  22.9622157  32.7109262  77.3525700  22.5024685  33.7886532
  79.8828635  13.2045378  40.5381360  80.2378022  13.4316851  41.3975825
  80.5300766  13.5363755  39.9158615  85.6126372  16.3263814  31.2430689
  85.4744270  16.5165410  30.3151878  85.2562590  17.0883197  31.6998740
  73.7768498  10.3121909  37.3227701  74.4167877  10.1710668  36.6250664
  72.9446028  10.0256422  36.9466303  85.6395751  18.3940341  36.2541960
  86.0732258  18.3015630  37.1025014  86.3527332  18.3697841  35.6161976
  74.5528802  19.6124339  33.4362693  75.3469400  19.1174659  33.2345268
  73.8420494  19.0842202  33.0730399  79.3723646  21.9942435  37.7875061
  79.4260668  22.5633371  38.5552777  78.5038427  22.1644320  37.4229098
  70.8611565  13.7567421  29.5122446  69.9309153  13.6951877  29.7292408
  70.9569037  13.2343374  28.7159087  70.7797114  10.2822234  32.1000687
  71.0403931  11.1967567  31.9909848  71.6014286   9.8146676  32.2497300
  72.2522039  11.6959991  39.2699512  72.9245093  11.4877353  38.6212161
  71.4251826  11.4982077  38.8304744  86.5011301  18.4364041  38.7874846
  86.6947191  19.3409852  39.0334120  86.4011919  17.9771460  39.6213431
  78.1547611   8.3221932  41.2865173  77.5075526   9.0211882  41.1929649
  78.9248627   8.7558076  41.6541421  81.5626409  18.5870784  44.3615726
  81.4111916  18.3581336  43.4445810  81.5531089  19.5441386  44.3747071
  78.3311746  16.1602697  39.3461993  79.2603806  16.3113857  39.1730960
  77.9102776  16.2486718  38.4910639  77.1300078  20.1853361  37.1160530
  76.9911163  19.8172146  37.9886468  76.3414674  20.7001001  36.9444488
  77.7248230  25.2862458  28.4586067  77.8999985  24.8150501  29.2731689
  77.0381018  25.9128224  28.6867327  78.6805293  19.5634964  34.5049368
  78.3455125  19.5235734  35.4007018  78.1809238  18.8979680  34.0319778
  72.6549537  14.9702594  40.0301949  72.5169335  14.2382833  40.6313488
  73.5654460  14.8811494  39.7486137  81.6164484  16.9090998  24.7786428
  80.9993655  16.1837827  24.6819480  81.1480973  17.6700359  24.4353502
  75.2831837  14.6822553  39.5185629  75.9931456  14.0415746  39.4772247
  75.2401146  14.9335448  40.4411810  83.2718616  21.6189907  42.4392208
  83.2131162  20.9349127  41.7722791  83.6738134  22.3608897  41.9872834
  73.9960771  11.6687771  41.3381268  73.4598128  11.2178510  41.9902865
  73.4077480  11.8033680  40.5951733  73.4063030  11.1276423  23.9007732
  72.5292497  11.0065223  23.5369979  73.8820783  10.3362501  23.6486621
  83.2736023  19.5829491  40.6706188  82.3862802  19.2455412  40.7932587
  83.8434574  18.8512522  40.9074953  64.9265170  15.9153582  33.9949239
  65.6136210  15.6015312  33.4070254  64.7713299  16.8194947  33.7216491
  69.7299893  10.8043779  38.4234263  69.6458081  10.1969449  37.6884673
  68.9082599  11.2952797  38.4243759  76.8037177  24.2430943  37.6367431
  76.7307348  25.0485914  38.1486735  76.3614570  24.4422909  36.8115452
  76.5926956  23.4802713  31.1470252  75.8094478  24.0224393  31.2408477
  77.2919701  23.9976693  31.5464494  79.9023606   9.2897342  33.7904458
  80.3992306   8.5367305  33.4705528  79.1310588   9.3261659  33.2247667
  87.7553364  14.9937708  35.4322749  87.7443240  15.8762423  35.0616682
  86.8870743  14.6409259  35.2377286  80.9853387  18.0469030  31.3642881
  80.0509666  18.1670492  31.1947586  81.1630056  17.1441496  31.1002891
  76.4858575  11.4314725  33.5176142  76.1156363  10.8785766  34.2057048
  76.9817668  10.8272859  32.9651142  84.3725938  13.8886349  31.8992915
  84.8386391  14.7214341  31.8253218  84.8233439  13.4231331  32.6038174
  74.3147774  21.8912220  40.6131160  75.0157233  22.5248703  40.7660555
  73.8442889  22.2326952  39.8526800  82.4402170  20.2330170  28.8979067
  82.7162013  20.1186765  29.8072941  81.5706668  19.8347655  28.8591241
  82.3442601   6.2566936  35.9383817  81.4305681   6.4871163  36.1066024
  82.7735703   6.3405380  36.7897849  82.1149060  14.4456828  38.4383711
  81.4620510  14.6932735  37.7836163  82.4929440  13.6320966  38.1046188
  79.0756234  24.4816521  32.5411881  79.2578628  23.6638177  33.0039633
  79.8989220  24.6984213  32.1036771  79.4098399  23.4084706  29.8026930
  79.9386166  22.8977161  29.1897092  79.6726619  23.0927236  30.6672463
  78.1636633  15.1876639  44.9249748  77.4877270  15.0870768  45.5952123
  78.9864267  15.0315853  45.3885745  69.9115492  21.4248576  37.5462263
  70.4968929  20.6792263  37.6790167  69.7140330  21.7352532  38.4298927
  72.7654147  24.4599823  32.5624705  72.0964522  24.9445951  32.0788746
  72.6267017  24.7069043  33.4768084  64.5033147  13.9954176  36.2666706
  64.5417246  13.4617766  37.0603824  63.9973439  13.4689381  35.6477683
  76.9059416  26.4943566  39.1607364  77.4577724  26.6575188  39.9256449
  77.2465609  27.0848004  38.4887389  71.8823909   8.8418716  39.7629249
  71.9465235   9.7033547  39.3506646  71.8191029   8.2292718  39.0301607
  71.3576181  10.9141849  43.4102283  71.9848220  10.5318926  44.0239807
  70.5004100  10.6956051  43.7757975  81.7570290  21.3204824  45.0156018
  82.3010194  21.9334782  44.5210973  81.1757135  21.8784402  45.5323031
  68.1341724  12.7218278  29.3420638  68.4295165  11.8128956  29.2887691
  67.2329760  12.7006017  29.0201640  80.0427803  24.4425542  36.1471046
  79.9178942  23.6415282  35.6381991  80.7006894  24.9371735  35.6585016
  71.6635971  10.7974274  35.3248186  70.9422557  11.4110242  35.1855660
  72.4529227  11.3332039  35.2464832  82.1062711  22.2434562  37.7750596
  81.1593047  22.1239913  37.7028923  82.4545484  21.3557060  37.8576857
  74.4662285   8.1328701  41.5988838  74.9896686   8.3790998  42.3615147
  74.2474618   8.9648736  41.1791975  69.8629566  10.4032376  29.4659963
  69.5342272   9.5229754  29.2835069  70.2168936  10.3480044  30.3536352
  79.1109145  22.0387278  33.9754948  78.9634107  21.1103986  34.1562518
  79.9362638  22.0607369  33.4912024  72.9771389  10.6905345  29.8335440
  73.3167461  11.2191267  29.1114049  73.4243509  11.0285751  30.6094007
  82.7143266  22.8615837  35.0619821  83.6389814  22.6558698  34.9244272
  82.5458570  22.6132238  35.9709163  75.6714830   9.0742396  39.2838508
  75.3311650   8.2750209  39.6859188  74.9653836   9.3744107  38.7115342
  76.3231302   6.1591708  37.7365832  77.1457371   5.6852187  37.6144722
  76.5669365   6.9382192  38.2364518  74.9639536   9.1879967  28.0328733
  75.6847899   9.5661220  27.5292450  74.3404840   9.9068844  28.1363711
  79.1070659   9.8925116  28.9687066  79.3234273  10.7749754  28.6675894
  78.6264726   9.5011329  28.2392708  73.8469880  12.8510829  35.5457810
  73.7014461  13.1651132  36.4382092  73.3695084  13.4695729  34.9928709
  75.7066263   9.8413377  35.5938700  75.6927832   8.9454470  35.2570998
  76.4238691   9.8484041  36.2276986  77.5592394  10.2750717  37.6391827
  77.3010172  11.1967788  37.6376158  77.0277434   9.8781152  38.3292291
  82.5038583  23.3801504  30.4181913  82.6775460  22.8147927  29.6655765
  82.9967474  24.1802399  30.2361402  68.3215542  15.3916174  38.4845471
  67.7769011  16.1675982  38.6165746  69.1994892  15.7386978  38.3264593
  75.1103159   8.7227757  30.8626270  75.2319070   7.7944404  31.0617157
  74.8205201   8.7366443  29.9504585  77.9794349   6.4082668  33.9992990
  78.0016046   6.4722001  33.0444969  78.3962408   5.5687176  34.1933496
  88.3577974  16.1437927  32.0372212  88.8009120  15.3945253  31.6391336
  87.4804484  16.1348064  31.6545944  83.4913755  22.6968269  27.5178811
  84.1864660  23.3174962  27.7366125  83.8336905  21.8463620  27.7931189
  69.1081564  14.5186070  41.3775628  68.3663300  14.6668705  41.9640259
  68.7874309  14.7794335  40.5142378  85.3905178  20.1467974  29.0466142
  85.9156502  20.4855247  28.3215462  85.3027531  19.2114990  28.8629276
  77.0525227  24.0602048  41.1756018  77.3612353  23.8151195  42.0478718
  77.8500709  24.2648687  40.6874888  77.0745839  26.2139958  33.4061395
  76.6350829  25.7216336  34.0994251  77.8253956  25.6712925  33.1653470
  69.5538178  22.4051499  33.4086023  70.3796198  22.1055270  33.0284666
  69.2032230  21.6359121  33.8575811  74.5219711  21.7577967  35.4783696
  73.8999720  21.0948672  35.1785924  75.1924578  21.7839099  34.7957344
  67.7546783  20.3237825  34.3674956  66.9178691  19.8959999  34.1858958
  67.7270428  20.5170268  35.3045748  74.5944239  10.2359755  45.0716202
  74.6432394  11.1121878  44.6893972  75.1366753   9.6937148  44.4987846
  85.0799084  20.7800878  44.3517340  84.2894628  20.7625017  43.8121839
  84.8432439  21.3189172  45.1066376  85.1996959  17.6293344  41.6650068
  85.2494964  17.4643352  42.6065591  85.0910883  16.7620603  41.2747949
  74.0833218  20.3081890  28.9542157  74.2321338  20.9917354  28.3008830
  74.8899661  20.2886980  29.4691613  82.4900722  13.6124272  42.9809375
  83.3910584  13.4730737  42.6893373  82.5648696  13.7778727  43.9207552
  76.8243527  10.9891127  41.8262561  75.9546836  11.2824693  41.5545150
  77.0603007  11.5731572  42.5469825  86.7015156  20.0490286  41.9092090
  86.4099964  20.4120266  42.7455551  86.0887287  19.3357294  41.7305422
  87.9010838  17.6143166  34.4294660  88.7357730  18.0532970  34.5932220
  88.0369967  17.1381819  33.6102906  84.9502344  15.1722901  40.3772148
  85.4256466  15.3650547  39.5690999  84.0267910  15.2282086  40.1315531
  71.8385851  16.3347068  29.9603226  71.5931893  15.4309398  30.1583436
  72.0081766  16.3364218  29.0182704  79.5282561   7.2070744  39.3427981
  80.0464505   7.9431771  39.0174470  79.1737694   7.5134737  40.1774741
  71.1081499  12.0675425  27.4589387  70.4150743  12.1419780  26.8029423
  70.8633250  11.3035769  27.9810904  77.5828624  22.8030021  26.4253904
  77.0102591  23.4220208  25.9724376  78.1561417  23.3529382  26.9593826
  83.6504013  12.0488661  38.6100453  84.6021436  12.1486758  38.6312677
  83.4807464  11.2566929  39.1198538  81.6718393   9.1344244  38.7959854
  81.0768325   9.4149257  38.1006343  81.3868090   9.6238145  39.5676595
  80.8025883  23.0867171  27.5562487  81.7356557  23.0212732  27.7595362
  80.7149096  23.9223438  27.0977019  83.4313900  22.4033041  24.5166434
  83.3527532  22.0692905  25.4102192  84.2523567  22.8954809  24.5157907
  86.1292091  15.2694780  37.7242753  86.0968411  14.3310781  37.9102437
  86.7392715  15.3478817  36.9908578  77.9675422  14.1390833  23.7669957
  78.9134527  14.0097041  23.8358375  77.5889667  13.4005495  24.2439385
  86.2786580  12.0605824  37.7701036  85.7625628  11.2764280  37.5830965
  87.1626528  11.7324540  37.9347555  83.9397307   5.8046839  33.7296849
  83.7422128   5.4961928  34.6140181  84.5497012   6.5308478  33.8594779
  91.9468641  16.3310787  36.8648790  92.6772030  16.0696075  37.4256493
  91.3375587  15.5939509  36.9050858  90.0283938  14.4718650  37.4623241
  89.3017102  14.3374615  36.8539732  89.6131225  14.7795478  38.2679959
  77.8514115  18.1908579  45.2270614  78.7717124  18.3687178  45.4210660
  77.8163698  17.2464625  45.0750313  76.1518339  12.0640810  23.7024842
  75.2449795  11.7673922  23.7787556  76.4294320  11.7670628  22.8359128
  67.0696280  13.3847173  34.1523888  66.7499064  12.5312481  33.8598262
  66.5229708  13.5995751  34.9081856  70.8476187  16.1009614  37.8693395
  71.0662197  17.0326722  37.8881429  71.2601961  15.7417588  38.6548199
  77.7680405   6.6077699  29.8569083  76.9581133   6.2624784  30.2324329
  78.4564822   6.2985243  30.4456695  79.6970953   5.6855746  31.4793380
  80.2501992   6.1051200  32.1383403  79.9341040   4.7591494  31.5216336
  75.7204052  11.6742820  47.2596144  75.6200779  12.6237177  47.1908235
  75.5025595  11.3461059  46.3872214  74.9217124   8.9227745  23.8436821
  75.7836288   9.2482643  24.1032639  75.1067468   8.1359241  23.3309887
  66.9384540  17.0050085  36.1217010  66.2448011  16.5904037  35.6086964
  67.6857531  17.0470621  35.5250429  83.0749760   7.7956271  30.9872044
  82.4948429   8.4541075  30.6050097  82.8085693   6.9733616  30.5759462
  81.5253327   7.1961329  33.1893365  82.0253105   7.3077864  32.3807683
  82.1688935   6.8922382  33.8294173  75.5835323  15.1039959  46.0761206
  75.1002404  15.9040319  46.2825095  75.6696262  15.1147904  45.1228650
  68.8521282  16.9368338  33.9983025  68.8291970  17.0356026  33.0464908
  69.1621919  17.7833489  34.3200191  71.5108660  18.9944493  38.1129639
  72.4651914  18.9628436  38.0459571  71.3121184  18.5335117  38.9279865
  72.1008042  17.5645609  40.6800437  72.9200931  18.0589688  40.7035274
  72.3744850  16.6477578  40.6518005  81.8574638   9.9556362  30.0428393
  80.9700493  10.2406012  29.8248587  82.2728627   9.7950125  29.1955669
  85.2089174   9.9802883  33.7582732  85.9849565  10.4699335  34.0307349
  84.4837309  10.4060937  34.2154601  87.6461733  10.6930502  34.8156672
  88.2406224  10.4526238  34.1049981  87.7188317   9.9737633  35.4430209
  69.8658889  24.5364113  35.1299837  69.7313357  23.7764514  34.5637835
  69.4490951  25.2605013  34.6628626  81.0017852  19.7201036  24.1376413
  81.7053702  19.9251039  24.7534068  80.2780501  20.2877798  24.4025496
  81.8315662  15.4710898  30.2578683  81.7750863  15.9279449  29.4186315
  82.3844005  14.7101582  30.0801525  85.6420468  11.2600630  31.0828802
  85.3857402  10.8597265  31.9137010  85.0173336  11.9744423  30.9578941
  89.9532806  13.9996703  33.5900094  89.3932364  14.0689892  34.3631656
  89.3476309  13.8237687  32.8699590  73.0228015  25.4333430  35.3418280
  72.9060399  26.3778862  35.2396970  72.2020461  25.1306991  35.7304079
  82.9104549  20.1583566  26.1874873  83.7450153  19.7264764  26.0052347
  82.7488892  19.9865579  27.1151767  82.5650441  16.6615679  27.5531212
  82.5099245  16.4959950  26.6119656  81.9396497  17.3691712  27.7093402
  67.3542956  11.8983743  41.3792634  68.0001820  11.3882697  41.8679859
  67.1460107  12.6352425  41.9536059  79.8796349  18.9664591  46.8784775
  80.7487508  19.1405243  46.5171410  79.4003100  19.7859008  46.7560504
  75.8746567   6.1623788  27.1316530  75.8625237   7.1065628  27.2884801
  76.7669989   5.9793933  26.8375991  74.0482529  26.0861692  38.5574208
  74.9509776  26.1185302  38.8740703  73.8219899  25.1562143  38.5720544
  75.8036131  24.8392678  35.2184287  74.8531762  24.8394540  35.1048659
  76.1068617  24.0925413  34.7020322  71.6940447   9.0451360  45.4767648
  72.5571909   8.6888165  45.6870973  71.1205858   8.7065255  46.1643053
  91.5388824  30.6753217  36.2830049  92.1767234  30.5559964  35.5793389
  91.4209667  31.6234061  36.3418001  88.3478531  30.6280645  36.2191574
  88.0097042  30.5121710  35.3312109  89.2168299  30.2271810  36.1992580
  86.0486810  29.3968892  25.5508514  86.3012331  28.8750413  24.7891977
  85.1111369  29.2335038  25.6535198  91.0930093  28.4004671  33.3583257
  91.8793182  27.9824094  33.0073674  91.3568797  29.3050763  33.5264906
  96.4938520  28.3379904  34.2616236  97.2263692  27.7679121  34.4954065
  95.7377876  27.9501504  34.7022741  85.7683099  31.2996998  27.7532889
  85.6519357  30.6241902  28.4213973  85.8785359  30.8129372  26.9365042
  88.1114640  30.7607145  31.4579578  87.7472847  30.2337766  32.1692500
  88.9681756  30.3705614  31.2846064  94.0163940  22.0501478  38.7210844
  93.6847265  22.9196889  38.4972059  93.4209554  21.7337762  39.4004875
  87.7520127  25.7897045  26.4540927  87.9194529  26.6577281  26.8211398
  87.5617296  25.9524327  25.5302216  93.9092604  26.7696564  35.8004195
  93.0009481  26.7011973  35.5062956  93.8580199  27.2468509  36.6286020
  87.7309347  28.2454702  27.4387594  87.6108973  28.6911753  28.2773074
  87.0361936  28.5940020  26.8801132  87.9833469  28.1886210  43.7439092
  87.2066803  28.7480130  43.7341956  88.6224032  28.6742993  44.2653962
  95.7754250  24.9713002  37.5782068  95.1328630  25.2645536  36.9321863
  95.2709179  24.8565923  38.3835265  93.4294414  28.7176176  28.2667928
  94.3412270  28.9503562  28.0915625  92.9204061  29.3013220  27.7043006
  88.0666251  28.0773410  39.2762777  88.9127447  28.5012824  39.4197426
  88.0064889  27.4207035  39.9701340  92.0363996  33.7001994  35.6581509
  91.4072858  33.8647708  34.9557577  91.6489658  34.1143604  36.4292473
  95.9153228  34.6356432  33.0125873  95.2304266  35.0155333  32.4622906
  95.9997077  35.2451759  33.7457821  91.2165697  25.7377779  40.9343951
  90.9726629  26.4919839  40.3978227  91.4925627  26.1163126  41.7691198
  90.7730388  24.8934212  36.5157789  89.9114867  25.1915465  36.8074526
  90.7992823  25.1104611  35.5838821  86.5260844  29.5599555  29.7321159
  87.2284887  30.0120598  30.1995086  86.1941472  28.9183373  30.3601053
  80.2686178  27.8183107  35.0338293  79.4785232  28.0740636  34.5578404
  80.7597425  28.6331445  35.1390334  82.2200923  28.1827686  31.9921770
  81.4232087  28.2946381  32.5105265  81.9926515  28.5214339  31.1262660
  78.5523881  28.0713598  37.4653284  78.8031919  28.9560608  37.7310860
  79.0883429  27.8918199  36.6928376 102.3755980  31.5027095  34.1328545
 101.6219689  30.9334493  33.9772550 102.5103522  31.4689759  35.0799180
  84.2521948  22.4532077  46.4697620  83.8588894  21.8998276  47.1445264
  85.0688088  22.7642656  46.8604137  87.1689909  23.8689956  44.0617876
  87.9099623  24.4697109  43.9822339  87.4007832  23.1267594  43.5035919
  91.1147072  19.8971059  38.3382158  90.7711341  20.7872701  38.2621269
  91.4826035  19.7072717  37.4751743  91.0797355  29.8879670  26.8454593
  90.5643978  30.6584275  27.0842981  90.8074663  29.2144806  27.4687655
  88.6644466  24.7329371  31.9039832  87.8086062  24.3436221  31.7245470
  89.0771418  24.8121332  31.0439617  90.1943612  22.2675714  36.3031391
  89.6908408  22.2305849  35.4899197  90.4874219  23.1768457  36.3628048
  86.4386498  22.3514444  35.3097573  87.3039495  22.1557253  34.9503463
  86.5064007  22.1224796  36.2366930  96.0531629  32.6412025  28.7807767
  95.2761072  32.3023184  28.3362929  96.7323110  32.6464648  28.1062732
  90.8683658  27.7606762  28.6714374  90.5633794  28.0752911  29.5224518
  91.8214100  27.8388182  28.7141707  94.2922936  32.1146006  35.4374375
  93.6346610  32.8045267  35.5254503  95.0963335  32.5042438  35.7808361
  84.0448817  24.5816652  32.6813940  84.6192569  24.3591833  31.9487133
  84.6319800  24.6505346  33.4342541  93.1028395  30.4690379  33.4878316
  93.6160276  31.1020371  33.9900026  93.7529619  29.8691574  33.1221676
  84.3718405  26.6121113  26.7009825  83.5355717  26.9495799  27.0219100
  84.2323174  26.4770093  25.7636962  86.3471485  21.4557901  31.4089009
  85.6935897  21.1406918  30.7845624  86.3051959  20.8333641  32.1348832
  87.4582690  31.7377196  23.3242301  86.5509752  31.5066449  23.5233450
  87.9553722  30.9414815  23.5116283  89.5809226  27.9439834  35.7336657
  88.6631787  28.1654781  35.5758345  89.9969369  28.0186145  34.8748364
  90.3644273  29.3431250  30.8639337  91.1116092  29.8552647  30.5546459
  90.6335863  29.0215303  31.7243731  93.8690191  35.4496380  31.6157459
  93.4152518  34.6087290  31.6722650  93.2384158  36.0857779  31.9532239
  92.8123110  26.3788366  32.8458127  92.0745867  25.8665752  33.1768369
  93.0649884  25.9388748  32.0341403  92.3123130  37.2872877  32.5507277
  92.6046104  37.8477934  31.8319643  92.8221751  37.5801438  33.3060436
  92.9134738  19.1564618  33.4399896  93.2193615  18.2961982  33.1525811
  93.6387343  19.7482238  33.2398890  87.1855817  29.4518411  33.9476087
  87.2404427  28.4992248  33.8718563  86.3747020  29.6077850  34.4317385
  85.1248177  28.0695471  31.7066466  84.3116043  28.3689642  32.1131658
  85.6207172  27.6751160  32.4240948  90.7222389  28.5337296  40.5381360
  91.0771777  28.7608769  41.3975825  91.3694520  28.8655672  39.9158615
  96.4520126  31.6555731  31.2430689  96.3138025  31.8457327  30.3151878
  96.0956345  32.4175114  31.6998740  84.6162252  25.6413827  37.3227701
  85.2561631  25.5002586  36.6250664  83.7839783  25.3548340  36.9466303
  96.4789506  33.7232258  36.2541960  96.9126012  33.6307548  37.1025014
  97.1921086  33.6989759  35.6161976  81.7005320  29.0859339  29.5122446
  80.7702908  29.0243794  29.7292408  81.7962792  28.5635292  28.7159087
  81.6190869  25.6114152  32.1000687  81.8797686  26.5259485  31.9909848
  82.4408041  25.1438594  32.2497300  83.0915794  27.0251909  39.2699512
  83.7638847  26.8169271  38.6212161  82.2645580  26.8273995  38.8304744
  97.3405055  33.7655959  38.7874846  97.5340945  34.6701770  39.0334120
  97.2405673  33.3063378  39.6213431  88.9941366  23.6513850  41.2865173
  88.3469281  24.3503799  41.1929649  89.7642381  24.0849994  41.6541421
  92.4558239  32.2382916  24.7786428  91.8387409  31.5129744  24.6819480
  91.9874727  32.9992276  24.4353502  84.8354526  26.9979689  41.3381268
  84.2991883  26.5470427  41.9902865  84.2471234  27.1325598  40.5951733
  84.2456785  26.4568340  23.9007732  83.3686251  26.3357141  23.5369979
  84.7214538  25.6654419  23.6486621  80.5693647  26.1335697  38.4234263
  80.4851836  25.5261366  37.6884673  79.7476353  26.6244715  38.4243759
  90.7417361  24.6189260  33.7904458  91.2386060  23.8659222  33.4705528
  89.9704342  24.6553577  33.2247667  98.5947118  30.3229626  35.4322749
  98.5836995  31.2054341  35.0616682  97.7264498  29.9701177  35.2377286
  91.8247142  33.3760947  31.3642881  90.8903420  33.4962410  31.1947586
  92.0023810  32.4733414  31.1002891  87.3252330  26.7606643  33.5176142
  86.9550117  26.2077684  34.2057048  87.8211422  26.1564777  32.9651142
  95.2119693  29.2178267  31.8992915  95.6780145  30.0506258  31.8253218
  95.6627193  28.7523248  32.6038174  93.2795924  35.5622088  28.8979067
  93.5555768  35.4478683  29.8072941  92.4100423  35.1639573  28.8591241
  93.1836356  21.5858854  35.9383817  92.2699435  21.8163081  36.1066024
  93.6129457  21.6697298  36.7897849  92.9542814  29.7748746  38.4383711
  92.3014264  30.0224653  37.7836163  93.3323194  28.9612884  38.1046188
  89.9149988  39.8108439  32.5411881  90.0972383  38.9930095  33.0039633
  90.7382974  40.0276131  32.1036771  90.2492154  38.7376624  29.8026930
  90.7779920  38.2269079  29.1897092  90.5120373  38.4219154  30.6672463
  82.7217663  24.1710634  39.7629249  82.7858990  25.0325465  39.3506646
  82.6584784  23.5584636  39.0301607  78.9735479  28.0510196  29.3420638
  79.2688920  27.1420874  29.2887691  78.0723514  28.0297935  29.0201640
  82.5029726  26.1266192  35.3248186  81.7816311  26.7402160  35.1855660
  83.2922981  26.6623957  35.2464832  85.3056039  23.4620619  41.5988838
  85.8290441  23.7082915  42.3615147  85.0868372  24.2940653  41.1791975
  80.7023320  25.7324293  29.4659963  80.3736026  24.8521672  29.2835069
  81.0562691  25.6771962  30.3536352  83.8165143  26.0197263  29.8335440
  84.1561216  26.5483184  29.1114049  84.2637264  26.3577669  30.6094007
  86.5108584  24.4034314  39.2838508  86.1705405  23.6042127  39.6859188
  85.8047590  24.7036025  38.7115342  87.1625056  21.4883626  37.7365832
  87.9851125  21.0144104  37.6144722  87.4063120  22.2674110  38.2364518
  85.8033290  24.5171885  28.0328733  86.5241653  24.8953137  27.5292450
  85.1798595  25.2360761  28.1363711  89.9464413  25.2217034  28.9687066
  90.1628028  26.1041671  28.6675894  89.4658481  24.8303247  28.2392708
  84.6863635  28.1802747  35.5457810  84.5408215  28.4943050  36.4382092
  84.2088838  28.7987647  34.9928709  86.5460018  25.1705295  35.5938700
  86.5321586  24.2746388  35.2570998  87.2632446  25.1775959  36.2276986
  88.3986148  25.6042635  37.6391827  88.1403926  26.5259706  37.6376158
  87.8671189  25.2073070  38.3292291  93.3432337  38.7093422  30.4181913
  93.5169215  38.1439845  29.6655765  93.8361228  39.5094317  30.2361402
  85.9496914  24.0519675  30.8626270  86.0712825  23.1236321  31.0617157
  85.6598956  24.0658361  29.9504585  88.8188104  21.7374586  33.9992990
  88.8409801  21.8013919  33.0444969  89.2356163  20.8979094  34.1933496
  99.1971728  31.4729845  32.0372212  99.6402874  30.7237170  31.6391336
  98.3198239  31.4639981  31.6545944  94.3307510  38.0260187  27.5178811
  95.0258414  38.6466879  27.7366125  94.6730660  37.1755538  27.7931189
  96.2298933  35.4759892  29.0466142  96.7550257  35.8147165  28.3215462
  96.1421285  34.5406907  28.8629276  95.9192839  36.1092796  44.3517340
  95.1288382  36.0916935  43.8121839  95.6826193  36.6481089  45.1066376
  96.0390714  32.9585262  41.6650068  96.0888719  32.7935270  42.6065591
  95.9304637  32.0912521  41.2747949  93.3294476  28.9416190  42.9809375
  94.2304339  28.8022655  42.6893373  93.4042451  29.1070645  43.9207552
  87.6637282  26.3183045  41.8262561  86.7940591  26.6116611  41.5545150
  87.8996762  26.9023490  42.5469825  97.5408911  35.3782204  41.9092090
  97.2493719  35.7412184  42.7455551  96.9281042  34.6649212  41.7305422
  98.7404593  32.9435083  34.4294660  99.5751484  33.3824887  34.5932220
  98.8763722  32.4673737  33.6102906  95.7896099  30.5014818  40.3772148
  96.2650221  30.6942465  39.5690999  94.8661664  30.5574004  40.1315531
  90.3676315  22.5362662  39.3427981  90.8858259  23.2723689  39.0174470
  90.0131448  22.8426655  40.1774741  81.9475253  27.3967343  27.4589387
  81.2544498  27.4711698  26.8029423  81.7027005  26.6327687  27.9810904
  90.6188910  18.9562944  34.8628878  90.8990663  18.2886133  35.4889305
  91.4039516  19.1492040  34.3503542  94.4897768  27.3780578  38.6100453
  95.4415191  27.4778676  38.6312677  94.3201218  26.5858847  39.1198538
  92.5112147  24.4636162  38.7959854  91.9162079  24.7441174  38.1006343
  92.2261844  24.9530062  39.5676595  91.6419638  38.4159088  27.5562487
  92.5750311  38.3504650  27.7595362  91.5542851  39.2515355  27.0977019
  94.2707655  37.7324959  24.5166434  94.1921286  37.3984822  25.4102192
  95.0917321  38.2246727  24.5157907  96.9685846  30.5986698  37.7242753
  96.9362166  29.6602699  37.9102437  97.5786469  30.6770735  36.9908578
  88.8069177  29.4682751  23.7669957  89.7528281  29.3388959  23.8358375
  88.4283422  28.7297413  24.2439385  97.1180334  27.3897741  37.7701036
  96.6019383  26.6056198  37.5830965  98.0020283  27.0616458  37.9347555
  94.7791061  21.1338757  33.7296849  94.5815882  20.8253845  34.6140181
  95.3890767  21.8600396  33.8594779 102.7862396  31.6602705  36.8648790
 103.5165784  31.3987993  37.4256493 102.1769341  30.9231427  36.9050858
 100.8677693  29.8010567  37.4623241 100.1410856  29.6666532  36.8539732
 100.4524980  30.1087396  38.2679959  86.9912094  27.3932727  23.7024842
  86.0843549  27.0965840  23.7787556  87.2688075  27.0962545  22.8359128
  88.6074159  21.9369617  29.8569083  87.7974888  21.5916702  30.2324329
  89.2958576  21.6277161  30.4456695  90.5364708  21.0147664  31.4793380
  91.0895746  21.4343117  32.1383403  90.7734794  20.0883412  31.5216336
  86.5597807  27.0034738  47.2596144  86.4594534  27.9529094  47.1908235
  86.3419349  26.6752976  46.3872214  85.7610878  24.2519663  23.8436821
  86.6230042  24.5774561  24.1032639  85.9461222  23.4651158  23.3309887
  93.9143515  23.1248189  30.9872044  93.3342184  23.7832993  30.6050097
  93.6479447  22.3025534  30.5759462  92.3647081  22.5253247  33.1893365
  92.8646860  22.6369781  32.3807683  93.0082689  22.2214300  33.8294173
  92.6968393  25.2848279  30.0428393  91.8094248  25.5697930  29.8248587
  93.1122382  25.1242043  29.1955669  96.0482929  25.3094800  33.7582732
  96.8243319  25.7991253  34.0307349  95.3231063  25.7352855  34.2154601
  98.4855488  26.0222420  34.8156672  99.0799978  25.7818156  34.1049981
  98.5582071  25.3029550  35.4430209  91.8411606  35.0492954  24.1376413
  92.5447456  35.2542957  24.7534068  91.1174255  35.6169716  24.4025496
  92.6709417  30.8002815  30.2578683  92.6144618  31.2571367  29.4186315
  93.2237759  30.0393500  30.0801525  96.4814222  26.5892547  31.0828802
  96.2251157  26.1889183  31.9137010  95.8567091  27.3036341  30.9578941
 100.7926560  29.3288620  33.5900094 100.2326118  29.3981810  34.3631656
 100.1870064  29.1529605  32.8699590  93.7498304  35.4875483  26.1874873
  94.5843908  35.0556682  26.0052347  93.5882647  35.3157497  27.1151767
  93.4044196  31.9907597  27.5531212  93.3493000  31.8251868  26.6119656
  92.7790251  32.6983630  27.7093402  86.7140321  21.4915706  27.1316530
  86.7018991  22.4357546  27.2884801  87.6063743  21.3085851  26.8375991
  90.5292441  18.0858482  31.3862467  89.7624837  17.5316969  31.5319149
  90.9403146  18.1580351  32.2476619 102.3782579  46.0045134  36.2830049
 103.0160989  45.8851882  35.5793389 102.2603422  46.9525978  36.3418001
  99.1872285  45.9572563  36.2191574  98.8490797  45.8413627  35.3312109
 100.0562053  45.5563728  36.1992580  99.6692068  47.1107414  42.1777780
  99.6580709  46.7160213  41.3058283  99.8312708  46.3773487  42.7711551
 100.6258659  51.4779007  27.5202930  99.9746639  52.0633087  27.1336944
 101.4203022  52.0085202  27.5797967  94.5514287  48.5668144  27.9190064
  95.3245163  48.0197131  27.7802940  94.9039686  49.4312393  28.1304526
  96.3899329  49.8944526  41.1256964  96.0989195  50.7990157  41.0103630
  97.0256314  49.9361054  41.8401033  96.8880564  44.7260810  25.5508514
  97.1406085  44.2042331  24.7891977  95.9505124  44.5626955  25.6535198
 101.9323847  43.7296588  33.3583257 102.7186937  43.3116011  33.0073674
 102.1962552  44.6342680  33.5264906 102.1033925  49.1669439  28.0571914
 101.4679758  49.2404065  28.7692819 101.7731331  49.7563037  27.3790993
 107.3332274  43.6671821  34.2616236 108.0657446  43.0971038  34.4954065
 106.5771630  43.2793422  34.7022741  96.6076853  46.6288916  27.7532889
  96.4913111  45.9533819  28.4213973  96.7179113  46.1421290  26.9365042
  98.9508394  46.0899063  31.4579578  98.5866601  45.5629684  32.1692500
  99.8075510  45.6997532  31.2846064 104.8557695  37.3793396  38.7210844
 104.5241020  38.2488807  38.4972059 104.2603308  37.0629680  39.4004875
  98.5913881  41.1188963  26.4540927  98.7588283  41.9869199  26.8211398
  98.4011050  41.2816244  25.5302216 101.3489214  49.5805942  38.1206757
 101.0489937  50.4830980  38.0122564 101.0040274  49.3138125  38.9727910
 104.7486358  42.0988482  35.8004195 103.8403235  42.0303890  35.5062956
 104.6973954  42.5760427  36.6286020  98.5703102  43.5746620  27.4387594
  98.4502727  44.0203671  28.2773074  97.8755690  43.9231938  26.8801132
  98.8227224  43.5178127  43.7439092  98.0460558  44.0772047  43.7341956
  99.4617787  44.0034910  44.2653962 106.6148004  40.3004920  37.5782068
 105.9722385  40.5937453  36.9321863 106.1102933  40.1857840  38.3835265
 104.2688168  44.0468093  28.2667928 105.1806024  44.2795480  28.0915625
 103.7597815  44.6305138  27.7043006  97.0773596  46.3263581  43.3057059
  97.8188281  46.8648625  43.0291882  96.3710582  46.9529869  43.4628611
 102.5528936  48.4692721  41.9029220 102.9612292  48.0275132  41.1583853
 101.8306197  47.8945349  42.1563413  98.9060006  43.4065328  39.2762777
  99.7521201  43.8304741  39.4197426  98.8458644  42.7498952  39.9701340
 102.8757750  49.0293912  35.6581509 102.2466613  49.1939626  34.9557577
 102.4883413  49.4435521  36.4292473 106.7546982  49.9648350  33.0125873
 106.0698021  50.3447251  32.4622906 106.8390832  50.5743676  33.7457821
 102.0559451  41.0669696  40.9343951 101.8120383  41.8211757  40.3978227
 102.3319382  41.4455044  41.7691198 104.0097914  47.6108309  39.6121216
 104.2214809  48.2540069  38.9355598 103.9627662  46.7770625  39.1443147
 101.6124143  40.2226129  36.5157789 100.7508622  40.5207383  36.8074526
 101.6386578  40.4396528  35.5838821  97.3654598  44.8891472  29.7321159
  98.0678642  45.3412516  30.1995086  97.0335227  44.2475291  30.3601053
  95.8134960  43.4803229  44.1072369  95.1833620  44.1619510  44.3407766
  95.7071048  43.3686310  43.1625507  91.1079932  43.1475025  35.0338293
  90.3178986  43.4032553  34.5578404  91.5991180  43.9623363  35.1390334
 105.1243742  50.4880264  37.7843574 105.9461186  50.0860451  37.5026255
 105.1206145  50.3848498  38.7359690  93.0594678  43.5119604  31.9921770
  92.2625841  43.6238298  32.5105265  92.8320270  43.8506256  31.1262660
  89.3917635  43.4005515  37.4653284  89.6425674  44.2852525  37.7310860
  89.9277184  43.2210117  36.6928376 113.2149735  46.8319013  34.1328545
 112.4613443  46.2626411  33.9772550 113.3497276  46.7981677  35.0799180
  98.6048363  51.7032415  29.8083265  98.4694038  52.5483951  30.2368112
  99.1458176  51.9051693  29.0449198  98.0083664  39.1981874  44.0617876
  98.7493377  39.7989027  43.9822339  98.2401586  38.4559512  43.5035919
  93.1525002  44.3838241  42.3396106  93.0378517  43.4823498  42.6403205
  92.2969519  44.6301938  41.9880923 100.2316839  52.3255981  43.9383607
  99.7880694  51.5392360  43.6204511 100.8934053  52.5135132  43.2727498
 102.3298077  52.6058781  41.9665008 102.3116553  53.4267662  41.4745277
 103.2517998  52.4812857  42.1915149  98.7871132  50.1202911  42.8088516
  99.3199468  49.3591199  42.5787824  98.2585213  49.8276563  43.5512671
 101.9540827  35.2262977  38.3382158 101.6105096  36.1164618  38.2621269
 102.3219789  35.0364634  37.4751743 101.9191109  45.2171588  26.8454593
 101.4037733  45.9876192  27.0842981 101.6468418  44.5436724  27.4687655
  99.5038220  40.0621289  31.9039832  98.6479817  39.6728139  31.7245470
  99.9165172  40.1413249  31.0439617 101.0337367  37.5967632  36.3031391
 100.5302163  37.5597767  35.4899197 101.3267974  38.5060375  36.3628048
  97.2780253  37.6806362  35.3097573  98.1433250  37.4849170  34.9503463
  97.3457762  37.4516713  36.2366930 106.8925383  47.9703943  28.7807767
 106.1154826  47.6315102  28.3362929 107.5716864  47.9756566  28.1062732
 101.7077412  43.0898680  28.6714374 101.4027548  43.4044829  29.5224518
 102.6607855  43.1680100  28.7141707 100.1523844  49.2488903  30.3207328
  99.6245206  48.5141663  30.0080566  99.6511347  50.0263580  30.0747297
 105.1316690  47.4437924  35.4374375 104.4740365  48.1337185  35.5254503
 105.9357090  47.8334356  35.7808361  94.8842572  39.9108570  32.6813940
  95.4586324  39.6883751  31.9487133  95.4713554  39.9797264  33.4342541
 103.9422149  45.7982296  33.4878316 104.4554031  46.4312288  33.9900026
 104.5923373  45.1983492  33.1221676  95.2112159  41.9413031  26.7009825
  94.3749471  42.2787717  27.0219100  95.0716929  41.8062010  25.7636962
  97.1865240  36.7849818  31.4089009  96.5329652  36.4698836  30.7845624
  97.1445714  36.1625559  32.1348832  98.2976444  47.0669114  23.3242301
  97.3903506  46.8358367  23.5233450  98.7947476  46.2706733  23.5116283
 101.2044523  55.7766621  26.2438988 100.5306222  56.0798317  26.8523945
 101.5910345  56.5795701  25.8944445 100.4202980  43.2731752  35.7336657
  99.5025541  43.4946699  35.5758345 100.8363124  43.3478062  34.8748364
 101.2038028  44.6723168  30.8639337 101.9509847  45.1844565  30.5546459
 101.4729617  44.3507220  31.7243731  99.4764678  47.1681708  27.8466292
  98.5675897  46.8840741  27.9438761  99.5059762  47.5880787  26.9869598
 104.7083945  50.7788298  31.6157459 104.2546272  49.9379208  31.6722650
 104.0777912  51.4149696  31.9532239 103.6516865  41.7080284  32.8458127
 102.9139622  41.1957670  33.1768369 103.9043638  41.2680666  32.0341403
 103.1516885  52.6164795  32.5507277 103.4439859  53.1769852  31.8319643
 103.6615505  52.9093356  33.3060436 103.7528492  34.4856536  33.4399896
 104.0587369  33.6253899  33.1525811 104.4781097  35.0774156  33.2398890
  90.0452848  44.8887223  31.8281494  89.8477248  44.2956583  31.1032560
  89.4899512  44.5839433  32.5457432  98.0249572  44.7810329  33.9476087
  98.0798182  43.8284165  33.8718563  97.2140774  44.9369768  34.4317385
  99.1740766  48.7090452  25.1854370  98.7360196  47.9926311  24.7260007
  99.9151207  48.9366567  24.6239461  95.9641932  43.3987389  31.7066466
  95.1509797  43.6981559  32.1131658  96.4600926  43.0043078  32.4240948
 101.5616144  43.8629213  40.5381360 101.9165531  44.0900686  41.3975825
 102.2088275  44.1947590  39.9158615 107.2913881  46.9847649  31.2430689
 107.1531779  47.1749245  30.3151878 106.9350099  47.7467032  31.6998740
 107.3183260  49.0524176  36.2541960 107.7519767  48.9599465  37.1025014
 108.0314841  49.0281677  35.6161976  92.5399074  44.4151256  29.5122446
  91.6096662  44.3535712  29.7292408  92.6356546  43.8927209  28.7159087
  92.4584623  40.9406069  32.1000687  92.7191440  41.8551403  31.9909848
  93.2801795  40.4730512  32.2497300 108.1798810  49.0947877  38.7874846
 108.3734700  49.9993687  39.0334120 108.0799428  48.6355296  39.6213431
  99.8335120  38.9805767  41.2865173  99.1863035  39.6795717  41.1929649
 100.6036136  39.4141911  41.6541421 103.2413918  49.2454620  44.3615726
 103.0899425  49.0165171  43.4445810 103.2318598  50.2025221  44.3747071
 100.0099255  46.8186532  39.3461993 100.9391315  46.9697692  39.1730960
  99.5890285  46.9070553  38.4910639  99.4035739  55.9446293  28.4586067
  99.5787494  55.4734336  29.2731689  98.7168527  56.5712059  28.6867327
 100.3592802  50.2218799  34.5049368 100.0242634  50.1819569  35.4007018
  99.8596747  49.5563515  34.0319778  94.3337046  45.6286429  40.0301949
  94.1956844  44.8966668  40.6313488  95.2441969  45.5395330  39.7486137
 103.2951993  47.5674834  24.7786428 102.6781164  46.8421662  24.6819480
 102.8268482  48.3284194  24.4353502  96.9619346  45.3406389  39.5185629
  97.6718965  44.6999581  39.4772247  96.9188654  45.5919284  40.4411810
 104.9506125  52.2773742  42.4392208 104.8918671  51.5932962  41.7722791
 105.3525643  53.0192732  41.9872834  95.6748280  42.3271607  41.3381268
  95.1385637  41.8762345  41.9902865  95.0864989  42.4617515  40.5951733
  95.0850539  41.7860258  23.9007732  94.2080006  41.6649059  23.5369979
  95.5608292  40.9946336  23.6486621 104.9523532  50.2413326  40.6706188
 104.0650311  49.9039248  40.7932587 105.5222083  49.5096357  40.9074953
 101.5811115  39.9481178  33.7904458 102.0779815  39.1951140  33.4705528
 100.8098097  39.9845494  33.2247667 109.4340873  45.6521543  35.4322749
 109.4230749  46.5346259  35.0616682 108.5658252  45.2993094  35.2377286
 102.6640896  48.7052865  31.3642881 101.7297175  48.8254328  31.1947586
 102.8417565  47.8025332  31.1002891  98.1646084  42.0898561  33.5176142
  97.7943872  41.5369601  34.2057048  98.6605177  41.4856694  32.9651142
 106.0513447  44.5470184  31.8992915 106.5173900  45.3798176  31.8253218
 106.5020948  44.0815166  32.6038174 104.1189679  50.8914006  28.8979067
 104.3949522  50.7770600  29.8072941 103.2494177  50.4931490  28.8591241
 104.0230110  36.9150771  35.9383817 103.1093190  37.1454998  36.1066024
 104.4523212  36.9989215  36.7897849 103.7936569  45.1040663  38.4383711
 103.1408019  45.3516571  37.7836163 104.1716949  44.2904801  38.1046188
 100.7543743  55.1400356  32.5411881 100.9366137  54.3222012  33.0039633
 101.5776729  55.3568049  32.1036771 101.0885908  54.0668542  29.8026930
 101.6173674  53.5560996  29.1897092 101.3514128  53.7511072  30.6672463
  99.8424142  45.8460474  44.9249748  99.1664779  45.7454604  45.5952123
 100.6651776  45.6899688  45.3885745  93.0363690  41.5725684  43.4102283
  93.6635729  41.1902761  44.0239807  92.1791609  41.3539886  43.7757975
 103.4357799  51.9788659  45.0156018 103.9797703  52.5918618  44.5210973
 102.8544644  52.5368238  45.5323031  89.8129233  43.3802113  29.3420638
  90.1082674  42.4712792  29.2887691  88.9117269  43.3589853  29.0201640
 101.7215312  55.1009377  36.1471046 101.5966451  54.2999117  35.6381991
 102.3794403  55.5955571  35.6585016 103.7850220  52.9018397  37.7750596
 102.8380556  52.7823749  37.7028923 104.1332993  52.0140895  37.8576857
  91.5417075  41.0616211  29.4659963  91.2129781  40.1813590  29.2835069
  91.8956445  41.0063880  30.3536352 100.7896654  52.6971114  33.9754948
 100.6421616  51.7687821  34.1562518 101.6150147  52.7191204  33.4912024
  94.6558898  41.3489181  29.8335440  94.9954970  41.8775102  29.1114049
  95.1031018  41.6869587  30.6094007 104.3930775  53.5199672  35.0619821
 105.3177323  53.3142534  34.9244272 104.2246079  53.2716074  35.9709163
  98.0018810  36.8175544  37.7365832  98.8244880  36.3436022  37.6144722
  98.2456874  37.5966028  38.2364518  96.6427045  39.8463802  28.0328733
  97.3635407  40.2245055  27.5292450  96.0192349  40.5652679  28.1363711
 100.7858168  40.5508951  28.9687066 101.0021782  41.4333589  28.6675894
 100.3052235  40.1595165  28.2392708  95.5257389  43.5094665  35.5457810
  95.3801970  43.8234968  36.4382092  95.0482593  44.1279565  34.9928709
  97.3853772  40.4997212  35.5938700  97.3715341  39.6038306  35.2570998
  98.1026200  40.5067876  36.2276986  99.2379903  40.9334553  37.6391827
  98.9797681  41.8551623  37.6376158  98.7064943  40.5364987  38.3292291
 104.1826092  54.0385340  30.4181913 104.3562969  53.4731762  29.6655765
 104.6754983  54.8386235  30.2361402  96.7890668  39.3811593  30.8626270
  96.9106579  38.4528239  31.0617157  96.4992710  39.3950279  29.9504585
  99.6581858  37.0666503  33.9992990  99.6803555  37.1305836  33.0444969
 100.0749917  36.2271012  34.1933496 110.0365483  46.8021763  32.0372212
 110.4796629  46.0529088  31.6391336 109.1591993  46.7931899  31.6545944
 105.1701264  53.3552104  27.5178811 105.8652169  53.9758797  27.7366125
 105.5124414  52.5047455  27.7931189  90.7869073  45.1769905  41.3775628
  90.0450809  45.3252541  41.9640259  90.4661818  45.4378171  40.5142378
 107.0692687  50.8051810  29.0466142 107.5944011  51.1439083  28.3215462
 106.9815040  49.8698825  28.8629276  96.2731748  40.8943590  45.0716202
  96.3219903  41.7705713  44.6893972  96.8154262  40.3520983  44.4987846
 106.7586593  51.4384713  44.3517340 105.9682137  51.4208852  43.8121839
 106.5219948  51.9773007  45.1066376 106.8784468  48.2877180  41.6650068
 106.9282473  48.1227187  42.6065591 106.7698392  47.4204439  41.2747949
  95.7620727  50.9665725  28.9542157  95.9108847  51.6501190  28.3008830
  96.5687170  50.9470816  29.4691613 104.1688231  44.2708108  42.9809375
 105.0698093  44.1314573  42.6893373 104.2436205  44.4362563  43.9207552
  98.5031036  41.6474963  41.8262561  97.6334345  41.9408529  41.5545150
  98.7390516  42.2315408  42.5469825 108.3802665  50.7074121  41.9092090
 108.0887473  51.0704102  42.7455551 107.7674796  49.9941130  41.7305422
 109.5798347  48.2727001  34.4294660 110.4145239  48.7116805  34.5932220
 109.7157476  47.7965654  33.6102906 106.6289853  45.8306736  40.3772148
 107.1043975  46.0234382  39.5690999 105.7055419  45.8865922  40.1315531
  93.5173360  46.9930903  29.9603226  93.2719402  46.0893233  30.1583436
  93.6869275  46.9948054  29.0182704 101.2070070  37.8654579  39.3427981
 101.7252014  38.6015606  39.0174470 100.8525203  38.1718573  40.1774741
  92.7869008  42.7259261  27.4589387  92.0938252  42.8003616  26.8029423
  92.5420759  41.9619604  27.9810904 101.4582664  34.2854862  34.8628878
 101.7384418  33.6178051  35.4889305 102.2433271  34.4783958  34.3503542
  99.2616133  53.4613856  26.4253904  98.6890100  54.0804043  25.9724376
  99.8348926  54.0113218  26.9593826 105.3291522  42.7072496  38.6100453
 106.2808945  42.8070594  38.6312677 105.1594973  41.9150765  39.1198538
 103.3505902  39.7928079  38.7959854 102.7555834  40.0733092  38.1006343
 103.0655599  40.2821980  39.5676595 102.4813392  53.7451006  27.5562487
 103.4144065  53.6796568  27.7595362 102.3936605  54.5807273  27.0977019
 105.1101409  53.0616876  24.5166434 105.0315041  52.7276740  25.4102192
 105.9311076  53.5538644  24.5157907 107.8079600  45.9278616  37.7242753
 107.7755920  44.9894616  37.9102437 108.4180224  46.0062652  36.9908578
  99.6462931  44.7974669  23.7669957 100.5922036  44.6680877  23.8358375
  99.2677176  44.0589331  24.2439385 107.9574089  42.7189659  37.7701036
 107.4413137  41.9348116  37.5830965 108.8414037  42.3908376  37.9347555
 105.6184816  36.4630675  33.7296849 105.4209637  36.1545763  34.6140181
 106.2284521  37.1892314  33.8594779 113.6256150  46.9894623  36.8648790
 114.3559539  46.7279911  37.4256493 113.0163096  46.2523344  36.9050858
 111.7071447  45.1302485  37.4623241 110.9804611  44.9958450  36.8539732
 111.2918734  45.4379314  38.2679959  99.5301624  48.8492415  45.2270614
 100.4504633  49.0271014  45.4210660  99.4951207  47.9048460  45.0750313
  97.8305848  42.7224645  23.7024842  96.9237304  42.4257758  23.7787556
  98.1081829  42.4254463  22.8359128  88.7483789  44.0431008  34.1523888
  88.4286573  43.1896317  33.8598262  88.2017217  44.2579587  34.9081856
  99.4467914  37.2661535  29.8569083  98.6368642  36.9208620  30.2324329
 100.1352331  36.9569078  30.4456695 101.3758462  36.3439582  31.4793380
 101.9289501  36.7635035  32.1383403 101.6128549  35.4175330  31.5216336
  97.3991561  42.3326655  47.2596144  97.2988288  43.2821012  47.1908235
  97.1813103  42.0044894  46.3872214  96.6004633  39.5811580  23.8436821
  97.4623797  39.9066479  24.1032639  96.7854977  38.7943076  23.3309887
 104.7537269  38.4540107  30.9872044 104.1735938  39.1124911  30.6050097
 104.4873202  37.6317451  30.5759462 103.2040836  37.8545164  33.1893365
 103.7040614  37.9661699  32.3807683 103.8476444  37.5506217  33.8294173
  97.2622832  45.7623794  46.0761206  96.7789913  46.5624154  46.2825095
  97.3483771  45.7731739  45.1228650 103.5362147  40.6140197  30.0428393
 102.6488002  40.8989848  29.8248587 103.9516136  40.4533960  29.1955669
 106.8876683  40.6386718  33.7582732 107.6637074  41.1283171  34.0307349
 106.1624818  41.0644772  34.2154601 109.3249242  41.3514337  34.8156672
 109.9193733  41.1110073  34.1049981 109.3975826  40.6321468  35.4430209
 102.6805361  50.3784872  24.1376413 103.3841211  50.5834874  24.7534068
 101.9568010  50.9461634  24.4025496 103.5103171  46.1294733  30.2578683
 103.4538372  46.5863284  29.4186315 104.0631514  45.3685418  30.0801525
 107.3207977  41.9184465  31.0828802 107.0644911  41.5181101  31.9137010
 106.6960845  42.6328259  30.9578941 111.6320315  44.6580538  33.5900094
 111.0719873  44.7273727  34.3631656 111.0263818  44.4821523  32.8699590
 104.5892058  50.8167401  26.1874873 105.4237662  50.3848599  26.0052347
 104.4276401  50.6449415  27.1151767 104.2437950  47.3199514  27.5531212
 104.1886754  47.1543786  26.6119656 103.6184006  48.0275547  27.7093402
 101.5583858  49.6248426  46.8784775 102.4275017  49.7989078  46.5171410
 101.0790609  50.4442843  46.7560504  97.5534076  36.8207623  27.1316530
  97.5412746  37.7649463  27.2884801  98.4457498  36.6377769  26.8375991
 101.3686195  33.4150400  31.3862467 100.6018591  32.8608887  31.5319149
 101.7796900  33.4872269  32.2476619  93.3727956  39.7035196  45.4767648
  94.2359418  39.3472001  45.6870973  92.7993367  39.3649091  46.1643053
 113.2176333  61.3337052  36.2830049 113.8554743  61.2143799  35.5793389
 113.0997176  62.2817896  36.3418001 110.0266040  61.2864480  36.2191574
 109.6884551  61.1705545  35.3312109 110.8955808  60.8855645  36.1992580
 105.8852855  63.1399957  32.2088465 105.3217720  63.0489894  31.4404753
 105.7705250  62.3199861  32.6890958 110.5085823  62.4399332  42.1777780
 110.4974463  62.0452130  41.3058283 110.6706462  61.7065405  42.7711551
 103.4317287  64.6351148  35.0472685 104.2238579  64.2941973  34.6318985
 103.6713937  64.7446123  35.9674839 111.4652414  66.8070924  27.5202930
 110.8140394  67.3925005  27.1336944 112.2596777  67.3377119  27.5797967
 105.3908041  63.8960061  27.9190064 106.1638917  63.3489049  27.7802940
 105.7433440  64.7604311  28.1304526 107.2293084  65.2236444  41.1256964
 106.9382950  66.1282075  41.0103630 107.8650068  65.2652971  41.8401033
 108.1549291  62.6013292  37.7158323 108.7512863  62.3769315  37.0015286
 108.2124262  61.8598038  38.3183771 107.7274319  60.0552728  25.5508514
 107.9799840  59.5334249  24.7891977 106.7898878  59.8918873  25.6535198
 112.7717602  59.0588506  33.3583257 113.5580691  58.6407929  33.0073674
 113.0356306  59.9634598  33.5264906 112.9427679  64.4961356  28.0571914
 112.3073512  64.5695983  28.7692819 112.6125086  65.0854955  27.3790993
 118.1726029  58.9963739  34.2616236 118.9051201  58.4262956  34.4954065
 117.4165385  58.6085340  34.7022741 107.4470608  61.9580834  27.7532889
 107.3306866  61.2825737  28.4213973 107.5572868  61.4713207  26.9365042
 109.7902149  61.4190981  31.4579578 109.4260356  60.8921602  32.1692500
 110.6469265  61.0289450  31.2846064 115.6951449  52.7085313  38.7210844
 115.3634774  53.5780724  38.4972059 115.0997063  52.3921597  39.4004875
 109.4307636  56.4480880  26.4540927 109.5982038  57.3161117  26.8211398
 109.2404805  56.6108162  25.5302216 112.1882969  64.9097859  38.1206757
 111.8883692  65.8122898  38.0122564 111.8434028  64.6430042  38.9727910
 105.6395450  61.3611656  34.1543462 104.7145947  61.2287870  34.3621153
 105.8879863  62.1405875  34.6513404 115.5880113  57.4280399  35.8004195
 114.6796990  57.3595808  35.5062956 115.5367708  57.9052344  36.6286020
 109.4096856  58.9038538  27.4387594 109.2896482  59.3495589  28.2773074
 108.7149445  59.2523856  26.8801132 103.0004261  61.0044930  34.9887251
 103.1296642  61.2579409  35.9026662 102.3201713  61.5972638  34.6691906
 107.1703749  71.6742180  31.0877725 107.0927778  72.6250005  31.1666205
 106.5665392  71.3288052  31.7452651 109.6620978  58.8470045  43.7439092
 108.8854312  59.4063965  43.7341956 110.3011541  59.3326828  44.2653962
 117.4541759  55.6296838  37.5782068 116.8116139  55.9229371  36.9321863
 116.9496687  55.5149758  38.3835265 115.1081923  59.3760011  28.2667928
 116.0199779  59.6087398  28.0915625 114.5991570  59.9597055  27.7043006
 107.9167351  61.6555498  43.3057059 108.6582035  62.1940542  43.0291882
 107.2104336  62.2821787  43.4628611 113.3922690  63.7984639  41.9029220
 113.8006046  63.3567049  41.1583853 112.6699952  63.2237266  42.1563413
 109.7453760  58.7357246  39.2762777 110.5914956  59.1596659  39.4197426
 109.6852398  58.0790870  39.9701340 113.7151505  64.3585829  35.6581509
 113.0860367  64.5231544  34.9557577 113.3277167  64.7727439  36.4292473
 117.5940737  65.2940267  33.0125873 116.9091775  65.6739169  32.4622906
 117.6784586  65.9035594  33.7457821 112.8953206  56.3961614  40.9343951
 112.6514138  57.1503674  40.3978227 113.1713136  56.7746962  41.7691198
 114.8491668  62.9400226  39.6121216 115.0608564  63.5831986  38.9355598
 114.8021417  62.1062543  39.1443147 112.4517897  55.5518047  36.5157789
 111.5902376  55.8499301  36.8074526 112.4780332  55.7688446  35.5838821
 109.2679467  64.0960238  32.9231594 109.7317812  64.3747941  32.1336217
 109.0036265  63.1943682  32.7404685 106.1603548  63.6431719  35.8611358
 106.7304905  64.0718987  35.2228842 106.7511660  63.3614304  36.5595543
 108.2048353  60.2183390  29.7321159 108.9072396  60.6704434  30.1995086
 107.8728981  59.5767209  30.3601053 106.6528714  58.8095147  44.1072369
 106.0227375  59.4911427  44.3407766 106.5464802  58.6978228  43.1625507
 101.9473687  58.4766943  35.0338293 101.1572741  58.7324471  34.5578404
 102.4384934  59.2915280  35.1390334 115.9637496  65.8172182  37.7843574
 116.7854940  65.4152369  37.5026255 115.9599899  65.7140416  38.7359690
 103.8988432  58.8411522  31.9921770 103.1019595  58.9530216  32.5105265
 103.6714024  59.1798174  31.1262660 109.7294100  65.3656225  39.9404284
 109.7938532  65.8276632  40.7762456 109.0205024  64.7353590  40.0686594
 109.4442117  67.0324333  29.8083265 109.3087792  67.8775868  30.2368112
 109.9851930  67.2343610  29.0449198 105.9309457  53.1115912  46.4697620
 105.5376403  52.5582111  47.1445264 106.7475597  53.4226491  46.8604137
 102.8971515  64.5499771  30.3811190 103.4096035  65.3443021  30.5316754
 103.5494228  63.8526061  30.3144791 104.7066400  67.6665527  32.4633943
 104.8833028  68.5883492  32.2754927 105.5023233  67.3523946  32.8928323
 108.8477418  54.5273791  44.0617876 109.5887131  55.1280945  43.9822339
 109.0795341  53.7851429  43.5035919 111.0710594  67.6547899  43.9383607
 110.6274448  66.8684278  43.6204511 111.7327807  67.8427050  43.2727498
 105.8297715  69.1843701  38.4644285 106.3805140  69.0560764  37.6921279
 104.9909191  69.4838590  38.1139178 113.1691832  67.9350699  41.9665008
 113.1510307  68.7559580  41.4745277 114.0911752  67.8104774  42.1915149
 109.6264886  65.4494828  42.8088516 110.1593223  64.6883117  42.5787824
 109.0978967  65.1568480  43.5512671 112.7934581  50.5554894  38.3382158
 112.4498850  51.4456536  38.2621269 113.1613544  50.3656552  37.4751743
 112.7584864  60.5463506  26.8454593 112.2431487  61.3168110  27.0842981
 112.4862172  59.8728642  27.4687655 110.3431975  55.3913206  31.9039832
 109.4873571  55.0020057  31.7245470 110.7558927  55.4705167  31.0439617
 111.8731121  52.9259550  36.3031391 111.3695917  52.8889685  35.4899197
 112.1661728  53.8352292  36.3628048 108.1174007  53.0098279  35.3097573
 108.9827004  52.8141088  34.9503463 108.1851516  52.7808631  36.2366930
 117.7319138  63.2995860  28.7807767 116.9548581  62.9607020  28.3362929
 118.4110619  63.3048483  28.1062732 112.5471167  58.4190598  28.6714374
 112.2421303  58.7336747  29.5224518 113.5001609  58.4972018  28.7141707
 110.9917599  64.5780821  30.3207328 110.4638960  63.8433581  30.0080566
 110.4905102  65.3555497  30.0747297 115.9710445  62.7729841  35.4374375
 115.3134119  63.4629103  35.5254503 116.7750844  63.1626273  35.7808361
 105.7236326  55.2400487  32.6813940 106.2980078  55.0175669  31.9487133
 106.3107309  55.3089182  33.4342541 114.7815904  61.1274214  33.4878316
 115.2947785  61.7604206  33.9900026 115.4317128  60.5275410  33.1221676
 106.0505914  57.2704948  26.7009825 105.2143226  57.6079635  27.0219100
 105.9110683  57.1353928  25.7636962 108.0258994  52.1141736  31.4089009
 107.3723406  51.7990753  30.7845624 107.9839468  51.4917477  32.1348832
 109.1370199  62.3961031  23.3242301 108.2297261  62.1650285  23.5233450
 109.6341231  61.5998650  23.5116283 112.0438278  71.1058538  26.2438988
 111.3699977  71.4090235  26.8523945 112.4304100  71.9087619  25.8944445
 111.2596734  58.6023670  35.7336657 110.3419296  58.8238617  35.5758345
 111.6756878  58.6769980  34.8748364 112.0431782  60.0015085  30.8639337
 112.7903601  60.5136483  30.5546459 112.3123372  59.6799138  31.7243731
 110.3158432  62.4973626  27.8466292 109.4069652  62.2132659  27.9438761
 110.3453516  62.9172705  26.9869598 115.5477700  66.1080216  31.6157459
 115.0940027  65.2671125  31.6722650 114.9171667  66.7441614  31.9532239
 114.4910619  57.0372202  32.8458127 113.7533376  56.5249588  33.1768369
 114.7437393  56.5972583  32.0341403 113.9910639  67.9456712  32.5507277
 114.2833613  68.5061769  31.8319643 114.5009260  68.2385273  33.3060436
 114.5922247  49.8148454  33.4399896 114.8981124  48.9545817  33.1525811
 115.3174852  50.4066074  33.2398890 108.8643326  60.1102247  33.9476087
 108.9191936  59.1576083  33.8718563 108.0534528  60.2661686  34.4317385
 110.0134520  64.0382370  25.1854370 109.5753950  63.3218229  24.7260007
 110.7544961  64.2658485  24.6239461 106.8035686  58.7279306  31.7066466
 105.9903552  59.0273477  32.1131658 107.2994681  58.3334995  32.4240948
 108.9544264  68.7237063  33.6400730 108.9120443  68.9497910  32.7109262
 109.8706963  68.4900438  33.7886532 112.4009898  59.1921131  40.5381360
 112.7559286  59.4192604  41.3975825 113.0482029  59.5239508  39.9158615
 118.1307635  62.3139567  31.2430689 117.9925534  62.5041163  30.3151878
 117.7743854  63.0758950  31.6998740 106.2949761  56.2997662  37.3227701
 106.9349140  56.1586421  36.6250664 105.4627292  56.0132175  36.9466303
 118.1577015  64.3816094  36.2541960 118.5913521  64.2891383  37.1025014
 118.8708595  64.3573594  35.6161976 107.0710065  65.6000092  33.4362693
 107.8650664  65.1050413  33.2345268 106.3601757  65.0717956  33.0730399
 111.8904910  67.9818188  37.7875061 111.9441932  68.5509124  38.5552777
 111.0219691  68.1520073  37.4229098 103.3792829  59.7443174  29.5122446
 102.4490417  59.6827630  29.7292408 103.4750300  59.2219127  28.7159087
 103.2978378  56.2697987  32.1000687 103.5585195  57.1843320  31.9909848
 104.1195550  55.8022430  32.2497300 104.7703303  57.6835744  39.2699512
 105.4426356  57.4753106  38.6212161 103.9433089  57.4857830  38.8304744
 119.0192564  64.4239794  38.7874846 119.2128454  65.3285605  39.0334120
 118.9193182  63.9647214  39.6213431 110.6728875  54.3097685  41.2865173
 110.0256790  55.0087635  41.1929649 111.4429890  54.7433829  41.6541421
 114.0807673  64.5746537  44.3615726 113.9293179  64.3457089  43.4445810
 114.0712352  65.5317139  44.3747071 110.8493009  62.1478450  39.3461993
 111.7785069  62.2989610  39.1730960 110.4284039  62.2362471  38.4910639
 109.6481341  66.1729114  37.1160530 109.5092427  65.8047899  37.9886468
 108.8595937  66.6876754  36.9444488 110.2429493  71.2738211  28.4586067
 110.4181249  70.8026254  29.2731689 109.5562281  71.9003977  28.6867327
 111.1986556  65.5510717  34.5049368 110.8636389  65.5111487  35.4007018
 110.6990502  64.8855433  34.0319778 105.1730800  60.9578347  40.0301949
 105.0350598  60.2258586  40.6313488 106.0835724  60.8687247  39.7486137
 114.1345748  62.8966751  24.7786428 113.5174918  62.1713580  24.6819480
 113.6662236  63.6576112  24.4353502 107.8013101  60.6698306  39.5185629
 108.5112719  60.0291499  39.4772247 107.7582409  60.9211201  40.4411810
 115.7899879  67.6065660  42.4392208 115.7312426  66.9224880  41.7722791
 116.1919398  68.3484650  41.9872834 106.5142035  57.6563524  41.3381268
 105.9779392  57.2054263  41.9902865 105.9258743  57.7909433  40.5951733
 104.8090578  74.4227574  35.2325927 105.0487177  75.0546098  35.9104945
 103.9659775  74.0715614  35.5191286 105.9244294  57.1152176  23.9007732
 105.0473760  56.9940976  23.5369979 106.4002047  56.3238254  23.6486621
 115.7917287  65.5705244  40.6706188 114.9044066  65.2331165  40.7932587
 116.3615838  64.8388275  40.9074953 102.2481156  56.7919532  38.4234263
 102.1639345  56.1845202  37.6884673 101.4263862  57.2828550  38.4243759
 109.3218440  70.2306696  37.6367431 109.2488612  71.0361668  38.1486735
 108.8795833  70.4298662  36.8115452 109.1108220  69.4678466  31.1470252
 108.3275742  70.0100146  31.2408477 109.8100965  69.9852446  31.5464494
 112.4204870  55.2773096  33.7904458 112.9173569  54.5243058  33.4705528
 111.6491851  55.3137412  33.2247667 120.2734627  60.9813461  35.4322749
 120.2624504  61.8638176  35.0616682 119.4052007  60.6285012  35.2377286
 111.7817124  70.1293530  39.7925590 112.4945096  70.7640995  39.7201491
 111.2907152  70.2257396  38.9765591 113.5034651  64.0344783  31.3642881
 112.5690929  64.1546245  31.1947586 113.6811319  63.1317250  31.1002891
 109.0039839  57.4190479  33.5176142 108.6337626  56.8661519  34.2057048
 109.4998931  56.8148612  32.9651142 116.8907202  59.8762102  31.8992915
 117.3567654  60.7090094  31.8253218 117.3414702  59.4107084  32.6038174
 106.8329037  67.8787974  40.6131160 107.5338497  68.5124456  40.7660555
 106.3624152  68.2202705  39.8526800 114.9583433  66.2205923  28.8979067
 115.2343277  66.1062518  29.8072941 114.0887932  65.8223408  28.8591241
 114.8623865  52.2442689  35.9383817 113.9486944  52.4746916  36.1066024
 115.2916966  52.3281133  36.7897849 114.6330323  60.4332581  38.4383711
 113.9801773  60.6808488  37.7836163 115.0110703  59.6196719  38.1046188
 111.5937497  70.4692274  32.5411881 111.7759892  69.6513930  33.0039633
 112.4170483  70.6859966  32.1036771 111.9279663  69.3960459  29.8026930
 112.4567429  68.8852914  29.1897092 112.1907882  69.0802989  30.6672463
 110.6817896  61.1752392  44.9249748 110.0058533  61.0746521  45.5952123
 111.5045530  61.0191606  45.3885745 102.4296755  67.4124329  37.5462263
 103.0150192  66.6668016  37.6790167 102.2321594  67.7228285  38.4298927
 105.2835410  70.4475576  32.5624705 104.6145786  70.9321704  32.0788746
 105.1448280  70.6944796  33.4768084 109.4240679  72.4819319  39.1607364
 109.9758987  72.6450941  39.9256449 109.7646873  73.0723757  38.4887389
 104.4005172  54.8294469  39.7629249 104.4646499  55.6909300  39.3506646
 104.3372293  54.2168471  39.0301607 103.8757445  56.9017602  43.4102283
 104.5029484  56.5194679  44.0239807 103.0185364  56.6831804  43.7757975
 114.2751553  67.3080577  45.0156018 114.8191457  67.9210535  44.5210973
 113.6938398  67.8660155  45.5323031 112.5609066  70.4301295  36.1471046
 112.4360206  69.6291035  35.6381991 113.2188157  70.9247488  35.6585016
 104.1817235  56.7850028  35.3248186 103.4603820  57.3985995  35.1855660
 104.9710490  57.3207792  35.2464832 114.6243975  68.2310315  37.7750596
 113.6774310  68.1115666  37.7028923 114.9726748  67.3432813  37.8576857
 106.9843548  54.1204454  41.5988838 107.5077950  54.3666751  42.3615147
 106.7655881  54.9524489  41.1791975 102.3810829  56.3908129  29.4659963
 102.0523535  55.5105508  29.2835069 102.7350200  56.3355797  30.3536352
 111.6290408  68.0263031  33.9754948 111.4815370  67.0979739  34.1562518
 112.4543902  68.0483122  33.4912024 105.4952652  56.6781098  29.8335440
 105.8348725  57.2067020  29.1114049 105.9424773  57.0161505  30.6094007
 115.2324530  68.8491590  35.0619821 116.1571077  68.6434451  34.9244272
 115.0639833  68.6007991  35.9709163 108.1896093  55.0618149  39.2838508
 107.8492914  54.2625962  39.6859188 107.4835099  55.3619860  38.7115342
 108.8412565  52.1467462  37.7365832 109.6638634  51.6727940  37.6144722
 109.0850629  52.9257945  38.2364518 107.4820799  55.1755720  28.0328733
 108.2029162  55.5536973  27.5292450 106.8586104  55.8944597  28.1363711
 111.6251922  55.8800869  28.9687066 111.8415537  56.7625507  28.6675894
 111.1445990  55.4887082  28.2392708 106.3651144  58.8386582  35.5457810
 106.2195724  59.1526885  36.4382092 105.8876347  59.4571483  34.9928709
 108.2247527  55.8289130  35.5938700 108.2109095  54.9330223  35.2570998
 108.9419955  55.8359794  36.2276986 110.0773657  56.2626470  37.6391827
 109.8191435  57.1843541  37.6376158 109.5458698  55.8656905  38.3292291
 115.0219846  69.3677257  30.4181913 115.1956724  68.8023680  29.6655765
 115.5148737  70.1678152  30.2361402 100.8396806  61.3791927  38.4845471
 100.2950274  62.1551735  38.6165746 101.7176156  61.7262731  38.3264593
 107.6284423  54.7103510  30.8626270 107.7500334  53.7820157  31.0617157
 107.3386465  54.7242196  29.9504585 110.4975613  52.3958421  33.9992990
 110.5197310  52.4597754  33.0444969 110.9143672  51.5562930  34.1933496
 120.8759237  62.1313680  32.0372212 121.3190383  61.3821006  31.6391336
 119.9985748  62.1223817  31.6545944 116.0095019  68.6844022  27.5178811
 116.7045923  69.3050715  27.7366125 116.3518169  67.8339373  27.7931189
 117.9086442  66.1343727  29.0466142 118.4337766  66.4731000  28.3215462
 117.8208794  65.1990743  28.8629276 109.5706490  70.0477801  41.1756018
 109.8793617  69.8026948  42.0478718 110.3681972  70.2524440  40.6874888
 109.5927102  72.2015711  33.4061395 109.1532093  71.7092089  34.0994251
 110.3435219  71.6588678  33.1653470 102.0719441  68.3927252  33.4086023
 102.8977461  68.0931023  33.0284666 101.7213493  67.6234874  33.8575811
 107.0400975  67.7453720  35.4783696 106.4180984  67.0824425  35.1785924
 107.7105842  67.7714852  34.7957344 107.1125502  56.2235508  45.0716202
 107.1613658  57.0997631  44.6893972 107.6548016  55.6812901  44.4987846
 117.5980348  66.7676631  44.3517340 116.8075891  66.7500770  43.8121839
 117.3613702  67.3064925  45.1066376 117.7178223  63.6169097  41.6650068
 117.7676228  63.4519105  42.6065591 117.6092146  62.7496356  41.2747949
 106.6014482  66.2957643  28.9542157 106.7502602  66.9793108  28.3008830
 107.4080925  66.2762733  29.4691613 115.0081985  59.6000025  42.9809375
 115.9091848  59.4606490  42.6893373 115.0829960  59.7654480  43.9207552
 109.3424791  56.9766880  41.8262561 108.4728100  57.2700446  41.5545150
 109.5784271  57.5607325  42.5469825 119.2196420  66.0366039  41.9092090
 118.9281228  66.3996020  42.7455551 118.6068551  65.3233047  41.7305422
 120.4192102  63.6018919  34.4294660 121.2538993  64.0408723  34.5932220
 120.5551231  63.1257572  33.6102906 117.4683608  61.1598654  40.3772148
 117.9437729  61.3526300  39.5690999 116.5449173  61.2157839  40.1315531
 104.3567114  62.3222821  29.9603226 104.1113156  61.4185151  30.1583436
 104.5263029  62.3239971  29.0182704 112.0463824  53.1946497  39.3427981
 112.5645768  53.9307524  39.0174470 111.6918957  53.5010490  40.1774741
 103.6262762  58.0551178  27.4589387 102.9332007  58.1295533  26.8029423
 103.3814514  57.2911522  27.9810904 112.2976419  49.6146780  34.8628878
 112.5778172  48.9469969  35.4889305 113.0827025  49.8075875  34.3503542
 110.1009887  68.7905774  26.4253904 109.5283854  69.4095961  25.9724376
 110.6742681  69.3405135  26.9593826 116.1685277  58.0364414  38.6100453
 117.1202700  58.1362511  38.6312677 115.9988727  57.2442682  39.1198538
 114.1899656  55.1219997  38.7959854 113.5949588  55.4025010  38.1006343
 113.9049353  55.6113898  39.5676595 113.3207147  69.0742924  27.5562487
 114.2537820  69.0088485  27.7595362 113.2330360  69.9099191  27.0977019
 115.9495163  68.3908794  24.5166434 115.8708795  68.0568658  25.4102192
 116.7704830  68.8830562  24.5157907 118.6473355  61.2570533  37.7242753
 118.6149675  60.3186534  37.9102437 119.2573978  61.3354570  36.9908578
 110.4856686  60.1266586  23.7669957 111.4315790  59.9972794  23.8358375
 110.1070930  59.3881248  24.2439385 118.7967843  58.0481577  37.7701036
 118.2806892  57.2640033  37.5830965 119.6807792  57.7200293  37.9347555
 116.4578570  51.7922592  33.7296849 116.2603391  51.4837681  34.6140181
 117.0678276  52.5184231  33.8594779 110.3695378  64.1784332  45.2270614
 111.2898388  64.3562931  45.4210660 110.3344961  63.2340378  45.0750313
 108.6699603  58.0516563  23.7024842 107.7631058  57.7549675  23.7787556
 108.9475584  57.7546381  22.8359128 103.3657451  62.0885367  37.8693395
 103.5843460  63.0202475  37.8881429 103.7783224  61.7293342  38.6548199
 110.2861668  52.5953452  29.8569083 109.4762397  52.2500537  30.2324329
 110.9746085  52.2860996  30.4456695 112.2152217  51.6731499  31.4793380
 112.7683255  52.0926953  32.1383403 112.4522303  50.7467247  31.5216336
 108.2385316  57.6618573  47.2596144 108.1382043  58.6112930  47.1908235
 108.0206858  57.3336812  46.3872214 107.4398387  54.9103498  23.8436821
 108.3017551  55.2358396  24.1032639 107.6248731  54.1234994  23.3309887
 115.5931024  53.7832024  30.9872044 115.0129693  54.4416828  30.6050097
 115.3266956  52.9609369  30.5759462 114.0434590  53.1837082  33.1893365
 114.5434369  53.2953617  32.3807683 114.6870198  52.8798135  33.8294173
 108.1016586  61.0915712  46.0761206 107.6183668  61.8916072  46.2825095
 108.1877525  61.1023657  45.1228650 104.0289923  64.9820246  38.1129639
 104.9833177  64.9504189  38.0459571 103.8302447  64.5210870  38.9279865
 104.6189306  63.5521362  40.6800437 105.4382195  64.0465441  40.7035274
 104.8926113  62.6353331  40.6518005 114.3755902  55.9432115  30.0428393
 113.4881757  56.2281765  29.8248587 114.7909891  55.7825878  29.1955669
 117.7270438  55.9678636  33.7582732 118.5030828  56.4575088  34.0307349
 117.0018572  56.3936690  34.2154601 120.1642997  56.6806255  34.8156672
 120.7587487  56.4401991  34.1049981 120.2369580  55.9613386  35.4430209
 102.3840152  70.5239866  35.1299837 102.2494620  69.7640267  34.5637835
 101.9672215  71.2480766  34.6628626 113.5199115  65.7076789  24.1376413
 114.2234965  65.9126792  24.7534068 112.7961764  66.2753551  24.4025496
 114.3496926  61.4586651  30.2578683 114.2932127  61.9155202  29.4186315
 114.9025268  60.6977335  30.0801525 118.1601731  57.2476383  31.0828802
 117.9038666  56.8473018  31.9137010 117.5354599  57.9620177  30.9578941
 122.4714069  59.9872456  33.5900094 121.9113627  60.0565645  34.3631656
 121.8657573  59.8113440  32.8699590 105.5409278  71.4209183  35.3418280
 105.4241662  72.3654615  35.2396970 104.7201724  71.1182744  35.7304079
 115.4285813  66.1459319  26.1874873 116.2631417  65.7140517  26.0052347
 115.2670156  65.9741332  27.1151767 115.0831705  62.6491432  27.5531212
 115.0280509  62.4835703  26.6119656 114.4577760  63.3567465  27.7093402
 112.3977612  64.9540344  46.8784775 113.2668772  65.1280996  46.5171410
 111.9184364  65.7734761  46.7560504 108.3927830  52.1499541  27.1316530
 108.3806500  53.0941381  27.2884801 109.2851252  51.9669686  26.8375991
 106.5663792  72.0737445  38.5574208 107.4691039  72.1061055  38.8740703
 106.3401162  71.1437896  38.5720544 108.3217394  70.8268431  35.2184287
 107.3713025  70.8270293  35.1048659 108.6249880  70.0801166  34.7020322
 112.2079950  48.7442318  31.3862467 111.4412346  48.1900804  31.5319149
 112.6190655  48.8164186  32.2476619 104.2121711  55.0327113  45.4767648
 105.0753172  54.6763918  45.6870973 103.6387121  54.6941008  46.1643053
 120.8659794  76.6156398  36.2191574 120.5278306  76.4997463  35.3312109
 121.7349562  76.2147563  36.1992580 116.7246610  78.4691874  32.2088465
 116.1611475  78.3781811  31.4404753 116.6099005  77.6491779  32.6890958
 121.3479577  77.7691250  42.1777780 121.3368218  77.3744048  41.3058283
 121.5100217  77.0357322  42.7711551 114.2711042  79.9643066  35.0472685
 115.0632334  79.6233891  34.6318985 114.5107692  80.0738041  35.9674839
 116.2301796  79.2251979  27.9190064 117.0032672  78.6780966  27.7802940
 116.5827194  80.0896228  28.1304526 118.0686838  80.5528361  41.1256964
 117.7776704  81.4573992  41.0103630 118.7043823  80.5944889  41.8401033
 118.9943045  77.9305210  37.7158323 119.5906617  77.7061232  37.0015286
 119.0518017  77.1889955  38.3183771 118.5668073  75.3844645  25.5508514
 118.8193594  74.8626167  24.7891977 117.6292633  75.2210791  25.6535198
 118.2864362  77.2872751  27.7532889 118.1700620  76.6117655  28.4213973
 118.3966622  76.8005125  26.9365042 120.6295903  76.7482898  31.4579578
 120.2654110  76.2213519  32.1692500 121.4863019  76.3581367  31.2846064
 120.2701390  71.7772798  26.4540927 120.4375792  72.6453034  26.8211398
 120.0798559  71.9400080  25.5302216 116.4789205  76.6903574  34.1543462
 115.5539701  76.5579788  34.3621153 116.7273618  77.4697793  34.6513404
 120.2490611  74.2330456  27.4387594 120.1290236  74.6787506  28.2773074
 119.5543199  74.5815773  26.8801132 113.8398016  76.3336847  34.9887251
 113.9690397  76.5871326  35.9026662 113.1595467  76.9264555  34.6691906
 118.0097503  87.0034097  31.0877725 117.9321533  87.9541922  31.1666205
 117.4059147  86.6579970  31.7452651 120.5014733  74.1761963  43.7439092
 119.7248067  74.7355883  43.7341956 121.1405296  74.6618746  44.2653962
 118.7561105  76.9847416  43.3057059 119.4975790  77.5232460  43.0291882
 118.0498091  77.6113705  43.4628611 120.5847515  74.0649163  39.2762777
 121.4308710  74.4888577  39.4197426 120.5246153  73.4082788  39.9701340
 120.1073221  79.4252155  32.9231594 120.5711567  79.7039858  32.1336217
 119.8430019  78.5235600  32.7404685 116.9997302  78.9723637  35.8611358
 117.5698659  79.4010905  35.2228842 117.5905414  78.6906221  36.5595543
 119.0442107  75.5475308  29.7321159 119.7466151  75.9996351  30.1995086
 118.7122736  74.9059126  30.3601053 117.4922469  74.1387064  44.1072369
 116.8621129  74.8203345  44.3407766 117.3858557  74.0270146  43.1625507
 112.7867441  73.8058860  35.0338293 111.9966495  74.0616389  34.5578404
 113.2778689  74.6207198  35.1390334 114.7382187  74.1703440  31.9921770
 113.9413350  74.2822134  32.5105265 114.5107779  74.5090092  31.1262660
 120.5687854  80.6948143  39.9404284 120.6332287  81.1568550  40.7762456
 119.8598778  80.0645508  40.0686594 111.0705144  74.0589351  37.4653284
 111.3213183  74.9436361  37.7310860 111.6064693  73.8793952  36.6928376
 120.2835872  82.3616250  29.8083265 120.1481547  83.2067786  30.2368112
 120.8245684  82.5635528  29.0449198 116.7703212  68.4407830  46.4697620
 116.3770157  67.8874029  47.1445264 117.5869352  68.7518409  46.8604137
 113.7365269  79.8791688  30.3811190 114.2489790  80.6734939  30.5316754
 114.3887982  79.1817979  30.3144791 115.5460154  82.9957445  32.4633943
 115.7226782  83.9175409  32.2754927 116.3416988  82.6815864  32.8928323
 119.6871173  69.8565709  44.0617876 120.4280886  70.4572862  43.9822339
 119.9189095  69.1143347  43.5035919 114.8312511  75.0422076  42.3396106
 114.7166026  74.1407334  42.6403205 113.9757028  75.2885773  41.9880923
 116.6691470  84.5135618  38.4644285 117.2198895  84.3852682  37.6921279
 115.8302945  84.8130507  38.1139178 120.4658641  80.7786746  42.8088516
 120.9986977  80.0175034  42.5787824 119.9372722  80.4860398  43.5512671
 111.7014186  78.2080343  31.1570760 112.5389408  78.6177351  30.9404468
 111.8792454  77.2679785  31.1270954 121.1825729  70.7205124  31.9039832
 120.3267326  70.3311974  31.7245470 121.5952681  70.7997085  31.0439617
 118.9567762  68.3390197  35.3097573 119.8220759  68.1433006  34.9503463
 119.0245271  68.1100549  36.2366930 121.8311353  79.9072739  30.3207328
 121.3032715  79.1725498  30.0080566 121.3298856  80.6847415  30.0747297
 116.5630081  70.5692405  32.6813940 117.1373833  70.3467586  31.9487133
 117.1501063  70.6381099  33.4342541 116.8899668  72.5996866  26.7009825
 116.0536980  72.9371552  27.0219100 116.7504438  72.4645846  25.7636962
 118.8652749  67.4433654  31.4089009 118.2117161  67.1282671  30.7845624
 118.8233223  66.8209394  32.1348832 119.9763953  77.7252949  23.3242301
 119.0691015  77.4942202  23.5233450 120.4734985  76.9290568  23.5116283
 121.1552187  77.8265544  27.8466292 120.2463406  77.5424577  27.9438761
 121.1847271  78.2464622  26.9869598 111.7240357  75.5471058  31.8281494
 111.5264757  74.9540419  31.1032560 111.1687021  75.2423268  32.5457432
 119.7037081  75.4394164  33.9476087 119.7585691  74.4868001  33.8718563
 118.8928283  75.5953603  34.4317385 120.8528275  79.3674287  25.1854370
 120.4147705  78.6510146  24.7260007 121.5938716  79.5950402  24.6239461
 117.6429441  74.0571224  31.7066466 116.8297306  74.3565395  32.1131658
 118.1388435  73.6626913  32.4240948 119.7938019  84.0528981  33.6400730
 119.7514198  84.2789827  32.7109262 120.7100718  83.8192356  33.7886532
 117.1343516  71.6289580  37.3227701 117.7742895  71.4878339  36.6250664
 116.3021046  71.3424093  36.9466303 117.9103820  80.9292010  33.4362693
 118.7044418  80.4342330  33.2345268 117.1995512  80.4009873  33.0730399
 114.2186583  75.0735092  29.5122446 113.2884171  75.0119547  29.7292408
 114.3144055  74.5511045  28.7159087 114.1372132  71.5989905  32.1000687
 114.3978949  72.5135238  31.9909848 114.9589304  71.1314347  32.2497300
 115.6097057  73.0127662  39.2699512 116.2820111  72.8045024  38.6212161
 114.7826844  72.8149748  38.8304744 121.5122629  69.6389603  41.2865173
 120.8650544  70.3379552  41.1929649 122.2823645  70.0725747  41.6541421
 120.4875096  81.5021032  37.1160530 120.3486181  81.1339816  37.9886468
 119.6989692  82.0168671  36.9444488 121.0823247  86.6030128  28.4586067
 121.2575003  86.1318172  29.2731689 120.3956036  87.2295895  28.6867327
 122.0380311  80.8802635  34.5049368 121.7030143  80.8403405  35.4007018
 121.5384256  80.2147351  34.0319778 116.0124555  76.2870265  40.0301949
 115.8744353  75.5550504  40.6313488 116.9229478  76.1979165  39.7486137
 118.6406855  75.9990224  39.5185629 119.3506474  75.3583416  39.4772247
 118.5976163  76.2503119  40.4411810 117.3535789  72.9855442  41.3381268
 116.8173146  72.5346180  41.9902865 116.7652498  73.1201351  40.5951733
 115.6484333  89.7519491  35.2325927 115.8880931  90.3838015  35.9104945
 114.8053529  89.4007531  35.5191286 116.7638048  72.4444093  23.9007732
 115.8867515  72.3232894  23.5369979 117.2395801  71.6530172  23.6486621
 108.2840188  77.2321253  33.9949239 108.9711228  76.9182983  33.4070254
 108.1288317  78.1362618  33.7216491 113.0874911  72.1211450  38.4234263
 113.0033099  71.5137119  37.6884673 112.2657617  72.6120468  38.4243759
 120.1612195  85.5598614  37.6367431 120.0882366  86.3653585  38.1486735
 119.7189588  85.7590580  36.8115452 119.9501974  84.7970384  31.1470252
 119.1669496  85.3392064  31.2408477 120.6494719  85.3144363  31.5464494
 119.8433593  72.7482396  33.5176142 119.4731381  72.1953437  34.2057048
 120.3392686  72.1440530  32.9651142 117.6722792  83.2079891  40.6131160
 118.3732251  83.8416374  40.7660555 117.2017907  83.5494623  39.8526800
 121.5211651  76.5044310  44.9249748 120.8452288  76.4038439  45.5952123
 122.3439285  76.3483523  45.3885745 113.2690510  82.7416246  37.5462263
 113.8543947  81.9959934  37.6790167 113.0715348  83.0520203  38.4298927
 116.1229165  85.7767494  32.5624705 115.4539540  86.2613621  32.0788746
 115.9842035  86.0236714  33.4768084 107.8608164  75.3121846  36.2666706
 107.8992264  74.7785437  37.0603824 107.3548457  74.7857052  35.6477683
 120.2634434  87.8111237  39.1607364 120.8152742  87.9742859  39.9256449
 120.6040627  88.4015675  38.4887389 115.2398927  70.1586387  39.7629249
 115.3040253  71.0201218  39.3506646 115.1766047  69.5460389  39.0301607
 114.7151199  72.2309520  43.4102283 115.3423238  71.8486597  44.0239807
 113.8579118  72.0123721  43.7757975 111.4916742  74.0385949  29.3420638
 111.7870183  73.1296627  29.2887691 110.5904778  74.0173688  29.0201640
 115.0210989  72.1141945  35.3248186 114.2997575  72.7277913  35.1855660
 115.8104245  72.6499710  35.2464832 117.8237303  69.4496372  41.5988838
 118.3471704  69.6958668  42.3615147 117.6049636  70.2816406  41.1791975
 113.2204584  71.7200046  29.4659963 112.8917290  70.8397425  29.2835069
 113.5743954  71.6647715  30.3536352 116.3346407  72.0073016  29.8335440
 116.6742479  72.5358937  29.1114049 116.7818527  72.3453422  30.6094007
 119.0289848  70.3910067  39.2838508 118.6886668  69.5917880  39.6859188
 118.3228854  70.6911778  38.7115342 119.6806319  67.4759379  37.7365832
 120.5032389  67.0019857  37.6144722 119.9244383  68.2549863  38.2364518
 118.3214554  70.5047638  28.0328733 119.0422916  70.8828890  27.5292450
 117.6979858  71.2236514  28.1363711 117.2044898  74.1678500  35.5457810
 117.0589479  74.4818803  36.4382092 116.7270102  74.7863400  34.9928709
 119.0641281  71.1581048  35.5938700 119.0502850  70.2622141  35.2570998
 119.7813709  71.1651712  36.2276986 120.9167412  71.5918388  37.6391827
 120.6585190  72.5135459  37.6376158 120.3852452  71.1948823  38.3292291
 111.6790560  76.7083844  38.4845471 111.1344028  77.4843652  38.6165746
 112.5569910  77.0554649  38.3264593 118.4678177  70.0395428  30.8626270
 118.5894088  69.1112074  31.0617157 118.1780219  70.0534114  29.9504585
 121.3369367  67.7250339  33.9992990 121.3591064  67.7889672  33.0444969
 121.7537426  66.8854847  34.1933496 112.4656582  75.8353741  41.3775628
 111.7238318  75.9836376  41.9640259 112.1449327  76.0962006  40.5142378
 120.4100245  85.3769719  41.1756018 120.7187371  85.1318866  42.0478718
 121.2075727  85.5816357  40.6874888 120.4320857  87.5307628  33.4061395
 119.9925847  87.0384007  34.0994251 121.1828974  86.9880596  33.1653470
 112.9113196  83.7219169  33.4086023 113.7371216  83.4222941  33.0284666
 112.5607248  82.9526792  33.8575811 117.8794729  83.0745637  35.4783696
 117.2574738  82.4116342  35.1785924 118.5499596  83.1006769  34.7957344
 111.1121801  81.6405496  34.3674956 110.2753709  81.2127670  34.1858958
 111.0845446  81.8337939  35.3045748 117.9519257  71.5527425  45.0716202
 118.0007412  72.4289548  44.6893972 118.4941771  71.0104819  44.4987846
 117.4408236  81.6249561  28.9542157 117.5896356  82.3085025  28.3008830
 118.2474679  81.6054651  29.4691613 120.1818545  72.3058798  41.8262561
 119.3121854  72.5992364  41.5545150 120.4178025  72.8899243  42.5469825
 115.1960869  77.6514738  29.9603226 114.9506911  76.7477068  30.1583436
 115.3656784  77.6531889  29.0182704 114.4656517  73.3843096  27.4589387
 113.7725761  73.4587451  26.8029423 114.2208268  72.6203440  27.9810904
 120.9403642  84.1197691  26.4253904 120.3677609  84.7387878  25.9724376
 121.5136435  84.6697053  26.9593826 121.3250440  75.4558504  23.7669957
 122.2709545  75.3264712  23.8358375 120.9464685  74.7173166  24.2439385
 121.2089133  79.5076250  45.2270614 122.1292142  79.6854849  45.4210660
 121.1738716  78.5632295  45.0750313 119.5093357  73.3808480  23.7024842
 118.6024813  73.0841593  23.7787556 119.7869338  73.0838298  22.8359128
 110.4271298  74.7014844  34.1523888 110.1074082  73.8480152  33.8598262
 109.8804726  74.9163422  34.9081856 114.2051205  77.4177285  37.8693395
 114.4237215  78.3494393  37.8881429 114.6176979  77.0585259  38.6548199
 121.1255423  67.9245370  29.8569083 120.3156151  67.5792455  30.2324329
 121.8139840  67.6152914  30.4456695 119.0779070  72.9910491  47.2596144
 118.9775797  73.9404848  47.1908235 118.8600612  72.6628729  46.3872214
 118.2792142  70.2395416  23.8436821 119.1411306  70.5650314  24.1032639
 118.4642486  69.4526912  23.3309887 110.2959558  78.3217755  36.1217010
 109.6023029  77.9071708  35.6086964 111.0432549  78.3638292  35.5250429
 118.9410340  76.4207629  46.0761206 118.4577422  77.2207990  46.2825095
 119.0271280  76.4315574  45.1228650 112.2096300  78.2536009  33.9983025
 112.1866988  78.3523696  33.0464908 112.5196937  79.1001160  34.3200191
 114.8683678  80.3112164  38.1129639 115.8226932  80.2796106  38.0459571
 114.6696202  79.8502788  38.9279865 115.4583060  78.8813280  40.6800437
 116.2775949  79.3757359  40.7035274 115.7319868  77.9645248  40.6518005
 113.2233907  85.8531784  35.1299837 113.0888375  85.0932184  34.5637835
 112.8065969  86.5772683  34.6628626 116.3803033  86.7501101  35.3418280
 116.2635417  87.6946533  35.2396970 115.5595479  86.4474662  35.7304079
 110.7117974  73.2151414  41.3792634 111.3576838  72.7050368  41.8679859
 110.5035125  73.9520096  41.9536059 119.2321585  67.4791459  27.1316530
 119.2200255  68.4233299  27.2884801 120.1245007  67.2961604  26.8375991
 117.4057547  87.4029363  38.5574208 118.3084793  87.4352973  38.8740703
 117.1794917  86.4729813  38.5720544 119.1611149  86.1560349  35.2184287
 118.2106780  86.1562211  35.1048659 119.4643635  85.4093084  34.7020322
 115.0515465  70.3619031  45.4767648 115.9146927  70.0055836  45.6870973
 114.4780876  70.0232926  46.1643053 121.9098899  89.3881268  37.4653284
 122.1606937  90.2728278  37.7310860 122.4458447  89.2085870  36.6928376
 119.1233943  92.5613171  33.9949239 119.8104983  92.2474901  33.4070254
 118.9682072  93.4654535  33.7216491 118.7001919  90.6413764  36.2666706
 118.7386019  90.1077355  37.0603824 118.1942212  90.1148970  35.6477683
 121.9515555  96.9697413  34.3674956 121.1147464  96.5419588  34.1858958
 121.9239201  97.1629857  35.3045748 121.2665052  90.0306761  34.1523888
 120.9467836  89.1772070  33.8598262 120.7198480  90.2455340  34.9081856
 121.1353312  93.6509673  36.1217010 120.4416783  93.2363626  35.6086964
 121.8826303  93.6930209  35.5250429 121.5511729  88.5443332  41.3792634
 122.1970592  88.0342286  41.8679859 121.3428880  89.2812013  41.9536059
  74.6522486   2.6928549  17.8123032  74.5746516   3.6436374  17.8911512
  74.0484130   2.3474422  18.4697958  72.2909316   5.4413943  21.9571234
  72.5305914   6.0732467  22.6350252  71.4478513   5.0901983  22.2436593
  72.7654148   1.4661946  19.2870012  72.0964524   1.9508073  18.8034052
  72.6267018   1.7131166  20.2013391  76.9059417   3.5005689  25.8852670
  77.4577725   3.6637311  26.6501756  77.2465610   4.0910127  25.2132695
  77.0745840   3.2202080  20.1306701  76.6350831   2.7278459  20.8239558
  77.8253957   2.6775048  19.8898777  69.8658890   1.5426235  21.8545144
  69.7313358   0.7826636  21.2883142  69.4490952   2.2667135  21.3873933
  73.0228016   2.4395553  22.0663587  72.9060400   3.3840985  21.9642277
  72.2020462   2.1369114  22.4549386  74.0482530   3.0923814  25.2819515
  74.9509777   3.1247425  25.5986010  73.8219900   2.1624265  25.2965851
  88.3478532   7.6342767  22.9436881  88.0097043   7.5183832  22.0557416
  89.2168300   7.2333933  22.9237887  84.2065348   9.4878244  18.9333772
  83.6430213   9.3968181  18.1650059  84.0917743   8.6678148  19.4136264
  88.8298315   8.7877619  28.9023086  88.8186956   8.3930417  28.0303590
  88.9918954   8.0543692  29.4956858  81.7529779  10.9829435  21.7717992
  82.5451071  10.6420260  21.3564291  81.9926430  11.0924410  22.6920145
  89.7864906  13.1549212  14.2448237  89.1352886  13.7403292  13.8582250
  90.5809269  13.6855406  14.3043274  83.7120533  10.2438349  14.6435371
  84.4851409   9.6967336  14.5048247  84.0645932  11.1082598  14.8549832
  85.5505576  11.5714731  27.8502270  85.2595442  12.4760362  27.7348936
  86.1862560  11.6131259  28.5646340  86.4761783   8.9491579  24.4403630
  87.0725355   8.7247602  23.7260593  86.5336754   8.2076325  25.0429078
  85.7683100   8.3059121  14.4778196  85.6519358   7.6304024  15.1459280
  85.8785360   7.8191495  13.6610349  88.1114641   7.7669268  18.1824885
  87.7472848   7.2399889  18.8937806  88.9681757   7.3767737  18.0091370
  90.5095461  11.2576146  24.8452064  90.2096184  12.1601185  24.7367871
  90.1646521  10.9908330  25.6973217  83.9607943   7.7089943  20.8788768
  83.0358439   7.5766157  21.0866460  84.2092356   8.4884163  21.3758711
  81.3216754   7.3523217  21.7132557  81.4509135   7.6057696  22.6271969
  80.6414205   7.9450925  21.3937212  85.4916241  18.0220467  17.8123032
  85.4140271  18.9728292  17.8911512  84.8877884  17.6766339  18.4697958
  86.2379843   8.0033786  30.0302365  86.9794527   8.5418830  29.7537189
  85.5316828   8.6300074  30.1873917  91.7135183  10.1462926  28.6274527
  92.1218539   9.7045337  27.8829159  90.9912444   9.5715554  28.8808720
  92.0363997  10.7064117  22.3826816  91.4072860  10.8709831  21.6802884
  91.6489659  11.1205726  23.1537780  95.9153229  11.6418555  19.7371180
  95.2304267  12.0217456  19.1868213  95.9997078  12.2513881  20.4703127
  93.1704161   9.2878514  26.3366523  93.3821056   9.9310273  25.6600904
  93.1233909   8.4540830  25.8688453  87.5891959  10.4438525  19.6476901
  88.0530305  10.7226228  18.8581523  87.3248757   9.5421969  19.4649992
  84.4816040   9.9910006  22.5856664  85.0517397  10.4197275  21.9474149
  85.0724152   9.7092591  23.2840850  86.5260845   6.5661677  16.4566466
  87.2284888   7.0182721  16.9240392  86.1941474   5.9245496  17.0846359
  84.9741207   5.1573434  30.8317675  84.3439867   5.8389715  31.0653072
  84.8677295   5.0456515  29.8870814  80.2686179   4.8245230  21.7583600
  79.4785233   5.0802758  21.2823710  80.7597426   5.6393568  21.8635640
  94.2849989  12.1650469  24.5088880  95.1067432  11.7630656  24.2271562
  94.2812392  12.0618703  25.4604996  82.2200924   5.1889809  18.7167076
  81.4232088   5.3008503  19.2350572  81.9926517   5.5276461  17.8507967
  88.0506592  11.7134512  26.6649591  88.1151025  12.1754920  27.5007763
  87.3417516  11.0831877  26.7931901  78.5523882   5.0775720  24.1898590
  78.8031921   5.9622730  24.4556166  79.0883430   4.8980322  23.4173682
  87.7654610  13.3802620  16.5328571  87.6300285  14.2254156  16.9613419
  88.3064422  13.5821897  15.7694505  81.2184007  10.8978058  17.1056496
  81.7308528  11.6921308  17.2562061  81.8706720  10.2004348  17.0390098
  83.0278892  14.0143814  19.1879250  83.2045520  14.9361779  19.0000233
  83.8235725  13.7002233  19.6173629  82.3131248   6.0608446  29.0641413
  82.1984764   5.1593703  29.3648512  81.4575766   6.3072143  28.7126229
  89.3923086  14.0026186  30.6628913  88.9486940  13.2162565  30.3449818
  90.0540300  14.1905337  29.9972804  84.1510207  15.5321988  25.1889592
  84.7017632  15.4039051  24.4166586  83.3121683  15.8316877  24.8384485
  91.4904324  14.2828986  28.6910315  91.4722800  15.1037867  28.1990584
  92.4124244  14.1583061  28.9160456  87.9477378  11.7973116  29.5333823
  88.4805715  11.0361404  29.3033131  87.4191459  11.5046768  30.2757977
  79.1832924   9.2266712  17.8816067  80.0208146   9.6363720  17.6649775
  79.3611192   8.2866154  17.8516261  89.3130091  10.9259108  17.0452635
  88.7851453  10.1911868  16.7325872  88.8117594  11.7033785  16.7992603
  94.2922937   9.1208129  22.1619681  93.6346612   9.8107390  22.2499810
  95.0963336   9.5104561  22.5053668  90.3650770  17.4536826  12.9684294
  89.6912469  17.7568522  13.5769252  90.7516592  18.2565906  12.6189751
  93.8690192  12.4558503  18.3402766  93.4152519  11.6149413  18.3967956
  93.2384159  13.0919901  18.6777546  92.3123131  14.2935000  19.2752584
  92.6046106  14.8540057  18.5564949  92.8221752  14.5863561  20.0305743
  79.2059095   6.5657427  18.5526800  79.0083495   5.9726788  17.8277867
  78.6505759   6.2609638  19.2702739  87.2756757  15.0715351  20.3646037
  87.2332935  15.2976197  19.4354569  88.1919455  14.8378725  20.5131838
  96.4789507  10.7294381  22.9787267  96.9126014  10.6369670  23.8270321
  97.1921088  10.7051882  22.3407283  85.3922557  11.9478380  20.1608000
  86.1863156  11.4528700  19.9590575  84.6814250  11.4196243  19.7975705
  90.2117402  14.3296475  24.5120367  90.2654424  14.8987411  25.2798083
  89.3432183  14.4998360  24.1474405  81.7005321   6.0921461  16.2367752
  80.7702909   6.0305917  16.4537715  81.7962793   5.5697414  15.4404394
  97.3405056  10.7718082  25.5120152  97.5340947  11.6763892  25.7579427
  97.2405675  10.3125501  26.3458737  92.4020165  10.9224824  31.0861033
  92.2505672  10.6935376  30.1691116  92.3924845  11.8795426  31.0992378
  89.1705502   8.4956737  26.0707299  90.0997562   8.6467897  25.8976267
  88.7496532   8.5840758  25.2155946  87.9693833  12.5207402  23.8405837
  87.8304919  12.1526186  24.7131775  87.1808430  13.0355041  23.6689795
  88.5641985  17.6216498  15.1831373  88.7393741  17.1504541  15.9976996
  87.8774773  18.2482264  15.4112634  89.5199048  11.8989004  21.2294675
  89.1848881  11.8589774  22.1252325  89.0202994  11.2333720  20.7565085
  83.4943292   7.3056634  26.7547256  83.3563090   6.5736873  27.3558795
  84.4048216   7.2165534  26.4731444  86.1225593   7.0176594  26.2430935
  86.8325212   6.3769786  26.2017554  86.0794901   7.2689488  27.1657116
  94.1112372  13.9543947  29.1637515  94.0524918  13.2703167  28.4968098
  94.5131890  14.6962937  28.7118141  83.1303071  20.7705861  21.9571234
  83.3699669  21.4024385  22.6350252  82.2872267  20.4193901  22.2436593
  94.1129779  11.9183531  27.3951494  93.2256558  11.5809453  27.5177893
  94.6828330  11.1866562  27.6320260  75.7658926   8.2507623  20.7194546
  76.4529966   7.9369353  20.1315561  75.6107055   9.1548987  20.4461797
  87.6430932  16.5784983  24.3612738  87.5701104  17.3839955  24.8732042
  87.2008326  16.7776949  23.5360759  87.4320712  15.8156753  17.8715559
  86.6488234  16.3578433  17.9653784  88.1313457  16.3330733  18.2709800
  90.1029616  16.4771817  26.5170896  90.8157588  17.1119282  26.4446798
  89.6119645  16.5735683  25.7010898  91.8247143  10.3823070  18.0888188
  90.8903422  10.5024532  17.9192892  92.0023811   9.4795537  17.8248198
  85.1541529  14.2266261  27.3376467  85.8550989  14.8602744  27.4905861
  84.6836644  14.5680992  26.5772106  89.9149989  16.8170561  19.2657188
  90.0972384  15.9992217  19.7284940  90.7382975  17.0338254  18.8282078
  90.2492155  15.7438747  16.5272236  90.7779921  15.2331201  15.9142398
  90.5120374  15.4281277  17.3917769  89.0030388   7.5230679  31.6495054
  88.3271025   7.4224809  32.3197430  89.8258022   7.3669893  32.1131052
  80.7509248  13.7602616  24.2707570  81.3362684  13.0146304  24.4035474
  80.5534086  14.0706573  25.1544234  83.6047903  16.7953863  19.2870012
  82.9358278  17.2799991  18.8034052  83.4660772  17.0423084  20.2013391
  75.3426902   6.3308216  22.9912013  75.3811002   5.7971807  23.7849131
  74.8367195   5.8043422  22.3722990  87.7453171  18.8297607  25.8852670
  88.2971479  18.9929228  26.6501756  88.0859365  19.4202045  25.2132695
  92.5964046  13.6558864  31.7401325  93.1403950  14.2688823  31.2456280
  92.0150891  14.2138443  32.2568338  78.9735480   5.0572318  16.0665944
  79.2688921   4.1482997  16.0132998  78.0723516   5.0360058  15.7446947
  90.8821559  16.7779582  22.8716353  90.7572698  15.9769322  22.3627298
  91.5400650  17.2725776  22.3830323  92.9456467  14.5788602  24.4995903
  91.9986803  14.4593954  24.4274229  93.2939240  13.6911100  24.5822164
  89.9502900  14.3741319  20.7000255  89.8027863  13.4458026  20.8807825
  90.7756394  14.3961409  20.2157330  93.5537022  15.1969877  21.7865128
  94.4783570  14.9912739  21.6489579  93.3852326  14.9486278  22.6954469
  84.6863636   5.1864869  22.2703117  84.5408217   5.5005172  23.1627398
  84.2088840   5.8049770  21.7174015  93.3432338  15.7155545  17.1427219
  93.5169216  15.1501967  16.3901072  93.8361230  16.5156440  16.9606709
  79.1609298   7.7270214  25.2090778  78.6162766   8.5030022  25.3411052
  80.0388648   8.0741018  25.0509899  79.9475320   6.8540110  28.1020935
  79.2057056   7.0022745  28.6885565  79.6268064   7.1148376  27.2387684
  87.8918983  16.3956088  27.9001325  88.2006109  16.1505235  28.7724024
  88.6894465  16.6002727  27.4120195  87.9139595  18.5493998  20.1306701
  87.4744585  18.0570377  20.8239558  88.6647712  18.0066966  19.8898777
  80.3931934  14.7405539  20.1331329  81.2189954  14.4409311  19.7529973
  80.0425986  13.9713161  20.5821118  85.3613467  14.0932007  22.2029003
  84.7393476  13.4302712  21.9031231  86.0318334  14.1193139  21.5202651
  78.5940539  12.6591865  21.0920263  77.7572447  12.2314040  20.9104264
  78.5664184  12.8524309  22.0291054  95.9192840  13.1154918  31.0762646
  95.1288384  13.0979057  30.5367146  95.6826195  13.6543212  31.8311683
  96.0390715   9.9647385  28.3895375  96.0888720   9.7997392  29.3310897
  95.9304638   9.0974644  27.9993255  84.9226974  12.6435930  15.6787464
  85.0715094  13.3271395  15.0254136  85.7293417  12.6241020  16.1936919
  97.5408912  12.3844326  28.6337396  97.2493720  12.7474307  29.4700857
  96.9281043  11.6711334  28.4550728  82.6779607   8.6701108  16.6848532
  82.4325649   7.7663438  16.8828743  82.8475521   8.6718258  15.7428010
  88.4222379  15.1384061  13.1499211  87.8496346  15.7574248  12.6969683
  88.9955173  15.6883423  13.6839133  91.6419639  15.4221211  14.2807793
  92.5750312  15.3566773  14.4840669  91.5542852  16.2577478  13.8222326
  88.6907870  10.5262620  31.9515920  89.6110880  10.7041219  32.1455967
  88.6557453   9.5818665  31.7995620  77.9090035   5.7201213  20.8769195
  77.5892820   4.8666522  20.5843569  77.3623464   5.9349792  21.6327162
  81.6869943   8.4363654  24.5938702  81.9055953   9.3680762  24.6126735
  82.0995717   8.0771629  25.3793505  77.7778295   9.3404125  22.8462317
  77.0841767   8.9258078  22.3332271  78.5251286   9.3824661  22.2495736
  86.4229078   7.4393999  32.8006512  85.9396160   8.2394359  33.0070401
  86.5090017   7.4501944  31.8473956  79.6915038   9.2722379  20.7228332
  79.6685726   9.3710066  19.7710215  80.0015674  10.1187529  21.0445498
  82.3502416  11.3298534  24.8374946  83.3045669  11.2982476  24.7704878
  82.1514939  10.8689157  25.6525172  82.9401798   9.8999650  27.4045744
  83.7594687  10.3943728  27.4280581  83.2138606   8.9831618  27.3763311
  80.7052645  16.8718153  21.8545144  80.5707112  16.1118554  21.2883142
  80.2884707  17.5959053  21.3873933  83.8621770  17.7687470  22.0663587
  83.7454155  18.7132903  21.9642277  83.0414217  17.4661032  22.4549386
  78.1936712   4.2337784  28.1037941  78.8395576   3.7236738  28.5925166
  77.9853863   4.9706465  28.6781366  90.7190104  11.3018631  33.6030081
  91.5881264  11.4759283  33.2416716  90.2396856  12.1213048  33.4805811
  84.8876285  18.4215732  25.2819515  85.7903531  18.4539342  25.5986010
  84.6613655  17.4916183  25.2965851  86.6429887  17.1746719  21.9429594
  85.6925518  17.1748580  21.8293966  86.9462373  16.4279453  21.4265628
 102.3782580  23.0107257  23.0075356 103.0160990  22.8914004  22.3038696
 102.2603423  23.9588101  23.0663308  99.1872286  22.9634685  22.9436881
  98.8490798  22.8475750  22.0557416 100.0562055  22.5625850  22.9237887
  95.0459102  24.8170162  18.9333772  94.4823967  24.7260098  18.1650059
  94.9311497  23.9970066  19.4136264  99.6692069  24.1169537  28.9023086
  99.6580710  23.7222335  28.0303590  99.8312709  23.3835609  29.4956858
  92.5923534  26.3121353  21.7717992  93.3844826  25.9712178  21.3564291
  92.8320184  26.4216328  22.6920145 100.6258661  28.4841129  14.2448237
  99.9746641  29.0695210  13.8582250 101.4203024  29.0147324  14.3043274
  94.5514288  25.5730266  14.6435371  95.3245164  25.0259253  14.5048247
  94.9039687  26.4374516  14.8549832  96.3899330  26.9006649  27.8502270
  96.0989196  27.8052279  27.7348936  97.0256315  26.9423176  28.5646340
  97.3155537  24.2783497  24.4403630  97.9119110  24.0539520  23.7260593
  97.3730509  23.5368243  25.0429078 101.9323849  20.7358711  20.0828564
 102.7186938  20.3178134  19.7318981 102.1962553  21.6404803  20.2510212
  96.6076854  23.6351038  14.4778196  96.4913113  22.9595942  15.1459280
  96.7179114  23.1483412  13.6610349  98.9508395  23.0961186  18.1824885
  98.5866603  22.5691807  18.8937806  99.8075511  22.7059655  18.0091370
 104.8557696  14.3855518  25.4456151 104.5241021  15.2550929  25.2217366
 104.2603309  14.0691802  26.1250182 101.3489216  26.5868064  24.8452064
 101.0489939  27.4893103  24.7367871 101.0040275  26.3200247  25.6973217
  94.8001697  23.0381861  20.8788768  93.8752194  22.9058075  21.0866460
  95.0486110  23.8176080  21.3758711 104.7486359  19.1050604  22.5249501
 103.8403237  19.0366013  22.2308262 104.6973955  19.5822549  23.3531327
  92.1610508  22.6815135  21.7132557  92.2902889  22.9349613  22.6271969
  91.4807959  23.2742843  21.3937212  96.3309995  33.3512385  17.8123032
  96.2534025  34.3020210  17.8911512  95.7271639  33.0058257  18.4697958
  98.8227225  20.5240250  30.4684398  98.0460559  21.0834170  30.4587263
  99.4617788  21.0097033  30.9899269 106.6148006  17.3067043  24.3027375
 105.9722386  17.5999576  23.6567170 106.1102934  17.1919963  25.1080572
  97.0773597  23.3325703  30.0302365  97.8188282  23.8710747  29.7537189
  96.3710583  23.9591992  30.1873917 102.5528937  25.4754844  28.6274527
 102.9612293  25.0337254  27.8829159 101.8306199  24.9007471  28.8808720
  98.9060007  20.4127451  26.0008084  99.7521202  20.8366864  26.1442733
  98.8458645  19.7561075  26.6946647 102.8757752  26.0356034  22.3826816
 102.2466614  26.2001749  21.6802884 102.4883414  26.4497644  23.1537780
 106.7546984  26.9710472  19.7371180 106.0698022  27.3509374  19.1868213
 106.8390833  27.5805799  20.4703127 102.0559452  18.0731819  27.6589258
 101.8120384  18.8273879  27.1223533 102.3319383  18.4517166  28.4936505
 104.0097915  24.6170431  26.3366523 104.2214810  25.2602191  25.6600904
 103.9627663  23.7832748  25.8688453 101.6124144  17.2288252  23.2403095
 100.7508623  17.5269505  23.5319833 101.6386579  17.4458651  22.3084128
  98.4285714  25.7730442  19.6476901  98.8924059  26.0518145  18.8581523
  98.1642512  24.8713887  19.4649992  95.3209795  25.3201924  22.5856664
  95.8911152  25.7489192  21.9474149  95.9117906  25.0384509  23.2840850
  97.3654600  21.8953595  16.4566466  98.0678643  22.3474639  16.9240392
  97.0335228  21.2537414  17.0846359  95.8134961  20.4865351  30.8317675
  95.1833622  21.1681632  31.0653072  95.7071049  20.3748433  29.8870814
  91.1079934  20.1537147  21.7583600  90.3178988  20.4094676  21.2823710
  91.5991181  20.9685485  21.8635640 105.1243743  27.4942387  24.5088880
 105.9461187  27.0922574  24.2271562 105.1206146  27.3910621  25.4604996
  93.0594679  20.5181727  18.7167076  92.2625842  20.6300421  19.2350572
  92.8320271  20.8568379  17.8507967  98.8900347  27.0426430  26.6649591
  98.9544779  27.5046837  27.5007763  98.1811270  26.4123795  26.7931901
  89.3917637  20.4067638  24.1898590  89.6425675  21.2914648  24.4556166
  89.9277185  20.2272239  23.4173682  98.6048364  28.7094537  16.5328571
  98.4694039  29.5546073  16.9613419  99.1458177  28.9113815  15.7694505
  95.0915704  14.7886117  33.1942926  94.6982649  14.2352316  33.8690571
  95.9081844  15.0996696  33.5849444  92.0577762  26.2269975  17.1056496
  92.5702282  27.0213226  17.2562061  92.7100474  25.5296266  17.0390098
  93.8672646  29.3435732  19.1879250  94.0439275  30.2653696  19.0000233
  94.6629480  29.0294151  19.6173629  98.0083665  16.2043996  30.7863183
  98.7493378  16.8051150  30.7067646  98.2401588  15.4621634  30.2281226
  93.1525003  21.3900364  29.0641413  93.0378518  20.4885621  29.3648512
  92.2969521  21.6364060  28.7126229 100.2316841  29.3318104  30.6628913
  99.7880695  28.5454483  30.3449818 100.8934054  29.5197254  29.9972804
  94.9903962  30.8613906  25.1889592  95.5411387  30.7330969  24.4166586
  94.1515438  31.1608795  24.8384485 102.3298079  29.6120904  28.6910315
 102.3116554  30.4329785  28.1990584 103.2517999  29.4874979  28.9160456
  98.7871133  27.1265033  29.5333823  99.3199470  26.3653322  29.3033131
  98.2585214  26.8338685  30.2757977 101.9540828  12.2325099  25.0627465
 101.6105097  13.1226741  24.9866575 102.3219790  12.0426757  24.1997050
  90.0226678  24.5558630  17.8816067  90.8601900  24.9655638  17.6649775
  90.2004946  23.6158072  17.8516261 101.0337368  14.6029755  23.0276698
 100.5302164  14.5659890  22.2144503 101.3267975  15.5122497  23.0873355
  97.2780254  14.6868484  22.0342880  98.1433251  14.4911293  21.6748769
  97.3457763  14.4578836  22.9612236 100.1523846  26.2551026  17.0452635
  99.6245207  25.5203785  16.7325872  99.6511348  27.0325702  16.7992603
 105.1316692  24.4500046  22.1619681 104.4740366  25.1399308  22.2499810
 105.9357091  24.8396478  22.5053668  94.8842573  16.9170692  19.4059247
  95.4586325  16.6945874  18.6732439  95.4713556  16.9859387  20.1587848
 103.9422150  22.8044419  20.2123623 104.4554032  23.4374411  20.7145333
 104.5923374  22.2045615  19.8466983 101.2044525  32.7828743  12.9684294
 100.5306223  33.0860440  13.5769252 101.5910347  33.5857824  12.6189751
 100.4202981  20.2793875  22.4581964  99.5025543  20.5008822  22.3003652
 100.8363125  20.3540185  21.5993671 104.7083947  27.7850420  18.3402766
 104.2546274  26.9441330  18.3967956 104.0777913  28.4211819  18.6777546
 103.1516886  29.6226917  19.2752584 103.4439860  30.1831974  18.5564949
 103.6615506  29.9155478  20.0305743  90.0452850  21.8949345  18.5526800
  89.8477249  21.3018706  17.8277867  89.4899514  21.5901555  19.2702739
  98.0249573  21.7872452  20.6721393  98.0798183  20.8346288  20.5963870
  97.2140775  21.9431891  21.1562692  95.9641933  20.4049511  18.4311772
  95.1509799  20.7043682  18.8376965  96.4600927  20.0105200  19.1486255
  98.1150511  30.4007268  20.3646037  98.0726690  30.6268115  19.4354569
  99.0313210  30.1670643  20.5131838 101.5616145  20.8691336  27.2626666
 101.9165533  21.0962809  28.1221132 102.2088276  21.2009713  26.6403922
  95.4556008  17.9767867  24.0473007  96.0955387  17.8356626  23.3495971
  94.6233538  17.6902380  23.6711609 107.3183261  26.0586299  22.9787267
 107.7519768  25.9661588  23.8270321 108.0314842  26.0343799  22.3407283
  96.2316312  27.2770297  20.1608000  97.0256910  26.7820617  19.9590575
  95.5208004  26.7488160  19.7975705 101.0511156  29.6588393  24.5120367
 101.1048179  30.2279329  25.2798083 100.1825938  29.8290278  24.1474405
  92.5399075  21.4213379  16.2367752  91.6096663  21.3597835  16.4537715
  92.6356547  20.8989332  15.4404394  92.4584624  17.9468192  18.8245994
  92.7191442  18.8613525  18.7155155  93.2801797  17.4792634  18.9742607
  93.9309550  19.3605949  25.9944819  94.6032603  19.1523311  25.3457468
  93.1039336  19.1628035  25.5550051 108.1798811  26.1009999  25.5120152
 108.3734701  27.0055810  25.7579427 108.0799429  25.6417418  26.3458737
  99.8335122  15.9867890  28.0110480  99.1863037  16.6857840  27.9174956
 100.6036137  16.4204034  28.3786728 103.2413920  26.2516742  31.0861033
 103.0899426  26.0227294  30.1691116 103.2318599  27.2087344  31.0992378
 100.0099256  23.8248655  26.0707299 100.9391316  23.9759814  25.8976267
  99.5890286  23.9132676  25.2155946  98.8087588  27.8499319  23.8405837
  98.6698674  27.4818104  24.7131775  98.0202184  28.3646959  23.6689795
  99.4035740  32.9508416  15.1831373  99.5787495  32.4796459  15.9976996
  98.7168528  33.5774182  15.4112634 100.3592803  27.2280922  21.2294675
 100.0242636  27.1881692  22.1252325  99.8596749  26.5625638  20.7565085
  94.3337047  22.6348552  26.7547256  94.1956845  21.9028791  27.3558795
  95.2441970  22.5457452  26.4731444  96.9619348  22.3468511  26.2430935
  97.6718966  21.7061704  26.2017554  96.9188656  22.5981406  27.1657116
 104.9506126  29.2835865  29.1637515 104.8918672  28.5995085  28.4968098
 105.3525645  30.0254855  28.7118141  95.6748282  19.3333729  28.0626575
  95.1385639  18.8824468  28.7148171  95.0864990  19.4679638  27.3197039
  93.9696825  36.0997779  21.9571234  94.2093423  36.7316303  22.6350252
  93.1266022  35.7485819  22.2436593 104.9523534  27.2475449  27.3951494
 104.0650312  26.9101370  27.5177893 105.5222085  26.5158480  27.6320260
  86.6052681  23.5799540  20.7194546  87.2923720  23.2661270  20.1315561
  86.4500809  24.4840905  20.4461797  91.4087403  18.4689737  25.1479569
  91.3245592  17.8615406  24.4129979  90.5870109  18.9598755  25.1489066
  98.4824687  31.9076901  24.3612738  98.4094858  32.7131872  24.8732042
  98.0402080  32.1068867  23.5360759  98.2714467  31.1448671  17.8715559
  97.4881988  31.6870351  17.9653784  98.9707212  31.6622651  18.2709800
 100.9423370  31.8063735  26.5170896 101.6551343  32.4411200  26.4446798
 100.4513399  31.9027601  25.7010898 102.6640897  25.7114988  18.0888188
 101.7297176  25.8316450  17.9192892 102.8417566  24.8087454  17.8248198
  98.1646085  19.0960683  20.2421449  97.7943873  18.5431724  20.9302355
  98.6605178  18.4918817  19.6896449  95.9935284  29.5558178  27.3376467
  96.6944743  30.1894661  27.4905861  95.5230399  29.8972910  26.5772106
 103.7936570  22.1102786  25.1629017 103.1408020  22.3578693  24.5081470
 104.1716950  21.2966924  24.8291495 100.7543744  32.1462479  19.2657188
 100.9366138  31.3284135  19.7284940 101.5776730  32.3630171  18.8282078
 101.0885909  31.0730664  16.5272236 101.6173676  30.5623119  15.9142398
 101.3514129  30.7573194  17.3917769  99.8424143  22.8522597  31.6495054
  99.1664780  22.7516726  32.3197430 100.6651777  22.6961811  32.1131052
  91.5903002  29.0894533  24.2707570  92.1756439  28.3438221  24.4035474
  91.3927840  29.3998490  25.1544234  94.4441657  32.1245781  19.2870012
  93.7752033  32.6091909  18.8034052  94.3054527  32.3715001  20.2013391
  86.1820657  21.6600134  22.9912013  86.2204756  21.1263724  23.7849131
  85.6760950  21.1335339  22.3722990  98.5846926  34.1589524  25.8852670
  99.1365234  34.3221146  26.6501756  98.9253119  34.7493962  25.2132695
  93.5611419  16.5064674  26.4874555  93.6252746  17.3679505  26.0751953
  93.4978539  15.8938676  25.7546914  93.0363692  18.5787807  30.1347589
  93.6635730  18.1964884  30.7485114  92.1791610  18.3602009  30.5003282
 103.4357800  28.9850782  31.7401325 103.9797704  29.5980740  31.2456280
 102.8544645  29.5430360  32.2568338  89.8129234  20.3864236  16.0665944
  90.1082675  19.4774914  16.0132998  88.9117270  20.3651975  15.7446947
 101.7215313  32.1071500  22.8716353 101.5966453  31.3061240  22.3627298
 102.3794404  32.6017693  22.3830323  93.3423481  18.4620232  22.0493493
  92.6210067  19.0756200  21.9100966  94.1316737  18.9977997  21.9710139
 103.7850222  29.9080520  24.4995903 102.8380557  29.7885871  24.4274229
 104.1332995  29.0203018  24.5822164  96.1449795  15.7974659  28.3234145
  96.6684197  16.0436955  29.0860454  95.9262128  16.6294694  27.9037282
  91.5417076  18.0678334  16.1905269  91.2129782  17.1875712  16.0080375
  91.8956447  18.0126002  17.0781659 100.7896655  29.7033236  20.7000255
 100.6421617  28.7749944  20.8807825 101.6150148  29.7253327  20.2157330
  94.6558899  18.3551303  16.5580747  94.9954972  18.8837225  15.8359355
  95.1031020  18.6931709  17.3339314 104.3930777  30.5261795  21.7865128
 105.3177324  30.3204656  21.6489579 104.2246080  30.2778196  22.6954469
  97.3502340  16.7388354  26.0083815  97.0099160  15.9396167  26.4104495
  96.6441346  17.0390065  25.4360648  98.0018812  13.8237666  24.4611138
  98.8244881  13.3498145  24.3390028  98.2456875  14.6028150  24.9609824
  95.5257391  20.5156787  22.2703117  95.3801971  20.8297090  23.1627398
  95.0482594  21.1341687  21.7174015  97.3853773  17.5059335  22.3184006
  97.3715342  16.6100428  21.9816304  98.1026202  17.5129999  22.9522292
  99.2379904  17.9396675  24.3637134  98.9797682  18.8613746  24.3621464
  98.7064944  17.5427110  25.0537598 104.1826093  31.0447462  17.1427219
 104.3562970  30.4793885  16.3901072 104.6754984  31.8448357  16.9606709
  90.0003053  23.0562131  25.2090778  89.4556521  23.8321939  25.3411052
  90.8782403  23.4032936  25.0509899  96.7890669  16.3873715  17.5871576
  96.9106581  15.4590362  17.7862464  96.4992712  16.4012401  16.6749892
  90.7869075  22.1832028  28.1020935  90.0450811  22.3314663  28.6885565
  90.4661819  22.4440293  27.2387684  98.7312737  31.7248006  27.9001325
  99.0399864  31.4797153  28.7724024  99.5288219  31.9294644  27.4120195
  98.7533349  33.8785916  20.1306701  98.3138340  33.3862294  20.8239558
  99.5041466  33.3358883  19.8898777  91.2325688  30.0697456  20.1331329
  92.0583708  29.7701228  19.7529973  90.8819740  29.3005079  20.5821118
  96.2007221  29.4223925  22.2029003  95.5787231  28.7594630  21.9031231
  96.8712088  29.4485057  21.5202651  89.4334293  27.9883783  21.0920263
  88.5966202  27.5605957  20.9104264  89.4057939  28.1816226  22.0291054
  96.2731749  17.9005713  31.7961509  96.3219904  18.7767836  31.4139279
  96.8154263  17.3583106  31.2233152 106.7586595  28.4446836  31.0762646
 105.9682138  28.4270975  30.5367146 106.5219949  28.9835130  31.8311683
 106.8784470  25.2939302  28.3895375 106.9282475  25.1289310  29.3310897
 106.7698393  24.4266561  27.9993255  95.7620728  27.9727848  15.6787464
  95.9108849  28.6563312  15.0254136  96.5687172  27.9532938  16.1936919
 104.1688232  21.2770230  29.7054681 105.0698095  21.1376695  29.4138679
 104.2436206  21.4424685  30.6452859  98.5031037  18.6537085  28.5507868
  97.6334347  18.9470651  28.2790456  98.7390518  19.2377530  29.2715131
 108.3802666  27.7136244  28.6337396 108.0887475  28.0766224  29.4700857
 107.7674798  27.0003252  28.4550728 106.6289855  22.8368858  27.1017454
 107.1043976  23.0296505  26.2936306 105.7055420  22.8928044  26.8560838
  93.5173361  23.9993026  16.6848532  93.2719403  23.0955356  16.8828743
  93.6869276  24.0010176  15.7428010 101.2070071  14.8716702  26.0673288
 101.7252015  15.6077729  25.7419777 100.8525204  15.1780695  26.9020047
  92.7869009  19.7321383  14.1834694  92.0938254  19.8065738  13.5274730
  92.5420761  18.9681727  14.7056211  99.2616134  30.4675978  13.1499211
  98.6890101  31.0866166  12.6969683  99.8348927  31.0175340  13.6839133
 105.3291524  19.7134619  25.3345760 106.2808947  19.8132716  25.3557984
 105.1594974  18.9212887  25.8443844 103.3505903  16.7990202  25.5205161
 102.7555835  17.0795215  24.8251649 103.0655600  17.2884103  26.2921902
 102.4813394  30.7513129  14.2807793 103.4144067  30.6858690  14.4840669
 102.3936606  31.5869395  13.8222326 107.8079601  22.9340738  24.4488059
 107.7755922  21.9956739  24.6347743 108.4180225  23.0124775  23.7153884
  99.5301625  25.8554537  31.9515920 100.4504634  26.0333136  32.1455967
  99.4951208  24.9110583  31.7995620  88.7483790  21.0493131  20.8769195
  88.4286574  20.1958439  20.5843569  88.2017218  21.2641709  21.6327162
  92.5263697  23.7655572  24.5938702  92.7449707  24.6972680  24.6126735
  92.9389471  23.4063546  25.3793505  97.3991563  19.3388778  33.9841451
  97.2988290  20.2883135  33.9153542  97.1813105  19.0107017  33.1117521
  88.6172050  24.6696043  22.8462317  87.9235521  24.2549995  22.3332271
  89.3645041  24.7116579  22.2495736  97.2622833  22.7685917  32.8006512
  96.7789914  23.5686277  33.0070401  97.3483772  22.7793862  31.8473956
  90.5308792  24.6014296  20.7228332  90.5079480  24.7001984  19.7710215
  90.8409429  25.4479447  21.0445498  93.1896170  26.6590451  24.8374946
  94.1439424  26.6274394  24.7704878  92.9908694  26.1981075  25.6525172
  93.7795552  25.2291567  27.4045744  94.5988441  25.7235646  27.4280581
  94.0532360  24.3123536  27.3763311  91.5446399  32.2010071  21.8545144
  91.4100867  31.4410472  21.2883142  91.1278461  32.9250971  21.3873933
  94.7015525  33.0979388  22.0663587  94.5847909  34.0424820  21.9642277
  93.8807971  32.7952949  22.4549386  89.0330467  19.5629701  28.1037941
  89.6789330  19.0528655  28.5925166  88.8247618  20.2998383  28.6781366
 101.5583859  26.6310549  33.6030081 102.4275018  26.8051201  33.2416716
 101.0790610  27.4504966  33.4805811  95.7270039  33.7507650  25.2819515
  96.6297286  33.7831260  25.5986010  95.5007409  32.8208101  25.2965851
  97.4823641  32.5038636  21.9429594  96.5319272  32.5040498  21.8293966
  97.7856127  31.7571371  21.4265628  93.3727958  16.7097318  32.2012955
  94.2359419  16.3534123  32.4116280  92.7993368  16.3711213  32.8888359
 113.2176335  38.3399175  23.0075356 113.8554744  38.2205922  22.3038696
 113.0997177  39.2880019  23.0663308 110.0266041  38.2926603  22.9436881
 109.6884552  38.1767667  22.0557416 110.8955809  37.8917768  22.9237887
 105.8852857  40.1462079  18.9333772 105.3217722  40.0552016  18.1650059
 105.7705252  39.3261984  19.4136264 110.5085824  39.4461455  28.9023086
 110.4974465  39.0514253  28.0303590 110.6706463  38.7127527  29.4956858
 103.4317288  41.6413271  21.7717992 104.2238580  41.3004095  21.3564291
 103.6713939  41.7508246  22.6920145 111.4652415  43.8133047  14.2448237
 110.8140395  44.3987127  13.8582250 112.2596778  44.3439242  14.3043274
 105.3908042  40.9022184  14.6435371 106.1638918  40.3551171  14.5048247
 105.7433441  41.7666433  14.8549832 107.2293085  42.2298566  27.8502270
 106.9382951  43.1344197  27.7348936 107.8650069  42.2715094  28.5646340
 108.1549292  39.6075415  24.4403630 108.7512864  39.3831437  23.7260593
 108.2124263  38.8660160  25.0429078 112.7717603  36.0650629  20.0828564
 113.5580692  35.6470052  19.7318981 113.0356307  36.9696721  20.2510212
 107.4470609  38.9642956  14.4778196 107.3306867  38.2887860  15.1459280
 107.5572869  38.4775330  13.6610349 109.7902150  38.4253103  18.1824885
 109.4260357  37.8983724  18.8937806 110.6469266  38.0351572  18.0091370
 115.6951450  29.7147436  25.4456151 115.3634775  30.5842847  25.2217366
 115.0997064  29.3983720  26.1250182 112.1882970  41.9159982  24.8452064
 111.8883693  42.8185021  24.7367871 111.8434030  41.6492165  25.6973217
 105.6395452  38.3673779  20.8788768 104.7145948  38.2349993  21.0866460
 105.8879865  39.1467998  21.3758711 115.5880114  34.4342522  22.5249501
 114.6796991  34.3657930  22.2308262 115.5367710  34.9114467  23.3531327
 103.0004263  38.0107052  21.7132557 103.1296644  38.2641531  22.6271969
 102.3201714  38.6034760  21.3937212 107.1703750  48.6804302  17.8123032
 107.0927780  49.6312127  17.8911512 106.5665393  48.3350175  18.4697958
 109.6620980  35.8532168  30.4684398 108.8854314  36.4126088  30.4587263
 110.3011543  36.3388951  30.9899269 117.4541760  32.6358960  24.3027375
 116.8116140  32.9291494  23.6567170 116.9496689  32.5211881  25.1080572
 107.9167352  38.6617621  30.0302365 108.6582036  39.2002665  29.7537189
 107.2104337  39.2883910  30.1873917 113.3922692  40.8046761  28.6274527
 113.8006048  40.3629172  27.8829159 112.6699953  40.2299389  28.8808720
 109.7453762  35.7419368  26.0008084 110.5914957  36.1658782  26.1442733
 109.6852399  35.0852993  26.6946647 113.7151506  41.3647952  22.3826816
 113.0860369  41.5293666  21.6802884 113.3277168  41.7789562  23.1537780
 117.5940738  42.3002390  19.7371180 116.9091776  42.6801291  19.1868213
 117.6784587  42.9097717  20.4703127 112.8953207  33.4023737  27.6589258
 112.6514139  34.1565797  27.1223533 113.1713137  33.7809084  28.4936505
 114.8491670  39.9462349  26.3366523 115.0608565  40.5894109  25.6600904
 114.8021418  39.1124665  25.8688453 112.4517899  32.5580170  23.2403095
 111.5902378  32.8561423  23.5319833 112.4780333  32.7750568  22.3084128
 109.2679468  41.1022360  19.6476901 109.7317814  41.3810063  18.8581523
 109.0036266  40.2005805  19.4649992 106.1603549  40.6493842  22.5856664
 106.7304906  41.0781110  21.9474149 106.7511661  40.3676426  23.2840850
 108.2048354  37.2245513  16.4566466 108.9072397  37.6766556  16.9240392
 107.8728983  36.5829331  17.0846359 106.6528716  35.8157269  30.8317675
 106.0227376  36.4973550  31.0653072 106.5464804  35.7040351  29.8870814
 101.9473688  35.4829065  21.7583600 101.1572742  35.7386594  21.2823710
 102.4384935  36.2977403  21.8635640 115.9637498  42.8234304  24.5088880
 116.7854941  42.4214492  24.2271562 115.9599901  42.7202539  25.4604996
 103.8988433  35.8473644  18.7167076 103.1019597  35.9592339  19.2350572
 103.6714026  36.1860297  17.8507967 109.7294101  42.3718348  26.6649591
 109.7938534  42.8338755  27.5007763 109.0205025  41.7415713  26.7931901
 100.2311391  35.7359556  24.1898590 100.4819429  36.6206566  24.4556166
 100.7670939  35.5564157  23.4173682 109.4442119  44.0386455  16.5328571
 109.3087794  44.8837991  16.9613419 109.9851931  44.2405733  15.7694505
 105.9309458  30.1178035  33.1942926 105.5376404  29.5644234  33.8690571
 106.7475599  30.4288613  33.5849444 102.8971516  41.5561893  17.1056496
 103.4096037  42.3505143  17.2562061 103.5494229  40.8588184  17.0390098
 104.7066401  44.6727649  19.1879250 104.8833029  45.5945614  19.0000233
 105.5023234  44.3586069  19.6173629 108.8477419  31.5335914  30.7863183
 109.5887133  32.1343067  30.7067646 109.0795342  30.7913552  30.2281226
 103.9918757  36.7192281  29.0641413 103.8772273  35.8177539  29.3648512
 103.1363275  36.9655978  28.7126229 111.0710595  44.6610022  30.6628913
 110.6274449  43.8746400  30.3449818 111.7327809  44.8489172  29.9972804
 105.8297716  46.1905823  25.1889592 106.3805141  46.0622887  24.4166586
 104.9909192  46.4900712  24.8384485 113.1691833  44.9412822  28.6910315
 113.1510309  45.7621703  28.1990584 114.0911753  44.8166897  28.9160456
 109.6264887  42.4556951  29.5333823 110.1593224  41.6945239  29.3033131
 109.0978968  42.1630603  30.2757977 112.7934582  27.5617017  25.0627465
 112.4498852  28.4518659  24.9866575 113.1613545  27.3718675  24.1997050
 100.8620433  39.8850547  17.8816067 101.6995655  40.2947556  17.6649775
 101.0398701  38.9449990  17.8516261 111.8731123  29.9321672  23.0276698
 111.3695918  29.8951807  22.2144503 112.1661730  30.8414415  23.0873355
 108.1174009  30.0160402  22.0342880 108.9827005  29.8203211  21.6748769
 108.1851517  29.7870754  22.9612236 110.9917600  41.5842944  17.0452635
 110.4638962  40.8495703  16.7325872 110.4905103  42.3617620  16.7992603
 115.9710446  39.7791964  22.1619681 115.3134121  40.4691225  22.2499810
 116.7750845  40.1688396  22.5053668 105.7236328  32.2462610  19.4059247
 106.2980080  32.0237791  18.6732439 106.3107310  32.3151304  20.1587848
 114.7815905  38.1336337  20.2123623 115.2947787  38.7666329  20.7145333
 115.4317129  37.5337532  19.8466983 112.0438279  48.1120661  12.9684294
 111.3699978  48.4152358  13.5769252 112.4304101  48.9149741  12.6189751
 111.2596736  35.6085792  22.4581964 110.3419297  35.8300739  22.3003652
 111.6756879  35.6832103  21.5993671 115.5477701  43.1142338  18.3402766
 115.0940028  42.2733248  18.3967956 114.9171668  43.7503737  18.6777546
 113.9910640  44.9518835  19.2752584 114.2833615  45.5123892  18.5564949
 114.5009261  45.2447396  20.0305743 100.8846604  37.2241263  18.5526800
 100.6871004  36.6310624  17.8277867 100.3293268  36.9193473  19.2702739
 108.8643328  37.1164369  20.6721393 108.9191937  36.1638206  20.5963870
 108.0534530  37.2723808  21.1562692 106.8035688  35.7341429  18.4311772
 105.9903553  36.0335600  18.8376965 107.2994682  35.3397118  19.1486255
 108.9544266  45.7299186  20.3646037 108.9120444  45.9560032  19.4354569
 109.8706964  45.4962561  20.5131838 112.4009899  36.1983253  27.2626666
 112.7559287  36.4254727  28.1221132 113.0482031  36.5301630  26.6403922
 106.2949762  33.3059785  24.0473007 106.9349142  33.1648544  23.3495971
 105.4627293  33.0194298  23.6711609 118.1577016  41.3878216  22.9787267
 118.5913523  41.2953505  23.8270321 118.8708597  41.3635717  22.3407283
 107.0710066  42.6062215  20.1608000 107.8650665  42.1112535  19.9590575
 106.3601759  42.0780078  19.7975705 111.8904911  44.9880310  24.5120367
 111.9441933  45.5571247  25.2798083 111.0219692  45.1582196  24.1474405
 103.3792830  36.7505297  16.2367752 102.4490418  36.6889752  16.4537715
 103.4750302  36.2281249  15.4404394 103.2978379  33.2760110  18.8245994
 103.5585196  34.1905443  18.7155155 104.1195551  32.8084552  18.9742607
 104.7703304  34.6897867  25.9944819 105.4426358  34.4815229  25.3457468
 103.9433091  34.4919953  25.5550051 119.0192565  41.4301917  25.5120152
 119.2128456  42.3347728  25.7579427 118.9193184  40.9709336  26.3458737
 110.6728876  31.3159808  28.0110480 110.0256791  32.0149757  27.9174956
 111.4429892  31.7495952  28.3786728 114.0807674  41.5808660  31.0861033
 113.9293181  41.3519211  30.1691116 114.0712354  42.5379261  31.0992378
 110.8493011  39.1540573  26.0707299 111.7785071  39.3051732  25.8976267
 110.4284041  39.2424593  25.2155946 109.6481342  43.1791237  23.8405837
 109.5092428  42.8110021  24.7131775 108.8595939  43.6938876  23.6689795
 110.2429494  48.2800333  15.1831373 110.4181250  47.8088377  15.9976996
 109.5562282  48.9066100  15.4112634 111.1986557  42.5572840  21.2294675
 110.8636390  42.5173610  22.1252325 110.6990503  41.8917556  20.7565085
 105.1730801  37.9640470  26.7547256 105.0350599  37.2320709  27.3558795
 106.0835725  37.8749370  26.4731444 107.8013102  37.6760429  26.2430935
 108.5112721  37.0353621  26.2017554 107.7582410  37.9273324  27.1657116
 115.7899881  44.6127782  29.1637515 115.7312427  43.9287002  28.4968098
 116.1919399  45.3546772  28.7118141 106.5142036  34.6625647  28.0626575
 105.9779393  34.2116385  28.7148171 105.9258745  34.7971556  27.3197039
 104.8090580  51.4289696  21.9571234 105.0487178  52.0608220  22.6350252
 103.9659776  51.0777736  22.2436593 115.7917288  42.5767366  27.3951494
 114.9044067  42.2393288  27.5177893 116.3615839  41.8450398  27.6320260
  97.4446435  38.9091458  20.7194546  98.1317475  38.5953188  20.1315561
  97.2894564  39.8132823  20.4461797 102.2481157  33.7981655  25.1479569
 102.1639346  33.1907324  24.4129979 101.4263864  34.2890673  25.1489066
 109.3218441  47.2368819  24.3612738 109.2488613  48.0423790  24.8732042
 108.8795835  47.4360784  23.5360759 109.1108221  46.4740589  17.8715559
 108.3275743  47.0162269  17.9653784 109.8100966  46.9914568  18.2709800
 111.7817125  47.1355653  26.5170896 112.4945097  47.7703117  26.4446798
 111.2907154  47.2319519  25.7010898 113.5034652  41.0406905  18.0888188
 112.5690931  41.1608368  17.9192892 113.6811320  40.1379372  17.8248198
 109.0039840  34.4252601  20.2421449 108.6337627  33.8723641  20.9302355
 109.4998932  33.8210735  19.6896449 106.8329038  44.8850096  27.3376467
 107.5338498  45.5186579  27.4905861 106.3624153  45.2264828  26.5772106
 114.6330324  37.4394704  25.1629017 113.9801775  37.6870611  24.5081470
 115.0110704  36.6258842  24.8291495 111.5937498  47.4754397  19.2657188
 111.7759893  46.6576053  19.7284940 112.4170484  47.6922089  18.8282078
 111.9279664  46.4022582  16.5272236 112.4567430  45.8915036  15.9142398
 112.1907883  46.0865112  17.3917769 110.6817897  38.1814515  31.6495054
 110.0058534  38.0808644  32.3197430 111.5045531  38.0253728  32.1131052
 102.4296757  44.4186451  24.2707570 103.0150193  43.6730139  24.4035474
 102.2321595  44.7290408  25.1544234 105.2835412  47.4537699  19.2870012
 104.6145787  47.9383826  18.8034052 105.1448281  47.7006919  20.2013391
  97.0214411  36.9892051  22.9912013  97.0598511  36.4555642  23.7849131
  96.5154704  36.4627257  22.3722990 109.4240680  49.4881442  25.8852670
 109.9758988  49.6513064  26.6501756 109.7646874  50.0785880  25.2132695
 104.4005174  31.8356592  26.4874555 104.4646500  32.6971423  26.0751953
 104.3372294  31.2230594  25.7546914 103.8757446  33.9079724  30.1347589
 104.5029485  33.5256802  30.7485114 103.0185365  33.6893926  30.5003282
 114.2751555  44.3142700  31.7401325 114.8191459  44.9272658  31.2456280
 113.6938400  44.8722278  32.2568338 100.6522989  35.7156154  16.0665944
 100.9476430  34.8066832  16.0132998  99.7511025  35.6943893  15.7446947
 112.5609068  47.4363418  22.8716353 112.4360207  46.6353157  22.3627298
 113.2188159  47.9309611  22.3830323 104.1817236  33.7912150  22.0493493
 103.4603822  34.4048118  21.9100966 104.9710492  34.3269915  21.9710139
 114.6243976  45.2372438  24.4995903 113.6774312  45.1177789  24.4274229
 114.9726749  44.3494936  24.5822164 106.9843549  31.1266577  28.3234145
 107.5077951  31.3728873  29.0860454 106.7655883  31.9586611  27.9037282
 102.3810830  33.3970251  16.1905269 102.0523537  32.5167630  16.0080375
 102.7350201  33.3417920  17.0781659 111.6290409  45.0325154  20.7000255
 111.4815372  44.1041861  20.8807825 112.4543903  45.0545245  20.2157330
 105.4952654  33.6843221  16.5580747 105.8348726  34.2129142  15.8359355
 105.9424774  34.0223627  17.3339314 115.2324531  45.8553713  21.7865128
 116.1571079  45.6496574  21.6489579 115.0639835  45.6070114  22.6954469
 108.1896094  32.0680272  26.0083815 107.8492915  31.2688085  26.4104495
 107.4835101  32.3681983  25.4360648 108.8412566  29.1529584  24.4611138
 109.6638636  28.6790062  24.3390028 109.0850630  29.9320068  24.9609824
 106.3651145  35.8448705  22.2703117 106.2195726  36.1589008  23.1627398
 105.8876349  36.4633605  21.7174015 108.2247528  32.8351253  22.3184006
 108.2109097  31.9392346  21.9816304 108.9419956  32.8421917  22.9522292
 110.0773659  33.2688593  24.3637134 109.8191436  34.1905664  24.3621464
 109.5458699  32.8719028  25.0537598 115.0219847  46.3739380  17.1427219
 115.1956725  45.8085803  16.3901072 115.5148739  47.1740275  16.9606709
 100.8396807  38.3854049  25.2090778 100.2950275  39.1613857  25.3411052
 101.7176157  38.7324854  25.0509899 107.6284424  31.7165633  17.5871576
 107.7500335  30.7882279  17.7862464 107.3386466  31.7304319  16.6749892
 101.6262829  37.5123945  28.1020935 100.8844565  37.6606581  28.6885565
 101.3055573  37.7732211  27.2387684 109.5706492  47.0539924  27.9001325
 109.8793618  46.8089070  28.7724024 110.3681974  47.2586562  27.4120195
 109.5927104  49.2077833  20.1306701 109.1532094  48.7154212  20.8239558
 110.3435221  48.6650801  19.8898777 102.0719443  45.3989374  20.1331329
 102.8977463  45.0993146  19.7529973 101.7213495  44.6296997  20.5821118
 107.0400976  44.7515842  22.2029003 106.4180985  44.0886547  21.9031231
 107.7105843  44.7776974  21.5202651 100.2728048  43.3175701  21.0920263
  99.4359956  42.8897875  20.9104264 100.2451693  43.5108144  22.0291054
 107.1125503  33.2297630  31.7961509 107.1613659  34.1059753  31.4139279
 107.6548018  32.6875023  31.2233152 117.5980349  43.7738754  31.0762646
 116.8075893  43.7562893  30.5367146 117.3613704  44.3127047  31.8311683
 117.7178224  40.6231220  28.3895375 117.7676229  40.4581227  29.3310897
 117.6092147  39.7558479  27.9993255 106.6014483  43.3019766  15.6787464
 106.7502603  43.9855230  15.0254136 107.4080926  43.2824856  16.1936919
 115.0081986  36.6062148  29.7054681 115.9091849  36.4668613  29.4138679
 115.0829961  36.7716603  30.6452859 109.3424792  33.9829003  28.5507868
 108.4728101  34.2762569  28.2790456 109.5784272  34.5669448  29.2715131
 119.2196421  43.0428162  28.6337396 118.9281229  43.4058142  29.4700857
 118.6068552  42.3295170  28.4550728 117.4683609  38.1660776  27.1017454
 117.9437731  38.3588422  26.2936306 116.5449175  38.2219962  26.8560838
 104.3567116  39.3284943  16.6848532 104.1113158  38.4247273  16.8828743
 104.5263030  39.3302094  15.7428010 112.0463826  30.2008620  26.0673288
 112.5645769  30.9369647  25.7419777 111.6918958  30.5072613  26.9020047
 103.6262763  35.0613301  14.1834694 102.9332008  35.1357656  13.5274730
 103.3814515  34.2973645  14.7056211 110.1009888  45.7967896  13.1499211
 109.5283855  46.4158083  12.6969683 110.6742682  46.3467258  13.6839133
 116.1685278  35.0426536  25.3345760 117.1202701  35.1424634  25.3557984
 115.9988729  34.2504805  25.8443844 114.1899658  32.1282119  25.5205161
 113.5949590  32.4087132  24.8251649 113.9049354  32.6176020  26.2921902
 113.3207148  46.0805046  14.2807793 114.2537821  46.0150608  14.4840669
 113.2330361  46.9161313  13.8222326 118.6473356  38.2632656  24.4488059
 118.6149676  37.3248657  24.6347743 119.2573980  38.3416693  23.7153884
 110.3695379  41.1846455  31.9515920 111.2898389  41.3625054  32.1455967
 110.3344962  40.2402500  31.7995620  99.5877544  36.3785049  20.8769195
  99.2680329  35.5250357  20.5843569  99.0410973  36.5933627  21.6327162
 103.3657452  39.0947490  24.5938702 103.5843462  40.0264598  24.6126735
 103.7783226  38.7355464  25.3793505 108.2385317  34.6680695  33.9841451
 108.1382044  35.6175052  33.9153542 108.0206859  34.3398934  33.1117521
  99.4565804  39.9987960  22.8462317  98.7629276  39.5841913  22.3332271
 100.2038795  40.0408497  22.2495736 108.1016587  38.0977834  32.8006512
 107.6183669  38.8978194  33.0070401 108.1877526  38.1085779  31.8473956
 101.3702547  39.9306214  20.7228332 101.3473235  40.0293901  19.7710215
 101.6803183  40.7771365  21.0445498 104.0289925  41.9882369  24.8374946
 104.9833178  41.9566311  24.7704878 103.8302448  41.5272993  25.6525172
 104.6189307  40.5583485  27.4045744 105.4382196  41.0527564  27.4280581
 104.8926115  39.6415453  27.3763311 102.3840154  47.5301989  21.8545144
 102.2494621  46.7702389  21.2883142 101.9672216  48.2542888  21.3873933
 105.5409279  48.4271306  22.0663587 105.4241664  49.3716738  21.9642277
 104.7201726  48.1244867  22.4549386  99.8724221  34.8921619  28.1037941
 100.5183085  34.3820573  28.5925166  99.6641372  35.6290301  28.6781366
 112.3977613  41.9602466  33.6030081 113.2668773  42.1343119  33.2416716
 111.9184365  42.7796883  33.4805811 106.5663794  49.0799567  25.2819515
 107.4691040  49.1123178  25.5986010 106.3401164  48.1500018  25.2965851
 108.3217396  47.8330554  21.9429594 107.3713027  47.8332416  21.8293966
 108.6249882  47.0863289  21.4265628 104.2121712  32.0389236  32.2012955
 105.0753174  31.6826041  32.4116280 103.6387123  31.7003131  32.8888359
 120.8659795  53.6218520  22.9436881 120.5278307  53.5059585  22.0557416
 121.7349564  53.2209686  22.9237887 116.7246611  55.4753997  18.9333772
 116.1611476  55.3843934  18.1650059 116.6099006  54.6553901  19.4136264
 121.3479578  54.7753372  28.9023086 121.3368219  54.3806170  28.0303590
 121.5100218  54.0419445  29.4956858 114.2711043  56.9705188  21.7717992
 115.0632335  56.6296013  21.3564291 114.5107693  57.0800164  22.6920145
 116.2301797  56.2314102  14.6435371 117.0032673  55.6843089  14.5048247
 116.5827196  57.0958351  14.8549832 118.0686839  57.5590484  27.8502270
 117.7776705  58.4636115  27.7348936 118.7043824  57.6007012  28.5646340
 118.9943046  54.9367333  24.4403630 119.5906619  54.7123355  23.7260593
 119.0518018  54.1952078  25.0429078 118.2864363  54.2934874  14.4778196
 118.1700622  53.6179777  15.1459280 118.3966623  53.8067248  13.6610349
 120.6295904  53.7545021  18.1824885 120.2654112  53.2275642  18.8937806
 121.4863020  53.3643490  18.0091370 116.4789206  53.6965696  20.8788768
 115.5539702  53.5641910  21.0866460 116.7273619  54.4759916  21.3758711
 113.8398017  53.3398970  21.7132557 113.9690398  53.5933449  22.6271969
 113.1595468  53.9326678  21.3937212 118.0097504  64.0096220  17.8123032
 117.9321534  64.9604045  17.8911512 117.4059148  63.6642092  18.4697958
 120.5014734  51.1824085  30.4684398 119.7248068  51.7418005  30.4587263
 121.1405297  51.6680868  30.9899269 118.7561106  53.9909539  30.0302365
 119.4975791  54.5294583  29.7537189 118.0498092  54.6175827  30.1873917
 120.5847516  51.0711286  26.0008084 121.4308711  51.4950699  26.1442733
 120.5246154  50.4144910  26.6946647 120.1073223  56.4314278  19.6476901
 120.5711568  56.7101981  18.8581523 119.8430021  55.5297722  19.4649992
 116.9997304  55.9785759  22.5856664 117.5698661  56.4073028  21.9474149
 117.5905415  55.6968344  23.2840850 119.0442109  52.5537430  16.4566466
 119.7466152  53.0058474  16.9240392 118.7122737  51.9121249  17.0846359
 117.4922470  51.1449187  30.8317675 116.8621131  51.8265468  31.0653072
 117.3858558  51.0332268  29.8870814 112.7867443  50.8120983  21.7583600
 111.9966497  51.0678511  21.2823710 113.2778690  51.6269321  21.8635640
 114.7382188  51.1765562  18.7167076 113.9413351  51.2884256  19.2350572
 114.5107780  51.5152214  17.8507967 120.5687856  57.7010265  26.6649591
 120.6332288  58.1630673  27.5007763 119.8598779  57.0707630  26.7931901
 111.0705146  51.0651473  24.1898590 111.3213184  51.9498483  24.4556166
 111.6064694  50.8856075  23.4173682 120.2835873  59.3678373  16.5328571
 120.1481548  60.2129909  16.9613419 120.8245686  59.5697650  15.7694505
 116.7703213  45.4469953  33.1942926 116.3770158  44.8936151  33.8690571
 117.5869353  45.7580531  33.5849444 113.7365271  56.8853811  17.1056496
 114.2489791  57.6797061  17.2562061 114.3887983  56.1880101  17.0390098
 115.5460155  60.0019567  19.1879250 115.7226784  60.9237532  19.0000233
 116.3416989  59.6877986  19.6173629 119.6871174  46.8627832  30.7863183
 120.4280887  47.4634985  30.7067646 119.9189097  46.1205470  30.2281226
 114.8312512  52.0484199  29.0641413 114.7166027  51.1469456  29.3648512
 113.9757030  52.2947896  28.7126229 116.6691471  61.5197741  25.1889592
 117.2198896  61.3914804  24.4166586 115.8302947  61.8192630  24.8384485
 120.4658642  57.7848869  29.5333823 120.9986979  57.0237157  29.3033131
 119.9372723  57.4922521  30.2757977 111.7014187  55.2142465  17.8816067
 112.5389409  55.6239474  17.6649775 111.8792455  54.2741907  17.8516261
 118.9567763  45.3452320  22.0342880 119.8220760  45.1495128  21.6748769
 119.0245272  45.1162671  22.9612236 121.8311355  56.9134861  17.0452635
 121.3032716  56.1787621  16.7325872 121.3298857  57.6909538  16.7992603
 116.5630082  47.5754528  19.4059247 117.1373834  47.3529709  18.6732439
 117.1501065  47.6443222  20.1587848 111.7240359  52.5533180  18.5526800
 111.5264758  51.9602541  17.8277867 111.1687023  52.2485391  19.2702739
 119.7037082  52.4456287  20.6721393 119.7585692  51.4930123  20.5963870
 118.8928284  52.6015726  21.1562692 117.6429442  51.0633347  18.4311772
 116.8297308  51.3627517  18.8376965 118.1388436  50.6689035  19.1486255
 119.7938020  61.0591104  20.3646037 119.7514199  61.2851950  19.4354569
 120.7100719  60.8254478  20.5131838 117.1343517  48.6351702  24.0473007
 117.7742896  48.4940461  23.3495971 116.3021047  48.3486216  23.6711609
 117.9103821  57.9354133  20.1608000 118.7044419  57.4404453  19.9590575
 117.1995513  57.4071996  19.7975705 114.2186584  52.0797214  16.2367752
 113.2884172  52.0181670  16.4537715 114.3144056  51.5573167  15.4404394
 114.1372133  48.6052027  18.8245994 114.3978951  49.5197360  18.7155155
 114.9589306  48.1376470  18.9742607 115.6097059  50.0189784  25.9944819
 116.2820112  49.8107147  25.3457468 114.7826845  49.8211870  25.5550051
 121.5122631  46.6451725  28.0110480 120.8650546  47.3441675  27.9174956
 122.2823646  47.0787869  28.3786728 120.4875097  58.5083155  23.8405837
 120.3486182  58.1401939  24.7131775 119.6989693  59.0230794  23.6689795
 121.0823249  63.6092251  15.1831373 121.2575004  63.1380294  15.9976996
 120.3956037  64.2358017  15.4112634 122.0380312  57.8864757  21.2294675
 121.7030145  57.8465527  22.1252325 121.5384258  57.2209473  20.7565085
 116.0124556  53.2932387  26.7547256 115.8744354  52.5612626  27.3558795
 116.9229479  53.2041287  26.4731444 118.6406857  53.0052347  26.2430935
 119.3506475  52.3645539  26.2017554 118.5976165  53.2565242  27.1657116
 117.3535791  49.9917565  28.0626575 116.8173148  49.5408303  28.7148171
 116.7652499  50.1263473  27.3197039 115.6484334  66.7581614  21.9571234
 115.8880932  67.3900138  22.6350252 114.8053531  66.4069654  22.2436593
 108.2840190  54.2383376  20.7194546 108.9711229  53.9245106  20.1315561
 108.1288318  55.1424740  20.4461797 113.0874912  49.1273572  25.1479569
 113.0033101  48.5199242  24.4129979 112.2657618  49.6182591  25.1489066
 120.1612196  62.5660736  24.3612738 120.0882367  63.3715708  24.8732042
 119.7189589  62.7652702  23.5360759 119.9501976  61.8032506  17.8715559
 119.1669497  62.3454187  17.9653784 120.6494721  62.3206486  18.2709800
 119.8433594  49.7544519  20.2421449 119.4731382  49.2015559  20.9302355
 120.3392687  49.1502652  19.6896449 117.6722793  60.2142014  27.3376467
 118.3732252  60.8478497  27.4905861 117.2017908  60.5556745  26.5772106
 121.5211652  53.5106432  31.6495054 120.8452289  53.4100562  32.3197430
 122.3439286  53.3545646  32.1131052 113.2690511  59.7478369  24.2707570
 113.8543948  59.0022057  24.4035474 113.0715349  60.0582326  25.1544234
 116.1229166  62.7829616  19.2870012 115.4539542  63.2675744  18.8034052
 115.9842036  63.0298837  20.2013391 107.8608166  52.3183969  22.9912013
 107.8992265  51.7847560  23.7849131 107.3548459  51.7919175  22.3722990
 120.2634435  64.8173360  25.8852670 120.8152743  64.9804981  26.6501756
 120.6040628  65.4077798  25.2132695 115.2398928  47.1648510  26.4874555
 115.3040255  48.0263340  26.0751953 115.1766048  46.5522511  25.7546914
 114.7151201  49.2371642  30.1347589 115.3423239  48.8548719  30.7485114
 113.8579119  49.0185844  30.5003282 111.4916743  51.0448071  16.0665944
 111.7870184  50.1358750  16.0132998 110.5904779  51.0235811  15.7446947
 115.0210990  49.1204068  22.0493493 114.2997576  49.7340035  21.9100966
 115.8104246  49.6561833  21.9710139 117.8237304  46.4558494  28.3234145
 118.3471706  46.7020791  29.0860454 117.6049637  47.2878529  27.9037282
 113.2204585  48.7262169  16.1905269 112.8917291  47.8459548  16.0080375
 113.5743956  48.6709838  17.0781659 116.3346408  49.0135139  16.5580747
 116.6742481  49.5421060  15.8359355 116.7818529  49.3515545  17.3339314
 119.0289849  47.3972189  26.0083815 118.6886669  46.5980002  26.4104495
 118.3228855  47.6973900  25.4360648 119.6806321  44.4821502  24.4611138
 120.5032390  44.0081980  24.3390028 119.9244384  45.2611986  24.9609824
 117.2044899  51.1740622  22.2703117 117.0589480  51.4880926  23.1627398
 116.7270103  51.7925523  21.7174015 119.0641282  48.1643170  22.3184006
 119.0502851  47.2684264  21.9816304 119.7813710  48.1713834  22.9522292
 120.9167413  48.5980511  24.3637134 120.6585191  49.5197581  24.3621464
 120.3852453  48.2010945  25.0537598 111.6790562  53.7145967  25.2090778
 111.1344030  54.4905775  25.3411052 112.5569912  54.0616771  25.0509899
 118.4678178  47.0457551  17.5871576 118.5894089  46.1174197  17.7862464
 118.1780221  47.0596237  16.6749892 112.4656584  52.8415863  28.1020935
 111.7238320  52.9898498  28.6885565 112.1449328  53.1024129  27.2387684
 120.4100246  62.3831841  27.9001325 120.7187373  62.1380988  28.7724024
 121.2075728  62.5878480  27.4120195 120.4320858  64.5369751  20.1306701
 119.9925848  64.0446130  20.8239558 121.1828975  63.9942719  19.8898777
 112.9113197  60.7281292  20.1331329 113.7371217  60.4285064  19.7529973
 112.5607249  59.9588914  20.5821118 117.8794730  60.0807760  22.2029003
 117.2574740  59.4178465  21.9031231 118.5499597  60.1068892  21.5202651
 111.1121802  58.6467618  21.0920263 110.2753711  58.2189793  20.9104264
 111.0845448  58.8400062  22.0291054 117.9519258  48.5589548  31.7961509
 118.0007413  49.4351671  31.4139279 118.4941772  48.0166941  31.2233152
 117.4408237  58.6311683  15.6787464 117.5896358  59.3147148  15.0254136
 118.2474681  58.6116773  16.1936919 120.1818546  49.3120920  28.5507868
 119.3121856  49.6054487  28.2790456 120.4178027  49.8961365  29.2715131
 115.1960870  54.6576861  16.6848532 114.9506912  53.7539191  16.8828743
 115.3656785  54.6594011  15.7428010 114.4656518  50.3905219  14.1834694
 113.7725763  50.4649574  13.5274730 114.2208270  49.6265562  14.7056211
 120.9403643  61.1259814  13.1499211 120.3677610  61.7450001  12.6969683
 121.5136436  61.6759176  13.6839133 121.2089134  56.5138373  31.9515920
 122.1292143  56.6916972  32.1455967 121.1738717  55.5694418  31.7995620
 110.4271299  51.7076966  20.8769195 110.1074083  50.8542275  20.5843569
 109.8804727  51.9225545  21.6327162 114.2051206  54.4239407  24.5938702
 114.4237216  55.3556515  24.6126735 114.6176980  54.0647382  25.3793505
 119.0779072  49.9972613  33.9841451 118.9775799  50.9466970  33.9153542
 118.8600614  49.6690852  33.1117521 110.2959559  55.3279878  22.8462317
 109.6023030  54.9133831  22.3332271 111.0432550  55.3700414  22.2495736
 118.9410342  53.4269752  32.8006512 118.4577423  54.2270112  33.0070401
 119.0271281  53.4377697  31.8473956 112.2096301  55.2598132  20.7228332
 112.1866989  55.3585819  19.7710215 112.5196938  56.1063282  21.0445498
 114.8683679  57.3174287  24.8374946 115.8226933  57.2858229  24.7704878
 114.6696203  56.8564910  25.6525172 115.4583061  55.8875403  27.4045744
 116.2775950  56.3819481  27.4280581 115.7319869  54.9707371  27.3763311
 113.2233908  62.8593906  21.8545144 113.0888376  62.0994307  21.2883142
 112.8065970  63.5834806  21.3873933 116.3803034  63.7563223  22.0663587
 116.2635418  64.7008656  21.9642277 115.5595480  63.4536785  22.4549386
 110.7117976  50.2213537  28.1037941 111.3576839  49.7112491  28.5925166
 110.5035127  50.9582218  28.6781366 117.4057548  64.4091485  25.2819515
 118.3084795  64.4415095  25.5986010 117.1794918  63.4791936  25.2965851
 119.1611150  63.1622472  21.9429594 118.2106781  63.1624333  21.8293966
 119.4643636  62.4155206  21.4265628 115.0515467  47.3681154  32.2012955
 115.9146928  47.0117959  32.4116280 114.4780877  47.0295049  32.8888359
 121.9098900  66.3943391  24.1898590 122.1606938  67.2790401  24.4556166
 122.4458448  66.2147993  23.4173682 119.1233944  69.5675293  20.7194546
 119.8104984  69.2537023  20.1315561 118.9682073  70.4716658  20.4461797
 118.7001920  67.6475887  22.9912013 118.7386020  67.1139477  23.7849131
 118.1942213  67.1211092  22.3722990 121.9515557  73.9759536  21.0920263
 121.1147465  73.5481710  20.9104264 121.9239202  74.1691979  22.0291054
 121.2665053  67.0368884  20.8769195 120.9467838  66.1834192  20.5843569
 120.7198481  67.2517462  21.6327162 121.1353313  70.6571796  22.8462317
 120.4416785  70.2425748  22.3332271 121.8826304  70.6992332  22.2495736
 121.5511730  65.5505454  28.1037941 122.1970594  65.0404408  28.5925166
 121.3428881  66.2874136  28.6781366   4.8212184  54.4964976 100.5102009
   4.0675892  53.9272374 100.3546013   4.9559725  54.4627640 101.4572644
   1.6427932  54.4667726  98.4145676   2.0859078  53.7175051  98.0164799
   0.7654442  54.4577862  98.0319408   1.1860796  55.9372964 100.8068124
   2.0207688  56.3762768 100.9705684   1.3219925  55.4611618  99.9876369
   5.2318599  54.6540586 103.2422253   5.9621987  54.3925874 103.8029957
   4.6225544  53.9169308 103.2824321   3.3133896  52.7948448 103.8396705
   2.5867060  52.6604413 103.2313196   2.8981183  53.1025277 104.6453423
   0.9311691  49.0160301 101.1930136   1.5256182  48.7756037 100.4823444
   1.0038275  48.2967431 101.8203672   3.2382764  52.3226501  99.9673557
   2.6782322  52.3919691 100.7405119   2.6326267  52.1467486  99.2473054
   4.8238782  68.9983015 102.6603513   5.4617192  68.8789763 101.9566853
   4.7059625  69.9463859 102.7191465   1.6328488  68.9510443 102.5965038
   1.2947000  68.8351508 101.7085573   2.5018257  68.5501609 102.5766044
   3.0714863  74.4716888  93.8976394   2.4202843  75.0570968  93.5110407
   3.8659226  75.0023082  93.9571431   4.3780051  66.7234469  99.7356721
   5.1643140  66.3053892  99.3847138   4.6418755  67.6280561  99.9038369
   4.5490128  72.1607320  94.4345378   3.9135961  72.2341946  95.1466283
   4.2187534  72.7500918  93.7564457   9.7788478  66.6609702 100.6389700
  10.5113650  66.0908919 100.8727529   9.0227833  66.2731303 101.0796205
   1.3964597  69.0836944  97.8353042   1.0322805  68.5567565  98.5465964
   2.2531713  68.6935413  97.6619527   7.3013898  60.3731277 105.0984308
   6.9697223  61.2426687 104.8745523   6.7059511  60.0567561 105.7778339
   1.0370084  64.1126844  92.8314391   1.2044487  64.9807080  93.1984862
   0.8467253  64.2754125  91.9075680   3.7945418  72.5743823 104.4980221
   3.4946141  73.4768861 104.3896028   3.4496477  72.3076006 105.3501374
   7.1942561  65.0926363 102.1777658   6.2859439  65.0241771 101.8836419
   7.1430157  65.5698308 103.0059484   9.0604208  63.2942801 103.9555532
   8.4178588  63.5875334 103.3095327   8.5559136  63.1795721 104.7608729
   6.7144371  67.0405974  94.6441391   7.6262228  67.2733361  94.4689089
   6.2054019  67.6243019  94.0816470   4.9985139  71.4630602 108.2802684
   5.4068495  71.0213013 107.5357316   4.2762401  70.8883230 108.5336877
   1.3516209  66.4003209 105.6536241   2.1977404  66.8242622 105.7970890
   1.2914847  65.7436833 106.3474804   5.3213954  72.0231793 102.0354973
   4.6922816  72.1877507 101.3331041   4.9339616  72.4373402 102.8065937
   9.2003186  72.9586231  99.3899337   8.5154224  73.3385132  98.8396370
   9.2847035  73.5681557 100.1231284   4.5015654  64.0607577 107.3117415
   4.2576586  64.8149638 106.7751690   4.7775585  64.4392925 108.1464662
   6.4554117  70.6046190 105.9894680   6.6671013  71.2477950 105.3129061
   6.4083866  69.7708506 105.5216610   4.0580346  63.2164010 102.8931252
   3.1964825  63.5145264 103.1847990   4.0842781  63.4334409 101.9612285
   0.8741916  71.7606201  99.3005058   1.3380261  72.0393904  98.5109681
   0.6098714  70.8589645  99.1178149   7.5699945  73.4818145 104.1617038
   8.3917389  73.0798332 103.8799719   7.5662348  73.3786379 105.1133153
  15.6605938  69.8256894 100.5102009  14.9069647  69.2564292 100.3546013
  15.7953479  69.7919558 101.4572644   1.0504566  74.6970296  96.1856728
   0.9150241  75.5421832  96.6141576   1.5914379  74.8989573  95.4222662
   4.3997030  58.2200858 104.7155622   4.0561299  59.1102499 104.6394732
   4.7675992  58.0302515 103.8525207   4.3647313  68.2109469  93.2228057
   3.8493936  68.9814073  93.4616444   4.0924621  67.5374605  93.8461118
   1.9494424  63.0559170  98.2813295   1.0936020  62.6666020  98.1018934
   2.3621375  63.1351130  97.4213081   3.4793570  60.5905513 102.6804855
   2.9758366  60.5535648 101.8672660   3.7724177  61.4998256 102.7401512
   9.3381587  70.9641823  95.1581230   8.5611029  70.6252983  94.7136393
  10.0173068  70.9694447  94.4836195   4.1533616  66.0836561  95.0487838
   3.8483751  66.3982710  95.8997981   5.1064058  66.1617981  95.0915171
   2.5980048  72.2426784  96.6980792   2.0701409  71.5079544  96.3854030
   2.0967550  73.0201461  96.4520760   7.5772894  70.4375805 101.8147838
   6.9196568  71.1275066 101.9027967   8.3813293  70.8272237 102.1581825
   6.3878352  68.7920177  99.8651780   6.9010234  69.4250169 100.3673490
   7.0379576  68.1921373  99.4995140   3.6500727  78.7704502  92.6212451
   2.9762425  79.0736198  93.2297409   4.0366549  79.5733582  92.2717908
   2.8659183  66.2669633 102.1110121   1.9481745  66.4884580 101.9531809
   3.2819327  66.3415943 101.2521828   3.6494231  67.6661049  97.2412801
   4.3966050  68.1782446  96.9319923   3.9185821  67.3445101  98.1017195
   1.9220881  70.1619589  94.2239755   1.0132100  69.8778622  94.3212225
   1.9515965  70.5818668  93.3643062   7.1540149  73.7726179  97.9930923
   6.7002476  72.9317089  98.0496113   6.5234115  74.4087577  98.3305703
   6.0973068  64.7018165  99.2231590   5.3595825  64.1895551  99.5541833
   6.3499842  64.2618546  98.4114867   5.5973088  75.6102676  98.9280741
   5.8896062  76.1707733  98.2093107   6.1071708  75.9031237  99.6833900
   6.1984696  57.4794417  99.8173360   6.5043572  56.6191780  99.5299275
   6.9237300  58.0712037  99.6172353   1.6196969  71.7028333  91.5627834
   1.1816399  70.9864192  91.1033471   2.3607410  71.9304448  91.0012925
   0.5606713  76.3883027 100.0174194   0.5182892  76.6143873  99.0882726
   1.4769412  76.1546401 100.1659995   4.0072347  66.8567094 106.9154823
   4.3621735  67.0838567 107.7749289   4.6544478  67.1885471 106.2932079
   9.7370084  69.9785530  97.6204152   9.5987982  70.1687126  96.6925342
   9.3806303  70.7404913  98.0772204   9.7639463  72.0462057 102.6315424
  10.1975970  71.9537346 103.4798478  10.4771044  72.0219558 101.9935440
   3.4967358  75.6464151 104.1648524   3.5504381  76.2155087 104.9326240
   2.6282140  75.8166036 103.8002562  10.6255013  72.0885758 105.1648309
  10.8190903  72.9931568 105.4107584  10.5255631  71.6293177 105.9986894
   2.2791324  61.9743648 107.6638637   1.6319239  62.6733598 107.5703113
   3.0492339  62.4079792 108.0314885   2.4555458  69.8124413 105.7235456
   3.3847518  69.9635573 105.5504424   2.0346488  69.9008434 104.8684103
   1.8491942  78.9384174  94.8359530   2.0243698  78.4672217  95.6505153
   1.1624730  79.5649940  95.0640791   2.8049005  73.2156680 100.8822832
   2.4698838  73.1757450 101.7780482   2.3052951  72.5501396 100.4093242
   5.7408197  70.5612715  91.1559891   5.1237367  69.8359543  91.0592944
   5.2724685  71.3222075  90.8126966   7.3962328  75.2711623 108.8165672
   7.3374874  74.5870843 108.1496255   7.7981847  76.0130613 108.3646298
   7.3979736  73.2351207 107.0479651   6.5106514  72.8977129 107.1706050
   7.9678287  72.5034238 107.2848417   4.0267319  62.9419059 100.1677922
   4.5236018  62.1889021  99.8478992   3.2554300  62.9783375  99.6021131
  11.8797076  68.6459424 101.8096213  11.8686952  69.5284140 101.4390146
  11.0114456  68.2930975 101.6150750   5.1097099  71.6990746  97.7416345
   4.1753378  71.8192208  97.5721049   5.2873768  70.7963213  97.4776355
   8.4969651  67.5408065  98.2766379   8.9630103  68.3736057  98.2026682
   8.9477151  67.0753047  98.9811638   6.5645882  73.8851887  95.2752531
   6.8405726  73.7708481  96.1846405   5.6950381  73.4869371  95.2364704
   6.4686313  59.9088652 102.3157280   5.5549393  60.1392879 102.4839487
   6.8979415  59.9927096 103.1671313   6.2392772  68.0978544 104.8157174
   5.5864222  68.3454452 104.1609627   6.6173152  67.2842682 104.4819652
   3.1999946  78.1338237  98.9185345   3.3822340  77.3159893  99.3813097
   4.0232932  78.3505930  98.4810235   3.5342111  77.0606423  96.1800393
   4.0629878  76.5498877  95.5670555   3.7970331  76.7448953  97.0445926
   4.1671515  78.0947258 102.5244510   4.0422655  77.2936998 102.0155455
   4.8250606  78.5893452 102.0358480   6.2306424  75.8956278 104.1524060
   5.2836759  75.7761630 104.0802387   6.5789197  75.0078776 104.2350321
   3.2352857  75.6908995 100.3528412   3.0877819  74.7625702 100.5335982
   4.0606350  75.7129085  99.8685487   6.8386979  76.5137553 101.4393285
   7.7633526  76.3080415 101.3017736   6.6702282  76.2653954 102.3482626
   3.2314371  63.5446832  95.3460529   3.4477986  64.4271470  95.0449357
   2.7508438  63.1533046  94.6166171   1.6836106  63.9272434 104.0165291
   1.4253884  64.8489504 104.0149621   1.1521147  63.5302868 104.7065755
   6.6282295  77.0323221  96.7955376   6.8019172  76.4669643  96.0429229
   7.1211186  77.8324116  96.6134866   2.1038062  60.0604384 100.3766453
   2.1259759  60.1243717  99.4218433   2.5206121  59.2208893 100.5706960
  12.4821686  69.7959644  98.4145676  12.9252832  69.0466969  98.0164799
  11.6048196  69.7869780  98.0319408   7.6157467  76.3489985  93.8952275
   8.3108372  76.9696678  94.1139589   7.9580618  75.4985336  94.1704652
   9.5148891  73.7989691  95.4239605  10.0400215  74.1376963  94.6988925
   9.4271243  72.8636706  95.2402740   1.1989551  79.8661674  99.7834858
   0.7594542  79.3738053 100.4767715   1.9497668  79.3234642  99.5426934
   9.3240672  71.2815061 108.0423532   9.3738677  71.1165068 108.9839055
   9.2154595  70.4142320 107.6521413   6.6144434  67.2645989 109.3582838
   7.5154297  67.1252454 109.0666836   6.6892409  67.4300444 110.2981016
  10.8258868  73.7012002 108.2865553  10.5343677  74.0641983 109.1229014
  10.2131000  72.9879011 108.1078885  12.0254551  71.2664882 100.8068124
  12.8601442  71.7054686 100.9705684  12.1613680  70.7903535  99.9876369
   9.0746057  68.8244617 106.7545611   9.5500178  69.0172263 105.9464463
   8.1511622  68.8803803 106.5088995   3.6526273  60.8592460 105.7201445
   4.1708217  61.5953487 105.3947934   3.2981406  61.1656454 106.5548204
   3.9038867  57.2792743 101.2402342   4.1840621  56.6115932 101.8662768
   4.6889474  57.4721839 100.7277006   1.7072336  76.4551737  92.8027368
   1.1346303  77.0741924  92.3497840   2.2805130  77.0051099  93.3367290
   7.7747726  65.7010377 104.9873917   8.7265149  65.8008475 105.0086141
   7.6051176  64.9088646 105.4972001   5.7962105  62.7865960 105.1733318
   5.2012037  63.0670973 104.4779806   5.5111802  63.2759861 105.9450059
   4.9269596  76.7388887  93.9335950   5.8600269  76.6734449  94.1368826
   4.8392808  77.5745154  93.4750483   7.5557612  76.0554757  90.8939898
   7.4771244  75.7214621  91.7875656   8.3767279  76.5476525  90.8931370
  10.2535803  68.9216497 104.1016217  10.2212124  67.9832497 104.2875900
  10.8636427  69.0000533 103.3682041   2.0919134  67.7912550  90.1443421
   3.0378239  67.6618758  90.2131839   1.7133379  67.0527212  90.6212849
  10.4030292  65.7127540 104.1474500   9.8869341  64.9285997 103.9604429
  11.2870240  65.3846257 104.3121019   8.0641019  59.4568556 100.1070312
   7.8665840  59.1483644 100.9913644   8.6740724  60.1830195 100.2368242
  16.0712353  69.9832503 103.2422253  16.8015742  69.7217792 103.8029957
  15.4619299  69.2461225 103.2824321  14.1527650  68.1240366 103.8396705
  13.4260814  67.9896331 103.2313196  13.7374937  68.4317195 104.6453423
   1.8924117  60.2599416  96.2342547   1.0824846  59.9146501  96.6097793
   2.5808534  59.9506959  96.8230159   3.8214666  59.3377463  97.8566844
   4.3745704  59.7572916  98.5156867   4.0584752  58.4113211  97.8989800
   7.1993473  61.4477988  97.3645508   6.6192142  62.1062792  96.9823560
   6.9329405  60.6255332  96.9532926   5.6497039  60.8483045  99.5666828
   6.1496817  60.9599580  98.7581147   6.2932647  60.5444098 100.2067637
   5.9818351  63.6078078  96.4201856   5.0944206  63.8927729  96.2022051
   6.3972340  63.4471841  95.5729133   9.3332887  63.6324599 100.1356196
  10.1093277  64.1221051 100.4080812   8.6081021  64.0582653 100.5928065
  11.7705445  64.3452218 101.1930136  12.3649936  64.1047954 100.4823444
  11.8432029  63.6259349 101.8203672   5.1261564  73.3722753  90.5149876
   5.8297414  73.5772755  91.1307532   4.4024213  73.9399515  90.7798960
   5.9559374  69.1232614  96.6352146   5.8994576  69.5801165  95.7959779
   6.5087717  68.3623299  96.4574989   9.7664180  64.9122346  97.4602266
   9.5101115  64.5118982  98.2910474   9.1417048  65.6266140  97.3352405
  14.0776518  67.6518419  99.9673557  13.5176076  67.7211608 100.7405119
  13.4720022  67.4759404  99.2473054   7.0348261  73.8105282  92.5648336
   7.8693865  73.3786480  92.3825811   6.8732604  73.6387296  93.4925231
   6.6894154  70.3137395  93.9304676   6.6342957  70.1481667  92.9893120
   6.0640209  71.0213428  94.0866865   3.8142399  56.4088281  97.7635931
   3.0474794  55.8546768  97.9092613   4.2253104  56.4810150  98.6250082
  15.6632537  84.3274933 102.6603513  16.3010947  84.2081680 101.9566853
  15.5453379  85.2755777 102.7191465  12.4722243  84.2802361 102.5965038
  12.1340754  84.1643426 101.7085573  13.3412011  83.8793526 102.5766044
   8.3309059  86.1337838  98.5861929   7.7673924  86.0427775  97.8178216
   8.2161454  85.3137742  99.0664421  13.9108617  89.8008805  93.8976394
  13.2596597  90.3862886  93.5110407  14.7052980  90.3315000  93.9571431
   7.8364244  86.8897942  94.2963528   8.6095120  86.3426930  94.1576404
   8.1889643  87.7542192  94.5077989  10.6005494  85.5951173 104.0931787
  11.1969066  85.3707196 103.3788750  10.6580465  84.8535919 104.6957235
  10.1730522  83.0490609  91.9281978  10.4256043  82.5272130  91.1665441
   9.2355081  82.8856754  92.0308661  15.2173805  82.0526387  99.7356721
  16.0036894  81.6345810  99.3847138  15.4812509  82.9572479  99.9038369
  15.3883882  87.4899237  94.4345378  14.7529715  87.5633864  95.1466283
  15.0581289  88.0792836  93.7564457  20.6182232  81.9901620 100.6389700
  21.3507404  81.4200837 100.8727529  19.8621588  81.6023221 101.0796205
   9.8926811  84.9518714  94.1306353   9.7763069  84.2763618  94.7987437
  10.0029071  84.4651088  93.3138506  12.2358352  84.4128862  97.8353042
  11.8716559  83.8859483  98.5465964  13.0925468  84.0227331  97.6619527
  18.1407653  75.7023194 105.0984308  17.8090977  76.5718605 104.8745523
  17.5453266  75.3859478 105.7778339  11.8763839  79.4418761  92.8314391
  12.0438241  80.3098998  93.1984862  11.6861008  79.6046043  91.9075680
  14.6339172  87.9035740 104.4980221  14.3339895  88.8060779 104.3896028
  14.2890232  87.6367923 105.3501374   8.0851654  84.3549537 100.5316925
   7.1602150  84.2225751 100.7394617   8.3336067  85.1343756 101.0286868
  18.0336316  80.4218280 102.1777658  17.1253193  80.3533689 101.8836419
  17.9823912  80.8990225 103.0059484  11.8553060  81.8976419  93.8161057
  11.7352685  82.3433470  94.6546538  11.1605648  82.2461736  93.2574596
   9.6159952  94.6680061  97.4651189   9.5383982  95.6187886  97.5439669
   9.0121595  94.3225933  98.1226115  19.8997962  78.6234719 103.9555532
  19.2572343  78.9167252 103.3095327  19.3952891  78.5087639 104.7608729
  17.5538126  82.3697892  94.6441391  18.4655982  82.6025279  94.4689089
  17.0447773  82.9534936  94.0816470  15.8378894  86.7922520 108.2802684
  16.2462250  86.3504930 107.5357316  15.1156155  86.2175147 108.5336877
  12.1909964  81.7295127 105.6536241  13.0371159  82.1534540 105.7970890
  12.1308601  81.0728751 106.3474804  16.1607708  87.3523710 102.0354973
  15.5316571  87.5169425 101.3331041  15.7733370  87.7665320 102.8065937
  20.0396940  88.2878148  99.3899337  19.3547978  88.6677050  98.8396370
  20.1240789  88.8973475 100.1231284  15.3409409  79.3899495 107.3117415
  15.0970341  80.1441555 106.7751690  15.6169339  79.7684843 108.1464662
  17.2947872  85.9338107 105.9894680  17.5064767  86.5769867 105.3129061
  17.2477620  85.1000424 105.5216610  14.8974101  78.5455928 102.8931252
  14.0358580  78.8437182 103.1847990  14.9236535  78.7626327 101.9612285
  11.7135670  87.0898119  99.3005058  12.1774016  87.3685822  98.5109681
  11.4492468  86.1881563  99.1178149   8.6059751  86.6369600 102.2384821
   9.1761108  87.0656868 101.6002306   9.1967863  86.3552185 102.9369007
  10.6504556  83.2121271  96.1094623  11.3528600  83.6642315  96.5768550
  10.3185185  82.5705090  96.7374516   4.3929890  81.4704824 101.4111757
   3.6028944  81.7262352 100.9351867   4.8841138  82.2853161 101.5163797
  18.4093700  88.8110063 104.1617038  19.2311143  88.4090250 103.8799719
  18.4056103  88.7078297 105.1133153   6.3444636  81.8349403  98.3695233
   5.5475799  81.9468097  98.8878729   6.1170228  82.1736055  97.5036124
  26.4999693  85.1548811 100.5102009  25.7463401  84.5856209 100.3546013
  26.6347234  85.1211476 101.4572644  11.8898321  90.0262214  96.1856728
  11.7543996  90.8713749  96.6141576  12.4308133  90.2281491  95.4222662
   5.3427718  87.5437652  96.7584653   5.8552239  88.3380902  96.9090218
   5.9950431  86.8463942  96.6918255   7.1522603  90.6603408  98.8407407
   7.3289231  91.5821373  98.6528391   7.9479436  90.3461827  99.2701786
  11.2933621  77.5211672 110.4391340  12.0343335  78.1218826 110.3595803
  11.5251544  76.7789310 109.8809383  15.2390784  73.5492775 104.7155622
  14.8955054  74.4394417 104.6394732  15.6069747  73.3594433 103.8525207
   3.3076635  85.8726306  97.5344224   4.1451857  86.2823314  97.3177932
   3.4854903  84.9325748  97.5044418  15.2041067  83.5401386  93.2228057
  14.6887691  84.3105991  93.4616444  14.9318376  82.8666523  93.8461118
  12.7888178  78.3851087  98.2813295  11.9329774  77.9957938  98.1018934
  13.2015130  78.4643048  97.4213081  14.3187325  75.9197431 102.6804855
  13.8152120  75.8827566 101.8672660  14.6117932  76.8290173 102.7401512
  10.5630211  76.0036160 101.6871037  11.4283207  75.8078969 101.3276926
  10.6307720  75.7746512 102.6140394  20.1775341  86.2933741  95.1581230
  19.4004784  85.9544901  94.7136393  20.8566822  86.2986364  94.4836195
  14.9927370  81.4128479  95.0487838  14.6877506  81.7274628  95.8997981
  15.9457812  81.4909898  95.0915171  13.4373802  87.5718702  96.6980792
  12.9095164  86.8371461  96.3854030  12.9361305  88.3493378  96.4520760
  18.4166648  85.7667722 101.8147838  17.7590323  86.4566984 101.9027967
  19.2207047  86.1564154 102.1581825   8.1692530  78.2338368  99.0587404
   8.7436282  78.0113550  98.3260597   8.7563512  78.3027063  99.8116005
  17.2272107  84.1212095  99.8651780  17.7403989  84.7542087 100.3673490
  17.8773331  83.5213291  99.4995140   8.4962117  80.2642829  93.0783289
   7.6599429  80.6017516  93.3992564   8.3566886  80.1291809  92.1410426
  10.4715197  75.1079617  97.7862473   9.8179610  74.7928634  97.1619088
  10.4295672  74.4855358  98.5122296  11.5826402  85.3898912  89.7015765
  10.6753464  85.1588166  89.9006914  12.0797434  84.5936531  89.8889747
  14.4894481  94.0996419  92.6212451  13.8156180  94.4028116  93.2297409
  14.8760303  94.9025500  92.2717908  13.7052938  81.5961551 102.1110121
  12.7875499  81.8176498 101.9531809  14.1213081  81.6707861 101.2521828
  14.4887986  82.9952966  97.2412801  15.2359804  83.5074364  96.9319923
  14.7579575  82.6737019  98.1017195  12.7614636  85.4911507  94.2239755
  11.8525855  85.2070540  94.3212225  12.7909720  85.9110586  93.3643062
  17.9933903  89.1018097  97.9930923  17.5396230  88.2609006  98.0496113
  17.3627870  89.7379495  98.3305703  16.9366823  80.0310083  99.2231590
  16.1989579  79.5187469  99.5541833  17.1893596  79.5910464  98.4114867
  16.4366842  90.9394593  98.9280741  16.7289817  91.4999650  98.2093107
  16.9465463  91.2323154  99.6833900  17.0378450  72.8086335  99.8173360
  17.3437327  71.9483698  99.5299275  17.7631055  73.4003955  99.6172353
   3.3302806  83.2117021  98.2054957   3.1327206  82.6186382  97.4806024
   2.7749470  82.9069231  98.9230896  11.3099530  83.1040128 100.3249551
  11.3648140  82.1513964 100.2492027  10.4990732  83.2599567 100.8090849
  12.4590724  87.0320251  91.5627834  12.0210153  86.3156110  91.1033471
  13.2001164  87.2596366  91.0012925   9.2491890  81.7217187  98.0839929
   8.4359755  82.0211358  98.4905122   9.7450884  81.3272876  98.8014412
  11.4000468  91.7174944 100.0174194  11.3576646  91.9435791  99.0882726
  12.3163166  91.4838319 100.1659995  14.8466101  82.1859012 106.9154823
  15.2015489  82.4130485 107.7749289  15.4938233  82.5177389 106.2932079
  20.5763838  85.3077448  97.6204152  20.4381737  85.4979044  96.6925342
  20.2200057  86.0696831  98.0772204   8.7405964  79.2935543 103.7001164
   9.3805344  79.1524302 103.0024128   7.9083495  79.0070056 103.3239766
  20.6033218  87.3753975 102.6315424  21.0369725  87.2829264 103.4798478
  21.3164799  87.3511475 101.9935440   9.5166268  88.5937973  99.8136157
  10.3106867  88.0988293  99.6118732   8.8057961  88.0655836  99.4503862
  14.3361113  90.9756069 104.1648524  14.3898135  91.5447005 104.9326240
  13.4675894  91.1457954 103.8002562   5.8249032  82.7381055  95.8895910
   4.8946620  82.6765511  96.1065872   5.9206504  82.2157008  95.0932551
   5.7434581  79.2635868  98.4774151   6.0041398  80.1781201  98.3683312
   6.5651753  78.7960310  98.6270764  21.4648767  87.4177675 105.1648309
  21.6584658  88.3223486 105.4107584  21.3649386  86.9585094 105.9986894
  13.1185078  77.3035566 107.6638637  12.4712993  78.0025516 107.5703113
  13.8886094  77.7371710 108.0314885  13.2949213  85.1416331 105.7235456
  14.2241273  85.2927491 105.5504424  12.8740243  85.2300352 104.8684103
  12.0937544  89.1666995 103.4933994  11.9548630  88.7985780 104.3659932
  11.3052141  89.6814635 103.3217952  12.6885696  94.2676092  94.8359530
  12.8637452  93.7964135  95.6505153  12.0018484  94.8941858  95.0640791
  13.6442759  88.5448598 100.8822832  13.3092592  88.5049368 101.7780482
  13.1446705  87.8793314 100.4093242  16.5801951  85.8904632  91.1559891
  15.9631122  85.1651461  91.0592944  16.1118440  86.6513993  90.8126966
  18.2356083  90.6003541 108.8165672  18.1768629  89.9162761 108.1496255
  18.6375601  91.3422531 108.3646298   8.3700497  80.1090057  90.2781196
   7.4929963  79.9878857  89.9143442   8.8458250  79.3176135  90.0260084
  18.2373490  88.5643125 107.0479651  17.3500269  88.2269046 107.1706050
  18.8072041  87.8326156 107.2848417  11.5564423  92.4616347  97.5243716
  10.7731945  93.0038027  97.6181941  12.2557168  92.9790327  97.9237957
  14.8661073  78.2710976 100.1677922  15.3629773  77.5180939  99.8478992
  14.0948055  78.3075293  99.6021131  22.7190831  83.9751342 101.8096213
  22.7080707  84.8576057 101.4390146  21.8508210  83.6222893 101.6150750
  15.9490854  87.0282664  97.7416345  15.0147133  87.1484126  97.5721049
  16.1267522  86.1255130  97.4776355  11.4496042  80.4128359  99.8949606
  11.0793829  79.8599400 100.5830512  11.9455134  79.8086493  99.3424606
  19.3363405  82.8699983  98.2766379  19.8023857  83.7027975  98.2026682
  19.7870906  82.4044965  98.9811638  17.4039636  89.2143804  95.2752531
  17.6799480  89.1000399  96.1846405  16.5344135  88.8161289  95.2364704
  17.3080068  75.2380570 102.3157280  16.3943148  75.4684797 102.4839487
  17.7373169  75.3219014 103.1671313  17.0786526  83.4270462 104.8157174
  16.4257977  83.6746369 104.1609627  17.4566906  82.6134600 104.4819652
  14.0393700  93.4630155  98.9185345  14.2216095  92.6451811  99.3813097
  14.8626686  93.6797847  98.4810235  14.3735866  92.3898340  96.1800393
  14.9023632  91.8790795  95.5670555  14.6364085  92.0740870  97.0445926
   6.8461376  77.8232350 106.1402712   6.9102702  78.6847181 105.7280110
   6.7828496  77.2106352 105.4075071   3.0979191  81.7031912  95.7194101
   3.3932632  80.7942590  95.6661155   2.1967227  81.6819651  95.3975104
  15.0065270  93.4239176 102.5244510  14.8816409  92.6228916 102.0155455
  15.6644361  93.9185369 102.0358480   6.6273438  79.7787908 101.7021650
   5.9060024  80.3923876 101.5629123   7.4166694  80.3145673 101.6238296
  17.0700178  91.2248196 104.1524060  16.1230514  91.1053547 104.0802387
  17.4182951  90.3370694 104.2350321   9.4299751  77.1142335 107.9762302
   9.9534153  77.3604632 108.7388611   9.2112085  77.9462370 107.5565439
   4.8267032  79.3846010  95.8433426   4.4979739  78.5043388  95.6608532
   5.1806403  79.3293678  96.7309816  14.0746611  91.0200912 100.3528412
  13.9271574  90.0917620 100.5335982  14.9000105  91.0421003  99.8685487
   7.9408856  79.6718979  96.2108904   8.2804928  80.2004901  95.4887513
   8.3880976  80.0099385  96.9867471  17.6780733  91.8429471 101.4393285
  18.6027281  91.6372332 101.3017736  17.5096037  91.5945872 102.3482626
  10.6352296  78.0556030 105.6611972  10.2949117  77.2563843 106.0632652
   9.9291303  78.3557741 105.0888805  11.2868768  75.1405342 104.1139295
  12.1094838  74.6665821 103.9918186  11.5306832  75.9195826 104.6137982
   9.9277003  78.1693601  94.4102197  10.6485365  78.5474854  93.9065914
   9.3042307  78.8882478  94.5137175  14.0708126  78.8738750  95.3460529
  14.2871740  79.7563388  95.0449357  13.5902193  78.4824963  94.6166171
   8.8107347  81.8324463 101.9231274   8.6651928  82.1464766 102.8155555
   8.3332551  82.4509363 101.3702172  10.6703730  78.8227011 101.9712163
  10.6565299  77.9268104 101.6344461  11.3876158  78.8297675 102.6050449
  12.5229861  79.2564351 104.0165291  12.2647638  80.1781422 104.0149621
  11.9914901  78.8594786 104.7065755  17.4676049  92.3615138  96.7955376
  17.6412927  91.7961561  96.0429229  17.9604941  93.1616033  96.6134866
  10.0740626  77.7041391  97.2399734  10.1956537  76.7758038  97.4390621
   9.7842668  77.7180077  96.3278049  12.9431816  75.3896302 100.3766453
  12.9653513  75.4535635  99.4218433  13.3599875  74.5500810 100.5706960
  23.3215441  85.1251561  98.4145676  23.7646587  84.3758887  98.0164799
  22.4441951  85.1161698  98.0319408  18.4551222  91.6781903  93.8952275
  19.1502127  92.2988596  94.1139589  18.7974372  90.8277254  94.1704652
  20.3542645  89.1281608  95.4239605  20.8793969  89.4668881  94.6988925
  20.2664998  88.1928624  95.2402740  12.0383306  95.1953592  99.7834858
  11.5988296  94.7029970 100.4767715  12.7891423  94.6526559  99.5426934
  20.1634426  86.6106978 108.0423532  20.2132431  86.4456986 108.9839055
  20.0548349  85.7434237 107.6521413   9.0470685  89.2895524  95.3315621
   9.1958805  89.9730988  94.6782293   9.8537128  89.2700614  95.8465076
  17.4538189  82.5937906 109.3582838  18.3548051  82.4544371 109.0666836
  17.5286163  82.7592361 110.2981016  11.7880994  79.9704761 108.2036025
  10.9184303  80.2638327 107.9318613  12.0240474  80.5545206 108.9243288
  21.6652623  89.0303920 108.2865553  21.3737431  89.3933900 109.1229014
  21.0524754  88.3170928 108.1078885  22.8648305  86.5956800 100.8068124
  23.6995197  87.0346604 100.9705684  23.0007434  86.1195453  99.9876369
  19.9139811  84.1536535 106.7545611  20.3893933  84.3464181 105.9464463
  18.9905377  84.2095720 106.5088995   6.8023318  85.3160702  96.3376690
   6.5569360  84.4123032  96.5356900   6.9719232  85.3177852  95.3956168
  14.4920028  76.1884378 105.7201445  15.0101972  76.9245405 105.3947934
  14.1375160  76.4948371 106.5548204   6.0718965  81.0489059  93.8362851
   5.3788210  81.1233414  93.1802887   5.8270717  80.2849403  94.3584368
  14.7432622  72.6084661 101.2402342  15.0234376  71.9407850 101.8662768
  15.5283229  72.8013756 100.7277006  12.5466090  91.7843655  92.8027368
  11.9740057  92.4033842  92.3497840  13.1198884  92.3343016  93.3367290
  18.6141480  81.0302295 104.9873917  19.5658903  81.1300392 105.0086141
  18.4444931  80.2380563 105.4972001  16.6355860  78.1157878 105.1733318
  16.0405792  78.3962891 104.4779806  16.3505556  78.6051779 105.9450059
  15.7663350  92.0680805  93.9335950  16.6994023  92.0026366  94.1368826
  15.6786563  92.9037072  93.4750483  18.3951367  91.3846675  90.8939898
  18.3164998  91.0506539  91.7875656  19.2161034  91.8768443  90.8931370
  21.0929558  84.2508414 104.1016217  21.0605878  83.3124415 104.2875900
  21.7030182  84.3292451 103.3682041  12.9312889  83.1204467  90.1443421
  13.8771994  82.9910675  90.2131839  12.5527134  82.3819129  90.6212849
  21.2424046  81.0419458 104.1474500  20.7263095  80.2577914 103.9604429
  22.1263995  80.7138174 104.3121019  18.9034773  74.7860473 100.1070312
  18.7059595  74.4775562 100.9913644  19.5134479  75.5122112 100.2368242
  26.9106108  85.3124421 103.2422253  27.6409496  85.0509709 103.8029957
  26.3013053  84.5753143 103.2824321  24.9921405  83.4532284 103.8396705
  24.2654569  83.3188249 103.2313196  24.5768692  83.7609112 104.6453423
  11.1155806  81.0454444  90.0798306  10.2087261  80.7487556  90.1561019
  11.3931787  80.7484262  89.2132592  12.7317872  75.5891333  96.2342547
  11.9218600  75.2438418  96.6097793  13.4202289  75.2798877  96.8230159
  14.6608420  74.6669380  97.8566844  15.2139459  75.0864834  98.5156867
  14.8978506  73.7405128  97.8989800   9.8854591  77.9041379  90.2210285
  10.7473755  78.2296277  90.4806102  10.0704935  77.1172875  89.7083351
  18.0387227  76.7769905  97.3645508  17.4585896  77.4354709  96.9823560
  17.7723160  75.9547250  96.9532926  16.4890793  76.1774963  99.5666828
  16.9890572  76.2891498  98.7581147  17.1326401  75.8736016 100.2067637
  16.8212105  78.9369996  96.4201856  15.9337960  79.2219646  96.2022051
  17.2366094  78.7763759  95.5729133  20.1726641  78.9616517 100.1356196
  20.9487031  79.4512969 100.4080812  19.4474775  79.3874571 100.5928065
  22.6099200  79.6744136 101.1930136  23.2043691  79.4339872 100.4823444
  22.6825784  78.9551267 101.8203672  15.9655319  88.7014670  90.5149876
  16.6691169  88.9064673  91.1307532  15.2417967  89.2691432  90.7798960
  16.7953129  84.4524532  96.6352146  16.7388330  84.9093083  95.7959779
  17.3481471  83.6915216  96.4574989  20.6057935  80.2414264  97.4602266
  20.3494869  79.8410899  98.2910474  19.9810803  80.9558057  97.3352405
  24.9170273  82.9810337  99.9673557  24.3569831  83.0503526 100.7405119
  24.3113776  82.8051321  99.2473054  17.8742016  89.1397200  92.5648336
  18.7087620  88.7078398  92.3825811  17.7126359  88.9679213  93.4925231
  17.5287908  85.6429313  93.9304676  17.4736712  85.4773584  92.9893120
  16.9033963  86.3505346  94.0866865  10.8384034  75.1437422  93.5089994
  10.8262703  76.0879262  93.6658265  11.7307455  74.9607567  93.2149455
  14.6536153  71.7380199  97.7635931  13.8868549  71.1838685  97.9092613
  15.0646858  71.8102067  98.6250082  26.5026291  99.6566851 102.6603513
  27.1404701  99.5373598 101.9566853  26.3847134 100.6047695 102.7191465
  23.3115997  99.6094279 102.5965038  22.9734509  99.4935344 101.7085573
  24.1805766  99.2085444 102.5766044  19.1702813 101.4629755  98.5861929
  18.6067678 101.3719692  97.8178216  19.0555208 100.6429660  99.0664421
  24.7502372 105.1300723  93.8976394  24.0990352 105.7154803  93.5110407
  25.5446735 105.6606918  93.9571431  18.6757999 102.2189860  94.2963528
  19.4488875 101.6718847  94.1576404  19.0283398 103.0834109  94.5077989
  21.4399248 100.9243091 104.0931787  22.0362821 100.6999113 103.3788750
  21.4974220 100.1827836 104.6957235  21.0124277  98.3782526  91.9281978
  21.2649797  97.8564047  91.1665441  20.0748836  98.2148672  92.0308661
  26.0567560  97.3818305  99.7356721  26.8430649  96.9637728  99.3847138
  26.3206264  98.2864397  99.9038369  26.2277637 102.8191155  94.4345378
  25.5923470 102.8925781  95.1466283  25.8975043 103.4084754  93.7564457
  31.4575987  97.3193538 100.6389700  32.1901159  96.7492755 100.8727529
  30.7015342  96.9315138 101.0796205  20.7320565 100.2810632  94.1306353
  20.6156824  99.6055536  94.7987437  20.8422825  99.7943006  93.3138506
  23.0752106  99.7420779  97.8353042  22.7110314  99.2151400  98.5465964
  23.9319222  99.3519248  97.6619527  28.9801407  91.0315112 105.0984308
  28.6484732  91.9010523 104.8745523  28.3847020  90.7151396 105.7778339
  22.7157593  94.7710679  92.8314391  22.8831996  95.6390915  93.1984862
  22.5254762  94.9337961  91.9075680  25.4732927 103.2327658 104.4980221
  25.1733650 104.1352697 104.3896028  25.1283986 102.9659841 105.3501374
  18.9245408  99.6841455 100.5316925  17.9995905  99.5517669 100.7394617
  19.1729821 100.4635674 101.0286868  28.8730070  95.7510198 102.1777658
  27.9646948  95.6825606 101.8836419  28.8217666  96.2282143 103.0059484
  22.6946814  97.2268336  93.8161057  22.5746439  97.6725387  94.6546538
  21.9999403  97.5753654  93.2574596  20.4553706 109.9971978  97.4651189
  20.3777736 110.9479803  97.5439669  19.8515350 109.6517851  98.1226115
  30.7391717  93.9526636 103.9555532  30.0966097  94.2459170 103.3095327
  30.2346645  93.8379557 104.7608729  28.3931880  97.6989810  94.6441391
  29.3049737  97.9317196  94.4689089  27.8841527  98.2826854  94.0816470
  26.6772648 102.1214437 108.2802684  27.0856004 101.6796848 107.5357316
  25.9549910 101.5467065 108.5336877  23.0303718  97.0587044 105.6536241
  23.8764913  97.4826458 105.7970890  22.9702356  96.4020669 106.3474804
  27.0001463 102.6815628 102.0354973  26.3710325 102.8461342 101.3331041
  26.6127125 103.0957238 102.8065937  30.8790695 103.6170066  99.3899337
  30.1941733 103.9968967  98.8396370  30.9634544 104.2265393 100.1231284
  26.1803163  94.7191413 107.3117415  25.9364095  95.4733473 106.7751690
  26.4563094  95.0976760 108.1464662  28.1341626 101.2630025 105.9894680
  28.3458521 101.9061785 105.3129061  28.0871374 100.4292342 105.5216610
  25.7367855  93.8747846 102.8931252  24.8752334  94.1729099 103.1847990
  25.7630290  94.0918245 101.9612285  22.5529425 102.4190036  99.3005058
  23.0167770 102.6977739  98.5109681  22.2886223 101.5173481  99.1178149
  19.4453506 101.9661518 102.2384821  20.0154863 102.3948786 101.6002306
  20.0361618 101.6844102 102.9369007  21.4898311  98.5413189  96.1094623
  22.1922354  98.9934232  96.5768550  21.1578939  97.8997007  96.7374516
  15.2323645  96.7996741 101.4111757  14.4422699  97.0554270 100.9351867
  15.7234892  97.6145079 101.5163797  29.2487454 104.1401980 104.1617038
  30.0704898 103.7382168 103.8799719  29.2449857 104.0370215 105.1133153
  17.1838390  97.1641320  98.3695233  16.3869553  97.2760015  98.8878729
  16.9563982  97.5027973  97.5036124  37.3393447 100.4840729 100.5102009
  36.5857156  99.9148127 100.3546013  37.4740988 100.4503393 101.4572644
  22.7292075 105.3554131  96.1856728  22.5937750 106.2005667  96.6141576
  23.2701888 105.5573409  95.4222662  16.1821473 102.8729569  96.7584653
  16.6945993 103.6672819  96.9090218  16.8344186 102.1755860  96.6918255
  17.9916357 105.9895325  98.8407407  18.1682986 106.9113290  98.6528391
  18.7873191 105.6753745  99.2701786  22.1327376  92.8503590 110.4391340
  22.8737089  93.4510743 110.3595803  22.3645299  92.1081228 109.8809383
  26.0784539  88.8784693 104.7155622  25.7348808  89.7686335 104.6394732
  26.4463501  88.6886351 103.8525207  14.1470389 101.2018224  97.5344224
  14.9845611 101.6115232  97.3177932  14.3248657 100.2617666  97.5044418
  26.0434822  98.8693304  93.2228057  25.5281445  99.6397909  93.4616444
  25.7712130  98.1958440  93.8461118  23.6281933  93.7143005  98.2813295
  22.7723529  93.3249855  98.1018934  24.0408884  93.7934966  97.4213081
  25.1581079  91.2489348 102.6804855  24.6545875  91.2119483 101.8672660
  25.4511686  92.1582091 102.7401512  21.4023965  91.3328078 101.6871037
  22.2676962  91.1370887 101.3276926  21.4701474  91.1038430 102.6140394
  31.0169096 101.6225659  95.1581230  30.2398538 101.2836818  94.7136393
  31.6960577 101.6278282  94.4836195  25.8321125  96.7420396  95.0487838
  25.5271260  97.0566545  95.8997981  26.7851567  96.8201816  95.0915171
  24.2767557 102.9010620  96.6980792  23.7488918 102.1663379  96.3854030
  23.7755059 103.6785296  96.4520760  29.2560403 101.0959640 101.8147838
  28.5984077 101.7858901 101.9027967  30.0600802 101.4856072 102.1581825
  19.0086284  93.5630286  99.0587404  19.5830036  93.3405467  98.3260597
  19.5957267  93.6318980  99.8116005  28.0665861  99.4504013  99.8651780
  28.5797743 100.0834005 100.3673490  28.7167085  98.8505208  99.4995140
  19.3355871  95.5934747  93.0783289  18.4993184  95.9309433  93.3992564
  19.1960641  95.4583727  92.1410426  21.3108952  90.4371535  97.7862473
  20.6573364  90.1220552  97.1619088  21.2689426  89.8147275  98.5122296
  22.4220157 100.7190830  89.7015765  21.5147219 100.4880083  89.9006914
  22.9191189  99.9228449  89.8889747  25.3288236 109.4288337  92.6212451
  24.6549934 109.7320034  93.2297409  25.7154058 110.2317417  92.2717908
  24.5446692  96.9253468 102.1110121  23.6269254  97.1468415 101.9531809
  24.9606836  96.9999779 101.2521828  25.3281740  98.3244884  97.2412801
  26.0753559  98.8366281  96.9319923  25.5973330  98.0028937  98.1017195
  23.6008390 100.8203425  94.2239755  22.6919609 100.5362458  94.3212225
  23.6303474 101.2402503  93.3643062  28.8327658 104.4310014  97.9930923
  28.3789985 103.5900924  98.0496113  28.2021624 105.0671413  98.3305703
  27.7760577  95.3602000  99.2231590  27.0383334  94.8479386  99.5541833
  28.0287351  94.9202382  98.4114867  27.2760597 106.2686511  98.9280741
  27.5683571 106.8291568  98.2093107  27.7859217 106.5615072  99.6833900
  27.8772205  88.1378252  99.8173360  28.1831081  87.2775616  99.5299275
  28.6024809  88.7295872  99.6172353  14.1696561  98.5408939  98.2054957
  13.9720960  97.9478300  97.4806024  13.6143225  98.2361149  98.9230896
  22.1493284  98.4332045 100.3249551  22.2041894  97.4805882 100.2492027
  21.3384486  98.5891484 100.8090849  23.2984478 102.3612168  91.5627834
  22.8603908 101.6448027  91.1033471  24.0394919 102.5888283  91.0012925
  20.0885644  97.0509105  98.0839929  19.2753510  97.3503276  98.4905122
  20.5844638  96.6564794  98.8014412  22.2394222 107.0466862 100.0174194
  22.1970401 107.2727708  99.0882726  23.1556921 106.8130237 100.1659995
  25.6859856  97.5150930 106.9154823  26.0409244  97.7422403 107.7749289
  26.3331987  97.8469306 106.2932079  31.4157593 100.6369365  97.6204152
  31.2775491 100.8270961  96.6925342  31.0593812 101.3988748  98.0772204
  19.5799719  94.6227461 103.7001164  20.2199098  94.4816220 103.0024128
  18.7477249  94.3361974 103.3239766  31.4426972 102.7045892 102.6315424
  31.8763479 102.6121182 103.4798478  32.1558553 102.6803393 101.9935440
  20.3560023 103.9229891  99.8136157  21.1500621 103.4280211  99.6118732
  19.6451715 103.3947754  99.4503862  25.1754867 106.3047987 104.1648524
  25.2291890 106.8738923 104.9326240  24.3069649 106.4749872 103.8002562
  16.6642786  98.0672973  95.8895910  15.7340374  98.0057428  96.1065872
  16.7600258  97.5448925  95.0932551  16.5828335  94.5927786  98.4774151
  16.8435153  95.5073119  98.3683312  17.4045508  94.1252228  98.6270764
  32.3042522 102.7469593 105.1648309  32.4978412 103.6515404 105.4107584
  32.2043140 102.2877012 105.9986894  23.9578833  92.6327484 107.6638637
  23.3106748  93.3317433 107.5703113  24.7279848  93.0663628 108.0314885
  24.1342967 100.4708249 105.7235456  25.0635027 100.6219408 105.5504424
  23.7133997 100.5592269 104.8684103  22.9331299 104.4958913 103.4933994
  22.7942385 104.1277697 104.3659932  22.1445895 105.0106552 103.3217952
  23.5279451 109.5968009  94.8359530  23.7031206 109.1256053  95.6505153
  22.8412239 110.2233776  95.0640791  24.4836514 103.8740516 100.8822832
  24.1486347 103.8341286 101.7780482  23.9840460 103.2085232 100.4093242
  27.4195706 101.2196550  91.1559891  26.8024876 100.4943378  91.0592944
  26.9512194 101.9805910  90.8126966  29.0749837 105.9295458 108.8165672
  29.0162383 105.2454679 108.1496255  29.4769356 106.6714448 108.3646298
  19.2094252  95.4381974  90.2781196  18.3323718  95.3170775  89.9143442
  19.6852005  94.6468053  90.0260084  29.0767245 103.8935042 107.0479651
  28.1894023 103.5560964 107.1706050  29.6465796 103.1618074 107.2848417
  22.3958178 107.7908265  97.5243716  21.6125699 108.3329945  97.6181941
  23.0950923 108.3082244  97.9237957  25.7054828  93.6002894 100.1677922
  26.2023527  92.8472856  99.8478992  24.9341809  93.6367211  99.6021131
  33.5584585  99.3043260 101.8096213  33.5474461 100.1867975 101.4390146
  32.6901965  98.9514811 101.6150750  26.7884608 102.3574581  97.7416345
  25.8540887 102.4776044  97.5721049  26.9661277 101.4547048  97.4776355
  22.2889796  95.7420277  99.8949606  21.9187584  95.1891318 100.5830512
  22.7848889  95.1378411  99.3424606  30.1757160  98.1991901  98.2766379
  30.6417612  99.0319892  98.2026682  30.6264660  97.7336882  98.9811638
  28.2433391 104.5435722  95.2752531  28.5193235 104.4292317  96.1846405
  27.3737890 104.1453207  95.2364704  28.1473822  90.5672488 102.3157280
  27.2336902  90.7976714 102.4839487  28.5766924  90.6510932 103.1671313
  27.9180281  98.7562380 104.8157174  27.2651731  99.0038287 104.1609627
  28.2960661  97.9426518 104.4819652  24.8787455 108.7922073  98.9185345
  25.0609849 107.9743729  99.3813097  25.7020441 109.0089765  98.4810235
  25.2129620 107.7190258  96.1800393  25.7417387 107.2082713  95.5670555
  25.4757840 107.4032788  97.0445926  17.6855130  93.1524268 106.1402712
  17.7496457  94.0139099 105.7280110  17.6222250  92.5398270 105.4075071
  13.9372945  97.0323830  95.7194101  14.2326386  96.1234508  95.6661155
  13.0360981  97.0111569  95.3975104  25.8459024 108.7531094 102.5244510
  25.7210164 107.9520833 102.0155455  26.5038115 109.2477287 102.0358480
  17.4667192  95.1079826 101.7021650  16.7453778  95.7215794 101.5629123
  18.2560448  95.6437591 101.6238296  27.9093933 106.5540114 104.1524060
  26.9624268 106.4345465 104.0802387  28.2576706 105.6662612 104.2350321
  20.2693506  92.4434253 107.9762302  20.7927908  92.6896549 108.7388611
  20.0505839  93.2754287 107.5565439  15.6660787  94.7137927  95.8433426
  15.3373493  93.8335306  95.6608532  16.0200158  94.6585596  96.7309816
  24.9140366 106.3492830 100.3528412  24.7665328 105.4209537 100.5335982
  25.7393859 106.3712921  99.8685487  18.7802610  95.0010897  96.2108904
  19.1198683  95.5296818  95.4887513  19.2274731  95.3391303  96.9867471
  28.5174488 107.1721389 101.4393285  29.4421035 106.9664250 101.3017736
  28.3489791 106.9237790 102.3482626  21.4746051  93.3847948 105.6611972
  21.1342871  92.5855761 106.0632652  20.7685057  93.6849659 105.0888805
  22.1262523  90.4697260 104.1139295  22.9488592  89.9957738 103.9918186
  22.3700586  91.2487744 104.6137982  20.7670757  93.4985519  94.4102197
  21.4879120  93.8766771  93.9065914  20.1436061  94.2174395  94.5137175
  24.9101880  94.2030668  95.3460529  25.1265495  95.0855305  95.0449357
  24.4295947  93.8116881  94.6166171  19.6501102  97.1616381 101.9231274
  19.5045682  97.4756684 102.8155555  19.1726305  97.7801281 101.3702172
  21.5097484  94.1518929 101.9712163  21.4959053  93.2560022 101.6344461
  22.2269913  94.1589593 102.6050449  23.3623615  94.5856269 104.0165291
  23.1041393  95.5073340 104.0149621  22.8308656  94.1886704 104.7065755
  28.3069804 107.6907056  96.7955376  28.4806681 107.1253479  96.0429229
  28.7998695 108.4907951  96.6134866  20.9134380  93.0333309  97.2399734
  21.0350292  92.1049955  97.4390621  20.6236423  93.0471995  96.3278049
  23.7825571  90.7188220 100.3766453  23.8047268  90.7827553  99.4218433
  24.1993630  89.8792728 100.5706960  34.1609195 100.4543479  98.4145676
  34.6040341  99.7050804  98.0164799  33.2835705 100.4453615  98.0319408
  29.2944976 107.0073821  93.8952275  29.9895881 107.6280513  94.1139589
  29.6368127 106.1569172  94.1704652  31.1936400 104.4573526  95.4239605
  31.7187724 104.7960799  94.6988925  31.1058752 103.5220541  95.2402740
  22.8777060 110.5245509  99.7834858  22.4382051 110.0321888 100.4767715
  23.6285177 109.9818477  99.5426934  31.0028181 101.9398896 108.0423532
  31.0526186 101.7748904 108.9839055  30.8942104 101.0726155 107.6521413
  19.8864439 104.6187442  95.3315621  20.0352560 105.3022906  94.6782293
  20.6930883 104.5992532  95.8465076  28.2931943  97.9229824 109.3582838
  29.1941806  97.7836289 109.0666836  28.3679918  98.0884279 110.2981016
  22.6274748  95.2996679 108.2036025  21.7578058  95.5930245 107.9318613
  22.8634229  95.8837124 108.9243288  32.5046377 104.3595838 108.2865553
  32.2131186 104.7225818 109.1229014  31.8918509 103.6462846 108.1078885
  33.7042060 101.9248717 100.8068124  34.5388951 102.3638521 100.9705684
  33.8401189 101.4487371  99.9876369  30.7533566  99.4828452 106.7545611
  31.2287687  99.6756099 105.9464463  29.8299131  99.5387638 106.5088995
  17.6417072 100.6452619  96.3376690  17.3963114  99.7414949  96.5356900
  17.8112987 100.6469770  95.3956168  25.3313782  91.5176296 105.7201445
  25.8495726  92.2537323 105.3947934  24.9768915  91.8240289 106.5548204
  16.9112720  96.3780977  93.8362851  16.2181965  96.4525332  93.1802887
  16.6664472  95.6141321  94.3584368  25.5826376  87.9376578 101.2402342
  25.8628130  87.2699767 101.8662768  26.3676983  88.1305674 100.7277006
  23.3859845 107.1135572  92.8027368  22.8133812 107.7325759  92.3497840
  23.9592639 107.6634934  93.3367290  29.4535235  96.3594212 104.9873917
  30.4052658  96.4592310 105.0086141  29.2838685  95.5672481 105.4972001
  27.4749614  93.4449796 105.1733318  26.8799546  93.7254808 104.4779806
  27.1899311  93.9343696 105.9450059  26.6057105 107.3972722  93.9335950
  27.5387778 107.3318284  94.1368826  26.5180317 108.2328989  93.4750483
  29.2345121 106.7138593  90.8939898  29.1558753 106.3798456  91.7875656
  30.0554788 107.2060361  90.8931370  31.9323312  99.5800332 104.1016217
  31.8999633  98.6416333 104.2875900  32.5423936  99.6584369 103.3682041
  23.7706643  98.4496385  90.1443421  24.7165748  98.3202593  90.2131839
  23.3920888  97.7111047  90.6212849  32.0817801  96.3711375 104.1474500
  31.5656850  95.5869832 103.9604429  32.9657749  96.0430092 104.3121019
  29.7428528  90.1152391 100.1070312  29.5453349  89.8067479 100.9913644
  30.3528233  90.8414030 100.2368242  37.7499862 100.6416339 103.2422253
  38.4803251 100.3801627 103.8029957  37.1406808  99.9045061 103.2824321
  35.8315159  98.7824201 103.8396705  35.1048323  98.6480166 103.2313196
  35.4162446  99.0901030 104.6453423  21.9549560  96.3746361  90.0798306
  21.0481016  96.0779474  90.1561019  22.2325541  96.0776179  89.2132592
  23.5711626  90.9183251  96.2342547  22.7612355  90.5730336  96.6097793
  24.2596043  90.6090795  96.8230159  25.5002174  89.9961298  97.8566844
  26.0533213  90.4156751  98.5156867  25.7372261  89.0697046  97.8989800
  20.7248345  93.2333297  90.2210285  21.5867509  93.5588195  90.4806102
  20.9098689  92.4464792  89.7083351  28.8780982  92.1061823  97.3645508
  28.2979651  92.7646627  96.9823560  28.6116914  91.2839168  96.9532926
  27.3284548  91.5066881  99.5666828  27.8284326  91.6183415  98.7581147
  27.9720156  91.2027934 100.2067637  27.6605860  94.2661913  96.4201856
  26.7731715  94.5511564  96.2022051  28.0759849  94.1055677  95.5729133
  31.0120396  94.2908434 100.1356196  31.7880786  94.7804887 100.4080812
  30.2868530  94.7166489 100.5928065  33.4492954  95.0036054 101.1930136
  34.0437445  94.7631790 100.4823444  33.5219538  94.2843184 101.8203672
  26.8049073 104.0306588  90.5149876  27.5084923 104.2356591  91.1307532
  26.0811722 104.5983350  90.7798960  27.6346883  99.7816449  96.6352146
  27.5782085 100.2385001  95.7959779  28.1875226  99.0207134  96.4574989
  31.4451689  95.5706181  97.4602266  31.1888623  95.1702817  98.2910474
  30.8204557  96.2849975  97.3352405  35.7564027  98.3102254  99.9673557
  35.1963585  98.3795444 100.7405119  35.1507530  98.1343239  99.2473054
  28.7135770 104.4689117  92.5648336  29.5481374 104.0370316  92.3825811
  28.5520113 104.2971131  93.4925231  28.3681663 100.9721231  93.9304676
  28.3130466 100.8065502  92.9893120  27.7427718 101.6797264  94.0866865
  21.6777788  90.4729340  93.5089994  21.6656458  91.4171180  93.6658265
  22.5701210  90.2899485  93.2149455  25.4929908  87.0672116  97.7635931
  24.7262303  86.5130603  97.9092613  25.9040613  87.1393985  98.6250082
  37.3420046 114.9858768 102.6603513  37.9798456 114.8665516 101.9566853
  37.2240888 115.9339612 102.7191465  34.1509752 114.9386197 102.5965038
  33.8128263 114.8227261 101.7085573  35.0199520 114.5377362 102.5766044
  31.8518031 113.7074444  91.9281978  32.1043552 113.1855965  91.1665441
  30.9142590 113.5440589  92.0308661  36.8961314 112.7110222  99.7356721
  37.6824403 112.2929645  99.3847138  37.1600018 113.6156314  99.9038369
  42.2969741 112.6485455 100.6389700  43.0294913 112.0784672 100.8727529
  41.5409097 112.2607056 101.0796205  33.9145861 115.0712697  97.8353042
  33.5504068 114.5443318  98.5465964  34.7712977 114.6811166  97.6619527
  39.8195162 106.3607030 105.0984308  39.4878486 107.2302441 104.8745523
  39.2240775 106.0443314 105.7778339  33.5551348 110.1002597  92.8314391
  33.7225750 110.9682833  93.1984862  33.3648517 110.2629878  91.9075680
  39.7123825 111.0802116 102.1777658  38.8040702 111.0117524 101.8836419
  39.6611421 111.5574061 103.0059484  33.5340569 112.5560254  93.8161057
  33.4140194 113.0017305  94.6546538  32.8393157 112.9045572  93.2574596
  41.5785471 109.2818554 103.9555532  40.9359851 109.5751087 103.3095327
  41.0740400 109.1671474 104.7608729  39.2325635 113.0281727  94.6441391
  40.1443491 113.2609114  94.4689089  38.7235282 113.6118772  94.0816470
  37.5166403 117.4506355 108.2802684  37.9249759 117.0088766 107.5357316
  36.7943664 116.8758983 108.5336877  33.8697473 112.3878962 105.6536241
  34.7158668 112.8118375 105.7970890  33.8096110 111.7312586 106.3474804
  37.0196918 110.0483330 107.3117415  36.7757850 110.8025391 106.7751690
  37.2956848 110.4268678 108.1464662  38.9735381 116.5921943 105.9894680
  39.1852276 117.2353703 105.3129061  38.9265129 115.7584259 105.5216610
  36.5761610 109.2039763 102.8931252  35.7146089 109.5021017 103.1847990
  36.6024044 109.4210162 101.9612285  32.3292065 113.8705106  96.1094623
  33.0316108 114.3226150  96.5768550  31.9972694 113.2288925  96.7374516
  26.0717399 112.1288659 101.4111757  25.2816453 112.3846187 100.9351867
  26.5628646 112.9436997 101.5163797  28.0232144 112.4933238  98.3695233
  27.2263308 112.6051932  98.8878729  27.7957737 112.8319890  97.5036124
  48.1787202 115.8132647 100.5102009  47.4250910 115.2440045 100.3546013
  48.3134743 115.7795311 101.4572644  32.9721130 108.1795508 110.4391340
  33.7130844 108.7802661 110.3595803  33.2039053 107.4373146 109.8809383
  36.9178293 104.2076611 104.7155622  36.5742563 105.0978252 104.6394732
  37.2857256 104.0178268 103.8525207  36.8828576 114.1985222  93.2228057
  36.3675200 114.9689826  93.4616444  36.6105885 113.5250358  93.8461118
  34.4675687 109.0434923  98.2813295  33.6117283 108.6541773  98.1018934
  34.8802639 109.1226883  97.4213081  35.9974834 106.5781266 102.6804855
  35.4939629 106.5411401 101.8672660  36.2905441 107.4874009 102.7401512
  32.2417720 106.6619996 101.6871037  33.1070716 106.4662804 101.3276926
  32.3095229 106.4330347 102.6140394  41.8562850 116.9517576  95.1581230
  41.0792293 116.6128736  94.7136393  42.5354331 116.9570200  94.4836195
  36.6714879 112.0712314  95.0487838  36.3665015 112.3858463  95.8997981
  37.6245321 112.1493734  95.0915171  40.0954157 116.4251558 101.8147838
  39.4377832 117.1150819 101.9027967  40.8994556 116.8147990 102.1581825
  29.8480039 108.8922204  99.0587404  30.4223791 108.6697385  98.3260597
  30.4351021 108.9610898  99.8116005  38.9059616 114.7795930  99.8651780
  39.4191498 115.4125922 100.3673490  39.5560840 114.1797126  99.4995140
  30.1749626 110.9226665  93.0783289  29.3386938 111.2601351  93.3992564
  30.0354395 110.7875644  92.1410426  32.1502706 105.7663452  97.7862473
  31.4967119 105.4512470  97.1619088  32.1083181 105.1439193  98.5122296
  33.2613911 116.0482748  89.7015765  32.3540973 115.8172001  89.9006914
  33.7584943 115.2520367  89.8889747  35.3840447 112.2545386 102.1110121
  34.4663008 112.4760333 101.9531809  35.8000590 112.3291696 101.2521828
  36.1675495 113.6536802  97.2412801  36.9147313 114.1658199  96.9319923
  36.4367084 113.3320854  98.1017195  34.4402145 116.1495342  94.2239755
  33.5313364 115.8654375  94.3212225  34.4697229 116.5694421  93.3643062
  38.6154332 110.6893918  99.2231590  37.8777088 110.1771304  99.5541833
  38.8681105 110.2494300  98.4114867  38.7165959 103.4670170  99.8173360
  39.0224836 102.6067533  99.5299275  39.4418564 104.0587790  99.6172353
  32.9887039 113.7623963 100.3249551  33.0435649 112.8097799 100.2492027
  32.1778241 113.9183402 100.8090849  30.9279399 112.3801023  98.0839929
  30.1147264 112.6795193  98.4905122  31.4238393 111.9856712  98.8014412
  36.5253610 112.8442847 106.9154823  36.8802998 113.0714320 107.7749289
  37.1725742 113.1761224 106.2932079  42.2551347 115.9661283  97.6204152
  42.1169246 116.1562879  96.6925342  41.8987566 116.7280666  98.0772204
  30.4193473 109.9519378 103.7001164  31.0592853 109.8108137 103.0024128
  29.5871004 109.6653892 103.3239766  42.2820727 118.0337810 102.6315424
  42.7157234 117.9413099 103.4798478  42.9952308 118.0095311 101.9935440
  27.5036541 113.3964890  95.8895910  26.5734129 113.3349346  96.1065872
  27.5994013 112.8740843  95.0932551  27.4222090 109.9219703  98.4774151
  27.6828907 110.8365036  98.3683312  28.2439262 109.4544146  98.6270764
  43.1436276 118.0761511 105.1648309  43.3372167 118.9807321 105.4107584
  43.0436895 117.6168930 105.9986894  34.7972587 107.9619401 107.6638637
  34.1500502 108.6609351 107.5703113  35.5673603 108.3955545 108.0314885
  34.9736722 115.8000166 105.7235456  35.9028782 115.9511326 105.5504424
  34.5527752 115.8884187 104.8684103  38.2589460 116.5488468  91.1559891
  37.6418631 115.8235296  91.0592944  37.7905949 117.3097828  90.8126966
  30.0488006 110.7673892  90.2781196  29.1717472 110.6462693  89.9143442
  30.5245759 109.9759970  90.0260084  36.5448582 108.9294812 100.1677922
  37.0417282 108.1764774  99.8478992  35.7735564 108.9659128  99.6021131
  44.3978340 114.6335177 101.8096213  44.3868216 115.5159893 101.4390146
  43.5295719 114.2806728 101.6150750  33.1283551 111.0712195  99.8949606
  32.7581338 110.5183235 100.5830512  33.6242643 110.4670328  99.3424606
  41.0150914 113.5283818  98.2766379  41.4811366 114.3611810  98.2026682
  41.4658415 113.0628800  98.9811638  38.9867577 105.8964405 102.3157280
  38.0730657 106.1268632 102.4839487  39.4160678 105.9802849 103.1671313
  38.7574035 114.0854297 104.8157174  38.1045486 114.3330205 104.1609627
  39.1354415 113.2718435 104.4819652  28.5248885 108.4816186 106.1402712
  28.5890211 109.3431017 105.7280110  28.4616005 107.8690187 105.4075071
  24.7766700 112.3615747  95.7194101  25.0720141 111.4526426  95.6661155
  23.8754736 112.3403487  95.3975104  28.3060947 110.4371744 101.7021650
  27.5847533 111.0507712 101.5629123  29.0954203 110.9729509 101.6238296
  31.1087260 107.7726170 107.9762302  31.6321662 108.0188467 108.7388611
  30.8899594 108.6046205 107.5565439  26.5054541 110.0429845  95.8433426
  26.1767248 109.1627224  95.6608532  26.8593912 109.9877514  96.7309816
  29.6196365 110.3302815  96.2108904  29.9592437 110.8588736  95.4887513
  30.0668485 110.6683221  96.9867471  32.3139805 108.7139865 105.6611972
  31.9736626 107.9147678 106.0632652  31.6078812 109.0141576 105.0888805
  32.9656277 105.7989178 104.1139295  33.7882347 105.3249656 103.9918186
  33.2094341 106.5779662 104.6137982  31.6064512 108.8277436  94.4102197
  32.3272874 109.2058689  93.9065914  30.9829816 109.5466313  94.5137175
  35.7495635 109.5322585  95.3460529  35.9659249 110.4147223  95.0449357
  35.2689702 109.1408799  94.6166171  30.4894856 112.4908298 101.9231274
  30.3439437 112.8048602 102.8155555  30.0120060 113.1093199 101.3702172
  32.3491239 109.4810846 101.9712163  32.3352808 108.5851940 101.6344461
  33.0663667 109.4881510 102.6050449  34.2017370 109.9148187 104.0165291
  33.9435147 110.8365257 104.0149621  33.6702410 109.5178621 104.7065755
  31.7528135 108.3625227  97.2399734  31.8744046 107.4341873  97.4390621
  31.4630177 108.3763913  96.3278049  34.6219325 106.0480137 100.3766453
  34.6441022 106.1119470  99.4218433  35.0387384 105.2084646 100.5706960
  45.0002950 115.7835397  98.4145676  45.4434096 115.0342722  98.0164799
  44.1229460 115.7745533  98.0319408  41.8421935 117.2690814 108.0423532
  41.8919940 117.1040821 108.9839055  41.7335858 116.4018073 107.6521413
  39.1325698 113.2521742 109.3582838  40.0335560 113.1128207 109.0666836
  39.2073672 113.4176197 110.2981016  33.4668503 110.6288597 108.2036025
  32.5971812 110.9222163 107.9318613  33.7027983 111.2129042 108.9243288
  44.5435814 117.2540635 100.8068124  45.3782706 117.6930439 100.9705684
  44.6794943 116.7779288  99.9876369  41.5927320 114.8120370 106.7545611
  42.0681442 115.0048016 105.9464463  40.6692886 114.8679556 106.5088995
  36.1707537 106.8468213 105.7201445  36.6889481 107.5829240 105.3947934
  35.8162669 107.1532207 106.5548204  27.7506474 111.7072895  93.8362851
  27.0575719 111.7817250  93.1802887  27.5058226 110.9433238  94.3584368
  36.4220131 103.2668496 101.2402342  36.7021885 102.5991685 101.8662768
  37.2070738 103.4597592 100.7277006  40.2928989 111.6886130 104.9873917
  41.2446412 111.7884228 105.0086141  40.1232440 110.8964399 105.4972001
  38.3143369 108.7741713 105.1733318  37.7193301 109.0546726 104.4779806
  38.0293065 109.2635614 105.9450059  42.7717067 114.9092250 104.1016217
  42.7393387 113.9708250 104.2875900  43.3817691 114.9876286 103.3682041
  34.6100398 113.7788303  90.1443421  35.5559503 113.6494511  90.2131839
  34.2314643 113.0402965  90.6212849  42.9211555 111.7003293 104.1474500
  42.4050604 110.9161750 103.9604429  43.8051504 111.3722010 104.3121019
  40.5822282 105.4444309 100.1070312  40.3847103 105.1359397 100.9913644
  41.1921988 106.1705948 100.2368242  48.5893617 115.9708257 103.2422253
  49.3197005 115.7093545 103.8029957  47.9800562 115.2336978 103.2824321
  46.6708914 114.1116119 103.8396705  45.9442078 113.9772084 103.2313196
  46.2556201 114.4192948 104.6453423  32.7943315 111.7038279  90.0798306
  31.8874770 111.4071392  90.1561019  33.0719296 111.4068097  89.2132592
  34.4105381 106.2475169  96.2342547  33.6006109 105.9022254  96.6097793
  35.0989798 105.9382712  96.8230159  36.3395929 105.3253216  97.8566844
  36.8926968 105.7448669  98.5156867  36.5766015 104.3988964  97.8989800
  31.5642100 108.5625214  90.2210285  32.4261264 108.8880113  90.4806102
  31.7492444 107.7756710  89.7083351  39.7174736 107.4353741  97.3645508
  39.1373405 108.0938545  96.9823560  39.4510669 106.6131085  96.9532926
  38.1678302 106.8358798  99.5666828  38.6678081 106.9475333  98.7581147
  38.8113910 106.5319851 100.2067637  38.4999614 109.5953831  96.4201856
  37.6125469 109.8803482  96.2022051  38.9153603 109.4347594  95.5729133
  41.8514150 109.6200352 100.1356196  42.6274540 110.1096805 100.4080812
  41.1262284 110.0458406 100.5928065  44.2886709 110.3327971 101.1930136
  44.8831200 110.0923707 100.4823444  44.3613293 109.6135102 101.8203672
  38.4740638 115.1108367  96.6352146  38.4175839 115.5676918  95.7959779
  39.0268980 114.3499052  96.4574989  42.2845444 110.8998099  97.4602266
  42.0282378 110.4994735  98.2910474  41.6598312 111.6141893  97.3352405
  46.5957782 113.6394172  99.9673557  46.0357340 113.7087361 100.7405119
  45.9901285 113.4635157  99.2473054  39.2075417 116.3013148  93.9304676
  39.1524221 116.1357420  92.9893120  38.5821472 117.0089181  94.0866865
  32.5171543 105.8021257  93.5089994  32.5050212 106.7463097  93.6658265
  33.4094964 105.6191403  93.2149455  36.3323662 102.3964034  97.7635931
  35.5656058 101.8422521  97.9092613  36.7434367 102.4685903  98.6250082
  47.7572048 119.5368528 104.7155622  47.4136317 120.4270170 104.6394732
  48.1251010 119.3470186 103.8525207  49.5559713 118.7962088  99.8173360
  49.8618590 117.9359451  99.5299275  50.2812318 119.3879708  99.6172353
  49.8261331 121.2256323 102.3157280  48.9124411 121.4560550 102.4839487
  50.2554433 121.3094767 103.1671313  47.2613885 118.5960414 101.2402342
  47.5415639 117.9283603 101.8662768  48.0464492 118.7889509 100.7277006
  51.4216037 120.7736226 100.1070312  51.2240858 120.4651315 100.9913644
  52.0315742 121.4997865 100.2368242  47.1789683 120.6545133  97.8566844
  47.7320722 121.0740587  98.5156867  47.4159770 119.7280881  97.8989800
  47.1717417 117.7255952  97.7635931  46.4049812 117.1714438  97.9092613
  47.5828122 117.7977820  98.6250082   4.8212185  31.5027098  87.2347316
   4.0675893  30.9334497  87.0791320   4.9559726  31.4689763  88.1817950
   1.6427933  31.4729849  85.1390983   2.0859079  30.7237174  84.7410106
   0.7654443  31.4639985  84.7564715   1.1860798  32.9435087  87.5313430
   2.0207689  33.3824891  87.6950991   1.3219926  32.4673740  86.7121676
   5.2318600  31.6602708  89.9667560   5.9621989  31.3987997  90.5275263
   4.6225546  30.9231430  90.0069628   3.3133897  29.8010571  90.5642011
   2.5867061  29.6666536  89.9558503   2.8981184  30.1087400  91.3698729
   0.9311692  26.0222423  87.9175443   1.5256183  25.7818159  87.2068751
   1.0038276  25.3029554  88.5448979   3.2382765  29.3288624  86.6918864
   2.6782323  29.3981813  87.4650426   2.6326268  29.1529609  85.9718360
   4.8238783  46.0045138  89.3848820   5.4617193  45.8851885  88.6812160
   4.7059626  46.9525982  89.4436772   1.6328490  45.9572566  89.3210344
   1.2947001  45.8413631  88.4330879   2.5018258  45.5563731  89.3011351
   2.1148273  47.1107418  95.2796550   2.1036913  46.7160216  94.4077054
   2.2768912  46.3773490  95.8730321   3.0714864  51.4779010  80.6221700
   2.4202844  52.0633091  80.2355714   3.8659227  52.0085205  80.6816738
   4.3780052  43.7296592  86.4602028   5.1643141  43.3116015  86.1092445
   4.6418756  44.6342684  86.6283676   4.5490129  49.1669442  81.1590685
   3.9135962  49.2404069  81.8711589   4.2187536  49.7563041  80.4809764
   9.7788479  43.6671825  87.3635006  10.5113651  43.0971042  87.5972836
   9.0227835  43.2793425  87.8041512   1.3964599  46.0899067  84.5598349
   1.0322806  45.5629687  85.2711270   2.2531715  45.6997536  84.3864834
   7.3013899  37.3793399  91.8229615   6.9697224  38.2488810  91.5990830
   6.7059513  37.0629683  92.5023645   1.0370086  41.1188966  79.5559697
   1.2044488  41.9869203  79.9230168   0.8467255  41.2816248  78.6320986
   3.7945419  49.5805945  91.2225528   3.4946142  50.4830984  91.1141335
   3.4496478  49.3138128  92.0746680   7.1942563  42.0988485  88.9022965
   6.2859440  42.0303894  88.6081726   7.1430158  42.5760430  89.7304790
   1.2683428  43.5178131  96.8457862   0.4916762  44.0772051  96.8360727
   1.9073991  44.0034914  97.3672732   9.0604209  40.3004924  90.6800839
   8.4178589  40.5937457  90.0340633   8.5559138  40.1857844  91.4854035
   6.7144373  44.0468097  81.3686698   7.6262229  44.2795484  81.1934396
   6.2054020  44.6305141  80.8061777   4.9985140  48.4692725  95.0047991
   5.4068496  48.0275135  94.2602623   4.2762402  47.8945352  95.2582184
   1.3516210  43.4065331  92.3781548   2.1977406  43.8304745  92.5216197
   1.2914848  42.7498956  93.0720111   5.3213955  49.0293915  88.7600280
   4.6922817  49.1939629  88.0576347   4.9339617  49.4435525  89.5311244
   9.2003187  49.9648353  86.1144643   8.5154225  50.3447255  85.5641677
   9.2847036  50.5743680  86.8476591   4.5015656  41.0669700  94.0362721
   4.2576588  41.8211760  93.4996997   4.7775586  41.4455047  94.8709968
   6.4554119  47.6108312  92.7139987   6.6671014  48.2540072  92.0374368
   6.4083867  46.7770629  92.2461917   4.0580347  40.2226133  89.6176559
   3.1964827  40.5207386  89.9093297   4.0842782  40.4396532  88.6857592
   0.8741917  48.7668323  86.0250365   1.3380262  49.0456026  85.2354987
   0.6098715  47.8651768  85.8423455   7.5699946  50.4880268  90.8862344
   8.3917390  50.0860455  90.6045026   7.5662349  50.3848502  91.8378460
   1.3356550  50.0364311  93.0423055   1.4000982  50.4984718  93.8781227
   0.6267474  49.4061676  93.1705365  15.6605940  46.8319016  87.2347316
  14.9069648  46.2626414  87.0791320  15.7953481  46.7981681  88.1817950
   1.0504568  51.7032418  82.9102035   0.9150242  52.5483954  83.3386883
   1.5914380  51.9051696  82.1467969   2.6773044  52.3255985  97.0402377
   2.2336898  51.5392363  96.7223282   3.3390258  52.5135135  96.3746268
   4.7754282  52.6058785  95.0683778   4.7572757  53.4267666  94.5764048
   5.6974202  52.4812860  95.2933920   1.2327336  50.1202914  95.9107287
   1.7655673  49.3591203  95.6806595   0.7041417  49.8276566  96.6531441
   4.3997031  35.2262980  91.4400928   4.0561301  36.1164622  91.3640039
   4.7675994  35.0364638  90.5770513   4.3647314  45.2171591  79.9473364
   3.8493937  45.9876196  80.1861751   4.0924622  44.5436728  80.5706425
   1.9494425  40.0621292  85.0058602   1.0936021  39.6728143  84.8264241
   2.3621377  40.1413253  84.1458387   3.4793572  37.5967635  89.4050162
   2.9758367  37.5597771  88.5917967   3.7724178  38.5060378  89.4646818
   9.3381588  47.9703946  81.8826537   8.5611031  47.6315106  81.4381699
  10.0173069  47.9756569  81.2081502   4.1533617  43.0898684  81.7733145
   3.8483753  43.4044833  82.6243288   5.1064059  43.1680103  81.8160478
   2.5980049  49.2488907  83.4226099   2.0701410  48.5141666  83.1099336
   2.0967552  50.0263583  83.1766067   7.5772895  47.4437927  88.5393145
   6.9196569  48.1337189  88.6273274   8.3813294  47.8334359  88.8827131
   6.3878354  45.7982300  86.5897087   6.9010235  46.4312292  87.0918797
   7.0379578  45.1983496  86.2240447   3.6500728  55.7766624  79.3457758
   2.9762427  56.0798321  79.9542716   4.0366550  56.5795705  78.9963215
   2.8659185  43.2731756  88.8355427   1.9481746  43.4946703  88.6777115
   3.2819328  43.3478066  87.9767135   3.6494232  44.6723171  83.9658108
   4.3966051  45.1844568  83.6565230   3.9185822  44.3507224  84.8262501
   1.9220882  47.1681712  80.9485062   1.0132102  46.8840745  81.0457532
   1.9515966  47.5880791  80.0888369   7.1540150  50.7788301  84.7176229
   6.7002477  49.9379211  84.7741420   6.5234117  51.4149700  85.0551010
   6.0973069  41.7080287  85.9476897   5.3595826  41.1957674  86.2787139
   6.3499843  41.2680669  85.1360174   5.5973089  52.6164798  85.6526048
   5.8896064  53.1769855  84.9338413   6.1071710  52.9093359  86.4079207
   6.1984697  34.4856539  86.5418666   6.5043574  33.6253903  86.2544581
   6.9237302  35.0774160  86.3417660   1.6196970  48.7090456  78.2873140
   1.1816400  47.9926315  77.8278778   2.3607411  48.9366570  77.7258232
   0.5606714  53.3945149  86.7419501   0.5182893  53.6205996  85.8128033
   1.4769413  53.1608524  86.8905302   4.0072348  43.8629217  93.6400130
   4.3621736  44.0900690  94.4994596   4.6544479  44.1947594  93.0177385
   9.7370085  46.9847653  84.3449459   9.5987984  47.1749249  83.4170648
   9.3806304  47.7467035  84.8017510   9.7639465  49.0524180  89.3560731
  10.1975971  48.9599469  90.2043785  10.4771045  49.0281680  88.7180747
   3.4967360  52.6526274  90.8893831   3.5504382  53.2217210  91.6571547
   2.6282141  52.8228159  90.5247868  10.6255014  49.0947880  91.8893616
  10.8190904  49.9993691  92.1352891  10.5255632  48.6355299  92.7232201
   2.2791325  38.9805771  94.3883943   1.6319240  39.6795721  94.2948420
   3.0492340  39.4141915  94.7560191   5.6870123  49.2454623  97.4634497
   5.5355629  49.0165175  96.5464580   5.6774802  50.2025224  97.4765842
   2.4555459  46.8186536  92.4480763   3.3847519  46.9697695  92.2749730
   2.0346489  46.9070557  91.5929409   1.8491943  55.9446297  81.5604837
   2.0243699  55.4734340  82.3750460   1.1624731  56.5712063  81.7886098
   2.8049006  50.2218803  87.6068138   2.4698839  50.1819573  88.5025788
   2.3052952  49.5563519  87.1338549   5.7408198  47.5674837  77.8805198
   5.1237369  46.8421665  77.7838251   5.2724686  48.3284198  77.5372272
   7.3962330  52.2773746  95.5410978   7.3374876  51.5932966  94.8741561
   7.7981848  53.0192736  95.0891604   7.3979737  50.2413330  93.7724958
   6.5106516  49.9039251  93.8951357   7.9678288  49.5096361  94.0093723
   0.9280890  54.9014782  90.7386201   0.8551062  55.7069753  91.2505506
   0.4858283  55.1006748  89.9134223   4.0267320  39.9481181  86.8923228
   4.5236020  39.1951144  86.5724298   3.2554301  39.9845498  86.3266438
  11.8797077  45.6521547  88.5341520  11.8686954  46.5346262  88.1635453
  11.0114457  45.2993098  88.3396057   3.3879574  54.8001616  92.8944360
   4.1007546  55.4349081  92.8220261   2.8969602  54.8965482  92.0784362
   5.1097101  48.7052869  84.4661652   4.1753379  48.8254331  84.2966356
   5.2873769  47.8025335  84.2021661   8.4969652  44.5470188  85.0011686
   8.9630104  45.3798179  84.9271988   8.9477153  44.0815169  85.7056944
   6.5645883  50.8914009  81.9997838   6.8405727  50.7770604  82.9091712
   5.6950382  50.4931494  81.9610011   6.4686315  36.9150775  89.0402587
   5.5549395  37.1455002  89.2084794   6.8979416  36.9989219  89.8916619
   6.2392773  45.1040667  91.5402481   5.5864223  45.3516574  90.8854934
   6.6173153  44.2904805  91.2064958   3.1999947  55.1400360  85.6430651
   3.3822342  54.3222016  86.1058404   4.0232933  55.3568052  85.2055541
   3.5342113  54.0668545  82.9045700   4.0629879  53.5561000  82.2915862
   3.7970332  53.7511075  83.7691233   2.2880346  45.8460478  98.0268518
   1.6120983  45.7454607  98.6970893   3.1107980  45.6899692  98.4904515
   1.0303129  57.1527405  92.2626134   1.5821437  57.3159027  93.0275219
   1.3709323  57.7431843  91.5906159   5.8814003  51.9788663  98.1174789
   6.4253907  52.5918621  97.6229743   5.3000848  52.5368241  98.6341802
   4.1671516  55.1009381  89.2489816   4.0422656  54.2999121  88.7400762
   4.8250608  55.5955574  88.7603786   6.2306425  52.9018401  90.8769366
   5.2836760  52.7823752  90.8047693   6.5789198  52.0140899  90.9595628
   3.2352858  52.6971117  87.0773719   3.0877821  51.7687825  87.2581289
   4.0606352  52.7191208  86.5930794   6.8386980  53.5199676  88.1638591
   7.7633527  53.3142537  88.0263043   6.6702283  53.2716077  89.0727933
   3.2314372  40.5508955  82.0705836   3.4477987  41.4333593  81.7694664
   2.7508440  40.1595168  81.3411478   1.6836107  40.9334556  90.7410597
   1.4253885  41.8551627  90.7394928   1.1521148  40.5364991  91.4311062
   6.6282296  54.0385343  83.5200683   6.8019174  53.4731766  82.7674535
   7.1211187  54.8386238  83.3380173   2.1038063  37.0666507  87.1011760
   2.1259760  37.1305840  86.1463740   2.5206122  36.2271015  87.2952266
  12.4821687  46.8021766  85.1390983  12.9252833  46.0529092  84.7410106
  11.6048198  46.7931903  84.7564715   7.6157469  53.3552108  80.6197581
   8.3108373  53.9758800  80.8384896   7.9580619  52.5047459  80.8949959
   9.5148892  50.8051813  82.1484912  10.0400216  51.1439086  81.4234232
   9.4271244  49.8698829  81.9648047   1.1768940  54.7185887  94.2774789
   1.4856067  54.4735034  95.1497488   1.9744422  54.9232525  93.7893659
   1.1989553  56.8723797  86.5080165   0.7594543  56.3800175  87.2013022
   1.9497669  56.3296764  86.2672240   9.2042798  51.4384717  97.4536110
   8.4138342  51.4208856  96.9140609   8.9676152  51.9773011  98.2085146
   9.3240673  48.2877183  94.7668838   9.3738678  48.1227191  95.7084361
   9.2154596  47.4204442  94.3766719   6.6144435  44.2708111  96.0828145
   7.5154298  44.1314576  95.7912143   6.6892410  44.4362566  97.0226323
  10.8258870  50.7074125  95.0110860  10.5343678  51.0704105  95.8474321
  10.2131001  49.9941133  94.8324192  12.0254552  48.2727005  87.5313430
  12.8601443  48.7116809  87.6950991  12.1613681  47.7965658  86.7121676
   9.0746058  45.8306739  93.4790918   9.5500180  46.0234386  92.6709769
   8.1511623  45.8865925  93.2334302   3.6526274  37.8654583  92.4446752
   4.1708218  38.6015610  92.1193240   3.2981407  38.1718576  93.2793511
   3.9038869  34.2854866  87.9647648   4.1840622  33.6178055  88.5908075
   4.6889476  34.4783961  87.4522312   1.7072337  53.4613859  79.5272675
   1.1346304  54.0804047  79.0743147   2.2805131  54.0113221  80.0612597
   7.7747727  42.7072500  91.7119224   8.7265150  42.8070597  91.7331448
   7.6051177  41.9150768  92.2217308   5.7962106  39.7928083  91.8978624
   5.2012039  40.0733095  91.2025113   5.5111803  40.2821984  92.6695366
   4.9269597  53.7451010  80.6581257   5.8600270  53.6796571  80.8614133
   4.8392810  54.5807276  80.1995790   7.5557614  53.0616880  77.6185205
   7.4771245  52.7276744  78.5120962   8.3767280  53.5538648  77.6176677
  10.2535805  45.9278619  90.8261523  10.2212125  44.9894620  91.0121207
  10.8636428  46.0062656  90.0927348   2.0919136  44.7974672  76.8688727
   3.0378240  44.6680880  76.9377145   1.7133381  44.0589334  77.3458155
  10.4030293  42.7189663  90.8719806   9.8869342  41.9348119  90.6849735
  11.2870242  42.3908379  91.0366326   8.0641020  36.4630678  86.8315619
   7.8665841  36.1545766  87.7158951   8.6740726  37.1892317  86.9613549
  16.0712355  46.9894626  89.9667560  16.8015743  46.7279914  90.5275263
  15.4619300  46.2523348  90.0069628  14.1527652  45.1302489  90.5642011
  13.4260815  44.9958454  89.9558503  13.7374939  45.4379317  91.3698729
   1.9757828  48.8492418  98.3289384   2.8960838  49.0271017  98.5229431
   1.9407411  47.9048464  98.1769083   1.8924118  37.2661538  82.9587854
   1.0824847  36.9208623  83.3343100   2.5808535  36.9569082  83.5475465
   3.8214667  36.3439585  84.5812150   4.3745705  36.7635039  85.2402173
   4.0584753  35.4175333  84.6235106   7.1993474  38.4540110  84.0890815
   6.6192143  39.1124914  83.7068867   6.9329407  37.6317455  83.6778232
   5.6497040  37.8545168  86.2912135   6.1496819  37.9661703  85.4826454
   6.2932648  37.5506221  86.9312943   5.9818352  40.6140201  83.1447163
   5.0944207  40.8989851  82.9267358   6.3972341  40.4533964  82.2974440
   9.3332888  40.6386722  86.8601502  10.1093278  41.1283174  87.1326119
   8.6081022  41.0644776  87.3173372  11.7705447  41.3514341  87.9175443
  12.3649937  41.1110077  87.2068751  11.8432030  40.6321471  88.5448979
   5.1261565  50.3784875  77.2395183   5.8297415  50.5834878  77.8552839
   4.4024214  50.9461637  77.5044266   5.9559376  46.1294737  83.3597453
   5.8994577  46.5863288  82.5205085   6.5087718  45.3685421  83.1820296
   9.7664182  41.9184468  84.1847573   9.5101116  41.5181104  85.0155780
   9.1417050  42.6328262  84.0597712  14.0776519  44.6580542  86.6918864
  13.5176077  44.7273731  87.4650426  13.4720023  44.4821526  85.9718360
   7.0348263  50.8167405  79.2893643   7.8693867  50.3848603  79.1071118
   6.8732606  50.6449418  80.2170537   6.6894155  47.3199518  80.6549982
   6.6342959  47.1543789  79.7138426   6.0640210  48.0275551  80.8112172
   4.0040062  49.6248430  99.9803545   4.8731222  49.7989082  99.6190180
   3.5246814  50.4442847  99.8579274   3.8142400  33.4150403  84.4881237
   3.0474796  32.8608890  84.6337920   4.2253105  33.4872272  85.3495389
  15.6632538  61.3337056  89.3848820  16.3010948  61.2143803  88.6812160
  15.5453381  62.2817900  89.4436772  12.4722244  61.2864484  89.3210344
  12.1340756  61.1705548  88.4330879  13.3412012  60.8855649  89.3011351
   8.3309060  63.1399960  85.3107235   7.7673925  63.0489897  84.5423523
   8.2161455  62.3199865  85.7909728  12.9542027  62.4399335  95.2796550
  12.9430668  62.0452134  94.4077054  13.1162667  61.7065408  95.8730321
   5.8773492  64.6351152  88.1491456   6.6694784  64.2941976  87.7337755
   6.1170142  64.7446127  89.0693609  13.9108619  66.8070928  80.6221700
  13.2596598  67.3925008  80.2355714  14.7052981  67.3377123  80.6816738
   7.8364246  63.8960065  81.0208835   8.6095122  63.3489052  80.8821710
   8.1889645  64.7604314  81.2323296   9.6749288  65.2236447  94.2275734
   9.3839154  66.1282078  94.1122400  10.3106273  65.2652975  94.9419803
  10.6005495  62.6013296  90.8177094  11.1969067  62.3769318  90.1034056
  10.6580467  61.8598041  91.4202541  10.1730524  60.0552731  78.6527285
  10.4256044  59.5334252  77.8910748   9.2355083  59.8918877  78.7553968
  15.2173806  59.0588509  86.4602028  16.0036896  58.6407933  86.1092445
  15.4812511  59.9634602  86.6283676  15.3883884  64.4961360  81.1590685
  14.7529717  64.5695986  81.8711589  15.0581290  65.0854959  80.4809764
  20.6182233  58.9963743  87.3635006  21.3507405  58.4262960  87.5972836
  19.8621589  58.6085343  87.8041512   9.8926812  61.9580837  80.8551659
   9.7763070  61.2825740  81.5232744  10.0029072  61.4713211  80.0383813
  12.2358353  61.4190984  84.5598349  11.8716560  60.8921605  85.2711270
  13.0925469  61.0289453  84.3864834  18.1407654  52.7085317  91.8229615
  17.8090979  53.5780728  91.5990830  17.5453267  52.3921601  92.5023645
  11.8763840  56.4480884  79.5559697  12.0438243  57.3161120  79.9230168
  11.6861009  56.6108166  78.6320986  14.6339173  64.9097863  91.2225528
  14.3339896  65.8122902  91.1141335  14.2890233  64.6430046  92.0746680
   8.0851655  61.3611660  87.2562232   7.1602151  61.2287874  87.4639924
   8.3336068  62.1405879  87.7532174  18.0336317  57.4280403  88.9022965
  17.1253194  57.3595811  88.6081726  17.9823913  57.9052348  89.7304790
  11.8553061  58.9038541  80.5406364  11.7352686  59.3495592  81.3791844
  11.1605649  59.2523859  79.9819902   5.4460466  61.0044933  88.0906021
   5.5752847  61.2579412  89.0045433   4.7657917  61.5972641  87.7710676
   9.6159953  71.6742183  84.1896495   9.5383983  72.6250008  84.2684976
   9.0121597  71.3288056  84.8471422  12.1077183  58.8470049  96.8457862
  11.3310517  59.4063969  96.8360727  12.7467746  59.3326832  97.3672732
  19.8997964  55.6296841  90.6800839  19.2572344  55.9229375  90.0340633
  19.3952892  55.5149762  91.4854035  17.5538127  59.3760015  81.3686698
  18.4655983  59.6087401  81.1934396  17.0447774  59.9597059  80.8061777
  10.3623555  61.6555502  96.4075829  11.1038240  62.1940546  96.1310653
   9.6560541  62.2821791  96.5647381  15.8378895  63.7984642  95.0047991
  16.2462251  63.3567053  94.2602623  15.1156156  63.2237270  95.2582184
  12.1909965  58.7357249  92.3781548  13.0371160  59.1596663  92.5216197
  12.1308603  58.0790873  93.0720111  16.1607710  64.3585833  88.7600280
  15.5316572  64.5231547  88.0576347  15.7733372  64.7727443  89.5311244
  15.3409410  56.3961618  94.0362721  15.0970342  57.1503678  93.4996997
  15.6169341  56.7746965  94.8709968  17.2947873  62.9400230  92.7139987
  17.5064768  63.5831990  92.0374368  17.2477621  62.1062546  92.2461917
  14.8974102  55.5518051  89.6176559  14.0358581  55.8499304  89.9093297
  14.9236537  55.7688449  88.6857592  11.7135671  64.0960241  86.0250365
  12.1774017  64.3747944  85.2354987  11.4492469  63.1943686  85.8423455
   8.6059752  63.6431723  88.9630128   9.1761110  64.0718991  88.3247612
   9.1967864  63.3614307  89.6614314  10.6504557  60.2183393  82.8339930
  11.3528601  60.6704437  83.3013856  10.3185186  59.5767212  83.4619823
   9.0984919  58.8095150  97.2091139   8.4683580  59.4911431  97.4426536
   8.9921007  58.6978232  96.2644277   4.3929891  58.4766946  88.1357063
   3.6028945  58.7324475  87.6597174   4.8841139  59.2915284  88.2409104
  18.4093701  65.8172185  90.8862344  19.2311145  65.4152373  90.6045026
  18.4056104  65.7140419  91.8378460   6.3444637  58.8411525  85.0940540
   5.5475800  58.9530220  85.6124036   6.1170229  59.1798178  84.2281431
  12.1750304  65.3656229  93.0423055  12.2394737  65.8276636  93.8781227
  11.4661228  64.7353594  93.1705365   2.6767594  58.7297437  90.5672054
   2.9275633  59.6144447  90.8329630   3.2127143  58.5502038  89.7947146
  11.8898322  67.0324336  82.9102035  11.7543997  67.8775872  83.3386883
  12.4308135  67.2343614  82.1467969   8.3765662  53.1115916  99.5716390
   7.9832607  52.5582115 100.2464034   9.1931802  53.4226494  99.9622908
   5.3427719  64.5499774  83.4829960   5.8552240  65.3443024  83.6335525
   5.9950432  63.8526065  83.4163562   7.1522604  67.6665530  85.5652713
   7.3289232  68.5883495  85.3773697   7.9479438  67.3523950  85.9947093
  11.2933623  54.5273795  97.1636647  12.0343336  55.1280948  97.0841109
  11.5251546  53.7851433  96.6054689   6.4374961  59.7130162  95.4414876
   6.3228476  58.8115420  95.7421975   5.5819478  59.9593859  95.0899693
  13.5166798  67.6547903  97.0402377  13.0730653  66.8684281  96.7223282
  14.1784012  67.8427053  96.3746268   8.2753920  69.1843704  91.5663056
   8.8261345  69.0560768  90.7940050   7.4365396  69.4838593  91.2157948
  15.6148037  67.9350703  95.0683778  15.5966512  68.7559584  94.5764048
  16.5367957  67.8104778  95.2933920  12.0721091  65.4494832  95.9107287
  12.6049427  64.6883120  95.6806595  11.5435172  65.1568484  96.6531441
  15.2390786  50.5554898  91.4400928  14.8955055  51.4456540  91.3640039
  15.6069748  50.3656556  90.5770513   3.3076636  62.8788428  84.2589531
   4.1451858  63.2885437  84.0423238   3.4854904  61.9387871  84.2289725
  15.2041068  60.5463509  79.9473364  14.6887692  61.3168114  80.1861751
  14.9318377  59.8728645  80.5706425  12.7888179  55.3913210  85.0058602
  11.9329776  55.0020060  84.8264241  13.2015131  55.4705171  84.1458387
  14.3187326  52.9259553  89.4050162  13.8152122  52.8889688  88.5917967
  14.6117933  53.8352296  89.4646818  10.5630212  53.0098283  88.4116343
  11.4283209  52.8141092  88.0522233  10.6307721  52.7808635  89.3385700
  20.1775342  63.2995864  81.8826537  19.4004785  62.9607023  81.4381699
  20.8566823  63.3048487  81.2081502  14.9927372  58.4190601  81.7733145
  14.6877507  58.7336750  82.6243288  15.9457814  58.4972021  81.8160478
  13.4373803  64.5780825  83.4226099  12.9095165  63.8433584  83.1099336
  12.9361306  65.3555501  83.1766067  18.4166649  62.7729845  88.5393145
  17.7590324  63.4629106  88.6273274  19.2207049  63.1626277  88.8827131
   8.1692531  55.2400491  85.7832710   8.7436283  55.0175672  85.0505903
   8.7563513  55.3089185  86.5361312  17.2272108  61.1274218  86.5897087
  17.7403990  61.7604210  87.0918797  17.8773332  60.5275413  86.2240447
   8.4962118  57.2704952  79.8028596   7.6599430  57.6079638  80.1237870
   8.3566888  57.1353932  78.8655733  10.4715199  52.1141740  84.5107780
   9.8179611  51.7990757  83.8864394  10.4295673  51.4917480  85.2367603
  11.5826404  62.3961035  76.4261072  10.6753465  62.1650288  76.6252221
  12.0797436  61.5998654  76.6135053  14.4894482  71.1058542  79.3457758
  13.8156181  71.4090239  79.9542716  14.8760304  71.9087622  78.9963215
  13.7052939  58.6023673  88.8355427  12.7875500  58.8238620  88.6777115
  14.1213083  58.6769984  87.9767135  14.4887987  60.0015089  83.9658108
  15.2359806  60.5136486  83.6565230  14.7579576  59.6799142  84.8262501
  12.7614637  62.4973630  80.9485062  11.8525856  62.2132662  81.0457532
  12.7909721  62.9172708  80.0888369  17.9933904  66.1080219  84.7176229
  17.5396231  65.2671129  84.7741420  17.3627871  66.7441618  85.0551010
  16.9366824  57.0372205  85.9476897  16.1989581  56.5249591  86.2787139
  17.1893597  56.5972587  85.1360174  16.4366844  67.9456716  85.6526048
  16.7289818  68.5061773  84.9338413  16.9465464  68.2385277  86.4079207
  17.0378451  49.8148457  86.5418666  17.3437328  48.9545821  86.2544581
  17.7631056  50.4066077  86.3417660   3.3302807  60.2179144  84.9300264
   3.1327207  59.6248504  84.2051331   2.7749471  59.9131354  85.6476203
  11.3099531  60.1102250  87.0494857  11.3648141  59.1576087  86.9737334
  10.4990733  60.2661689  87.5336156  12.4590725  64.0382373  78.2873140
  12.0210155  63.3218232  77.8278778  13.2001166  64.2658488  77.7258232
   9.2491891  58.7279310  84.8085236   8.4359756  59.0273481  85.2150428
   9.7450885  58.3334999  85.5259718  11.4000469  68.7237067  86.7419501
  11.3576648  68.9497913  85.8128033  12.3163168  68.4900441  86.8905302
  14.8466103  59.1921134  93.6400130  15.2015490  59.4192608  94.4994596
  15.4938234  59.5239511  93.0177385  20.5763840  62.3139570  84.3449459
  20.4381738  62.5041166  83.4170648  20.2200058  63.0758953  84.8017510
   8.7405966  56.2997666  90.4246471   9.3805345  56.1586425  89.7269434
   7.9083496  56.0132179  90.0485073  20.6033219  64.3816097  89.3560731
  21.0369726  64.2891386  90.2043785  21.3164800  64.3573598  88.7180747
   9.5166270  65.6000096  86.5381464  10.3106868  65.1050416  86.3364038
   8.8057962  65.0717959  86.1749169  14.3361114  67.9818191  90.8893831
  14.3898136  68.5509128  91.6571547  13.4675895  68.1520076  90.5247868
   5.8249033  59.7443178  82.6141216   4.8946621  59.6827633  82.8311178
   5.9206505  59.2219130  81.8177857   5.7434582  56.2697990  85.2019458
   6.0041399  57.1843324  85.0928618   6.5651754  55.8022433  85.3516071
   7.2159507  57.6835748  92.3718282   7.8882561  57.4753110  91.7230931
   6.3889294  57.4857834  91.9323515  21.4648769  64.4239798  91.8893616
  21.6584659  65.3285609  92.1352891  21.3649387  63.9647217  92.7232201
  13.1185079  54.3097689  94.3883943  12.4712995  55.0087638  94.2948420
  13.8886095  54.7433833  94.7560191  16.5263877  64.5746541  97.4634497
  16.3749384  64.3457092  96.5464580  16.5168557  65.5317142  97.4765842
  13.2949214  62.1478453  92.4480763  14.2241274  62.2989613  92.2749730
  12.8740244  62.2362474  91.5929409  12.0937546  66.1729118  90.2179301
  11.9548631  65.8047902  91.0905239  11.3052142  66.6876757  90.0463258
  12.6885698  71.2738214  81.5604837  12.8637453  70.8026258  82.3750460
  12.0018486  71.9003981  81.7886098  13.6442761  65.5510721  87.6068138
  13.3092593  65.5111491  88.5025788  13.1446706  64.8855437  87.1338549
   7.6187005  60.9578351  93.1320720   7.4806803  60.2258589  93.7332259
   8.5291928  60.8687251  92.8504907  16.5801952  62.8966755  77.8805198
  15.9631123  62.1713583  77.7838251  16.1118441  63.6576115  77.5372272
  10.2469305  60.6698310  92.6204399  10.9568924  60.0291502  92.5791018
  10.2038614  60.9211205  93.5430580  18.2356084  67.6065663  95.5410978
  18.1768630  66.9224883  94.8741561  18.6375602  68.3484653  95.0891604
   8.9598239  57.6563528  94.4400039   8.4235596  57.2054266  95.0921635
   8.3714948  57.7909437  93.6970503   7.2546783  74.4227577  88.3344697
   7.4943381  75.0546101  89.0123716   6.4115979  74.0715617  88.6210057
   8.3700498  57.1152179  77.0026502   7.4929965  56.9940980  76.6388749
   8.8458251  56.3238258  76.7505391  18.2373491  65.5705247  93.7724958
  17.3500270  65.2331169  93.8951357  18.8072042  64.8388278  94.0093723
   4.6937361  56.7919536  91.5253033   4.6095549  56.1845205  90.7903443
   3.8720067  57.2828554  91.5262529  11.7674645  70.2306700  90.7386201
  11.6944816  71.0361671  91.2505506  11.3252038  70.4298665  89.9134223
  11.5564424  69.4678470  84.2489023  10.7731946  70.0100150  84.3427247
  12.2557170  69.9852449  84.6483264  14.8661074  55.2773099  86.8923228
  15.3629774  54.5243061  86.5724298  14.0948056  55.3137416  86.3266438
  22.7190832  60.9813465  88.5341520  22.7080708  61.8638180  88.1635453
  21.8508211  60.6285015  88.3396057  14.2273328  70.1293534  92.8944360
  14.9401300  70.7640998  92.8220261  13.7363357  70.2257400  92.0784362
  15.9490855  64.0344786  84.4661652  15.0147134  64.1546249  84.2966356
  16.1267524  63.1317253  84.2021661  11.4496043  57.4190482  86.6194913
  11.0793831  56.8661522  87.3075818  11.9455136  56.8148616  86.0669913
  19.3363406  59.8762106  85.0011686  19.8023859  60.7090097  84.9271988
  19.7870907  59.4107087  85.7056944   9.2785242  67.8787977  93.7149931
   9.9794701  68.5124460  93.8679325   8.8080357  68.2202709  92.9545570
  17.4039638  66.2205927  81.9997838  17.6799482  66.1062521  82.9091712
  16.5344136  65.8223412  81.9610011  17.3080069  52.2442693  89.0402587
  16.3943149  52.4746919  89.2084794  17.7373171  52.3281137  89.8916619
  17.0786528  60.4332585  91.5402481  16.4257978  60.6808492  90.8854934
  17.4566908  59.6196723  91.2064958  14.0393702  70.4692278  85.6430651
  14.2216096  69.6513934  86.1058404  14.8626688  70.6859970  85.2055541
  14.3735867  69.3960463  82.9045700  14.9023634  68.8852917  82.2915862
  14.6364087  69.0802993  83.7691233  13.1274101  61.1752396  98.0268518
  12.4514738  61.0746525  98.6970893  13.9501735  61.0191609  98.4904515
   4.8752960  67.4124332  90.6481033   5.4606397  66.6668020  90.7808938
   4.6777798  67.7228289  91.5317697   7.7291615  70.4475580  85.6643476
   7.0601990  70.9321707  85.1807516   7.5904485  70.6944800  86.5786854
  11.8696884  72.4819323  92.2626134  12.4215192  72.6450945  93.0275219
  12.2103077  73.0723761  91.5906159   6.8461377  54.8294473  92.8648019
   6.9102703  55.6909304  92.4525417   6.7828497  54.2168474  92.1320377
   6.3213649  56.9017605  96.5121053   6.9485688  56.5194683  97.1258577
   5.4641568  56.6831807  96.8776746  16.7207758  67.3080581  98.1174789
  17.2647662  67.9210539  97.6229743  16.1394603  67.8660159  98.6341802
   3.0979192  58.7094034  82.4439408   3.3932633  57.8004713  82.3906462
   2.1967228  58.6881774  82.1220410  15.0065271  70.4301299  89.2489816
  14.8816410  69.6291038  88.7400762  15.6644362  70.9247492  88.7603786
   6.6273439  56.7850031  88.4266957   5.9060025  57.3985999  88.2874430
   7.4166695  57.3207796  88.3483603  17.0700179  68.2310319  90.8769366
  16.1230515  68.1115670  90.8047693  17.4182952  67.3432817  90.9595628
   9.4299753  54.1204458  94.7007608   9.9534154  54.3666754  95.4633918
   9.2112086  54.9524492  94.2810746   4.8267034  56.3908132  82.5678733
   4.4979740  55.5105511  82.3853839   5.1806404  56.3355801  83.4555122
  14.0746613  68.0263035  87.0773719  13.9271575  67.0979742  87.2581289
  14.9000106  68.0483126  86.5930794   7.9408857  56.6781102  82.9354211
   8.2804929  57.2067023  82.2132819   8.3880977  57.0161508  83.7112777
  17.6780734  68.8491594  88.1638591  18.6027282  68.6434455  88.0263043
  17.5096038  68.6007995  89.0727933  10.6352298  55.0618153  92.3857279
  10.2949118  54.2625966  92.7877959   9.9291304  55.3619864  91.8134112
  11.2868770  52.1467465  90.8384602  12.1094839  51.6727943  90.7163492
  11.5306833  52.9257949  91.3383288   9.9277004  55.1755724  81.1347504
  10.6485367  55.5536976  80.6311220   9.3042308  55.8944600  81.2382482
  14.0708127  55.8800873  82.0705836  14.2871741  56.7625510  81.7694664
  13.5902194  55.4887086  81.3411478   8.8107348  58.8386586  88.6476580
   8.6651929  59.1526889  89.5400862   8.3332552  59.4571486  88.0947479
  10.6703731  55.8289134  88.6957470  10.6565300  54.9330227  88.3589768
  11.3876159  55.8359797  89.3295756  12.5229862  56.2626474  90.7410597
  12.2647640  57.1843545  90.7394928  11.9914902  55.8656908  91.4311062
  17.4676051  69.3677261  83.5200683  17.6412928  68.8023684  82.7674535
  17.9604942  70.1678156  83.3380173   3.2853010  61.3791930  91.5864242
   2.7406479  62.1551738  91.7184516   4.1632360  61.7262735  91.4283363
  10.0740627  54.7103514  83.9645040  10.1956538  53.7820160  84.1635928
   9.7842669  54.7242200  83.0523356  12.9431818  52.3958424  87.1011760
  12.9653514  52.4597758  86.1463740  13.3599877  51.5562933  87.2952266
  18.4551223  68.6844025  80.6197581  19.1502128  69.3050718  80.8384896
  18.7974373  67.8339377  80.8949959   4.0719032  60.5061826  94.4794399
   3.3300768  60.6544462  95.0659029   3.7511777  60.7670092  93.6161148
  20.3542646  66.1343731  82.1484912  20.8793970  66.4731004  81.4234232
  20.2664999  65.1990746  81.9648047  12.0162695  70.0477805  94.2774789
  12.3249821  69.8026951  95.1497488  12.8138177  70.2524443  93.7893659
  12.0383307  72.2015714  86.5080165  11.5988297  71.7092093  87.2013022
  12.7891424  71.6588682  86.2672240   4.5175646  68.3927255  86.5104793
   5.3433666  68.0931027  86.1303437   4.1669698  67.6234878  86.9594582
   9.4857179  67.7453723  88.5802467   8.8637188  67.0824428  88.2804695
  10.1562046  67.7714855  87.8976115   2.7184251  66.3113582  87.4693727
   1.8816159  65.8835756  87.2877728   2.6907896  66.5046025  88.4064518
   9.5581707  56.2235511  98.1734973   9.6069862  57.0997634  97.7912742
  10.1004221  55.6812904  97.6006616  20.0436552  66.7676635  97.4536110
  19.2532096  66.7500773  96.9140609  19.8069907  67.3064928  98.2085146
  20.1634427  63.6169101  94.7668838  20.2132432  63.4519108  95.7084361
  20.0548351  62.7496360  94.3766719   9.0470686  66.2957647  82.0560927
   9.1958806  66.9793111  81.4027600   9.8537130  66.2762737  82.5710383
  17.4538190  59.6000029  96.0828145  18.3548053  59.4606494  95.7912143
  17.5286164  59.7654484  97.0226323  11.7880995  56.9766884  94.9281331
  10.9184305  57.2700450  94.6563920  12.0240475  57.5607329  95.6488595
  21.6652624  66.0366043  95.0110860  21.3737433  66.3996023  95.8474321
  21.0524755  65.3233051  94.8324192  19.9139812  61.1598657  93.4790918
  20.3893934  61.3526303  92.6709769  18.9905378  61.2157843  93.2334302
   6.8023319  62.3222824  83.0621996   6.5569361  61.4185154  83.2602206
   6.9719234  62.3239975  82.1201474  14.4920029  53.1946501  92.4446752
  15.0101973  53.9307528  92.1193240  14.1375162  53.5010494  93.2793511
   6.0718967  58.0551182  80.5608158   5.3788212  58.1295537  79.9048194
   5.8270718  57.2911526  81.0829675  14.7432623  49.6146783  87.9647648
  15.0234377  48.9469972  88.5908075  15.5283230  49.8075879  87.4522312
  12.5466092  68.7905777  79.5272675  11.9740059  69.4095964  79.0743147
  13.1198885  69.3405139  80.0612597  18.6141481  58.0364417  91.7119224
  19.5658904  58.1362515  91.7331448  18.4444932  57.2442686  92.2217308
  16.6355861  55.1220000  91.8978624  16.0405793  55.4025013  91.2025113
  16.3505558  55.6113901  92.6695366  15.7663351  69.0742927  80.6581257
  16.6994025  69.0088489  80.8614133  15.6786564  69.9099194  80.1995790
  18.3951368  68.3908798  77.6185205  18.3165000  68.0568661  78.5120962
  19.2161035  68.8830566  77.6176677  21.0929559  61.2570537  90.8261523
  21.0605879  60.3186538  91.0121207  21.7030183  61.3354574  90.0927348
  12.9312890  60.1266590  76.8688727  13.8771995  59.9972798  76.9377145
  12.5527135  59.3881252  77.3458155  21.2424048  58.0481580  90.8719806
  20.7263096  57.2640037  90.6849735  22.1263996  57.7200297  91.0366326
  18.9034775  51.7922596  86.8315619  18.7059596  51.4837684  87.7158951
  19.5134480  52.5184235  86.9613549  26.9106109  62.3186544  89.9667560
  27.6409498  62.0571832  90.5275263  26.3013055  61.5815266  90.0069628
  24.9921406  60.4594406  90.5642011  24.2654570  60.3250371  89.9558503
  24.5768693  60.7671235  91.3698729  12.8151583  64.1784336  98.3289384
  13.7354592  64.3562935  98.5229431  12.7801166  63.2340381  98.1769083
  11.1155807  58.0516566  76.8043612  10.2087263  57.7549679  76.8806326
  11.3931788  57.7546384  75.9377899   2.0333748  59.3722930  87.2542659
   1.7136532  58.5188238  86.9617033   1.4867176  59.5871508  88.0100626
   5.8113655  62.0885371  90.9712165   6.0299665  63.0202478  90.9900199
   6.2239429  61.7293345  91.7566969  12.7317873  52.5953456  82.9587854
  11.9218601  52.2500541  83.3343100  13.4202290  52.2861000  83.5475465
  14.6608421  51.6731503  84.5812150  15.2139460  52.0926956  85.2402173
  14.8978508  50.7467251  84.6235106  10.6841520  57.6618576 100.3614914
  10.5838247  58.6112933 100.2927005  10.4663063  57.3336815  99.4890984
   9.8854592  54.9103501  76.9455592  10.7473756  55.2358400  77.2051409
  10.0704936  54.1234997  76.4328657   1.9022008  62.9925841  89.2235780
   1.2085479  62.5779794  88.7105735   2.6494999  63.0346378  88.6269199
  18.0387228  53.7832028  84.0890815  17.4585897  54.4416832  83.7068867
  17.7723161  52.9609373  83.6778232  16.4890795  53.1837086  86.2912135
  16.9890573  53.2953620  85.4826454  17.1326403  52.8798139  86.9312943
  10.5472791  61.0915715  99.1779976  10.0639872  61.8916075  99.3843865
  10.6333730  61.1023660  98.2247420   3.8158750  62.9244095  87.1001795
   3.7929438  63.0231782  86.1483678   4.1259387  63.7709246  87.4218961
   6.4746128  64.9820250  91.2148410   7.4289382  64.9504192  91.1478341
   6.2758652  64.5210874  92.0298636   7.0645510  63.5521366  93.7819207
   7.8838399  64.0465445  93.8054045   7.3382318  62.6353334  93.7536775
  16.8212106  55.9432118  83.1447163  15.9337961  56.2281769  82.9267358
  17.2366095  55.7825882  82.2974440  20.1726643  55.9678639  86.8601502
  20.9487033  56.4575092  87.1326119  19.4474777  56.3936694  87.3173372
  22.6099201  56.6806259  87.9175443  23.2043692  56.4401994  87.2068751
  22.6825785  55.9613389  88.5448979   4.8296357  70.5239869  88.2318608
   4.6950825  69.7640270  87.6656606   4.4128419  71.2480769  87.7647396
  15.9655320  65.7076793  77.2395183  16.6691170  65.9126796  77.8552839
  15.2417969  66.2753555  77.5044266  16.7953130  61.4586654  83.3597453
  16.7388332  61.9155206  82.5205085  17.3481473  60.6977339  83.1820296
  20.6057936  57.2476386  84.1847573  20.3494870  56.8473022  85.0155780
  19.9810804  57.9620180  84.0597712  24.9170274  59.9872459  86.6918864
  24.3569832  60.0565649  87.4650426  24.3113777  59.8113444  85.9718360
   7.9865483  71.4209186  88.4437050   7.8697867  72.3654619  88.3415741
   7.1657929  71.1182748  88.8322849  17.8742017  66.1459322  79.2893643
  18.7087621  65.7140521  79.1071118  17.7126360  65.9741336  80.2170537
  17.5287909  62.6491436  80.6549982  17.4736713  62.4835707  79.7138426
  16.9033965  63.3567468  80.8112172   2.3180424  57.8859500  94.4811404
   2.9639288  57.3758454  94.9698630   2.1097576  58.6228182  95.0554830
  14.8433817  64.9540347  99.9803545  15.7124976  65.1281000  99.6190180
  14.3640568  65.7734764  99.8579274  10.8384035  52.1499545  80.2335301
  10.8262705  53.0941384  80.3903572  11.7307457  51.9669690  79.9394762
   9.0119997  72.0737448  91.6592979   9.9147244  72.1061059  91.9759474
   8.7857367  71.1437899  91.6739314  10.7673599  70.8268435  88.3203057
   9.8169230  70.8270297  88.2067430  11.0706085  70.0801170  87.8039092
  14.6536154  48.7442321  84.4881237  13.8868550  48.1900808  84.6337920
  15.0646859  48.8164190  85.3495389   6.6577915  55.0327117  98.5786419
   7.5209377  54.6763922  98.7889743   6.0843326  54.6941012  99.2661823
  23.3115999  76.6156401  89.3210344  22.9734510  76.4997466  88.4330879
  24.1805767  76.2147567  89.3011351  19.1702814  78.4691878  85.3107235
  18.6067679  78.3781815  84.5423523  19.0555209  77.6491782  85.7909728
  23.7935782  77.7691253  95.2796550  23.7824422  77.3744051  94.4077054
  23.9556421  77.0357326  95.8730321  16.7167246  79.9643069  88.1491456
  17.5088538  79.6233894  87.7337755  16.9563896  80.0738044  89.0693609
  24.7502373  82.1362846  80.6221700  24.0990353  82.7216926  80.2355714
  25.5446736  82.6669040  80.6816738  18.6758000  79.2251983  81.0208835
  19.4488876  78.6780970  80.8821710  19.0283399  80.0896232  81.2323296
  20.5143043  80.5528365  94.2275734  20.2232909  81.4573996  94.1122400
  21.1500027  80.5944893  94.9419803  21.4399250  77.9305213  90.8177094
  22.0362822  77.7061236  90.1034056  21.4974221  77.1889959  91.4202541
  21.0124278  75.3844649  78.6527285  21.2649799  74.8626170  77.8910748
  20.0748837  75.2210794  78.7553968  26.2277638  79.8253277  81.1590685
  25.5923471  79.8987904  81.8711589  25.8975045  80.4146876  80.4809764
  20.7320567  77.2872755  80.8551659  20.6156825  76.6117658  81.5232744
  20.8422827  76.8005129  80.0383813  25.4732928  80.2389780  91.2225528
  25.1733651  81.1414819  91.1141335  25.1283987  79.9721964  92.0746680
  18.9245409  76.6903577  87.2562232  17.9995906  76.5579791  87.4639924
  19.1729823  77.4697797  87.7532174  16.2854220  76.3336851  88.0906021
  16.4146602  76.5871330  89.0045433  15.6051672  76.9264559  87.7710676
  20.4553708  87.0034101  84.1896495  20.3777737  87.9541926  84.2684976
  19.8515351  86.6579973  84.8471422  22.9470937  74.1761966  96.8457862
  22.1704271  74.7355886  96.8360727  23.5861500  74.6618749  97.3672732
  21.2017310  76.9847420  96.4075829  21.9431994  77.5232464  96.1310653
  20.4954295  77.6113708  96.5647381  26.6772649  79.1276560  95.0047991
  27.0856005  78.6858971  94.2602623  25.9549911  78.5529188  95.2582184
  23.0303719  74.0649167  92.3781548  23.8764915  74.4888580  92.5216197
  22.9702357  73.4082791  93.0720111  27.0001464  79.6877751  88.7600280
  26.3710326  79.8523465  88.0576347  26.6127126  80.1019360  89.5311244
  26.1803165  71.7253535  94.0362721  25.9364097  72.4795596  93.4996997
  26.4563095  72.1038883  94.8709968  28.1341627  78.2692148  92.7139987
  28.3458523  78.9123907  92.0374368  28.0871376  77.4354464  92.2461917
  22.5529426  79.4252159  86.0250365  23.0167771  79.7039862  85.2354987
  22.2886224  78.5235603  85.8423455  19.4453507  78.9723640  88.9630128
  20.0154864  79.4010909  88.3247612  20.0361619  78.6906225  89.6614314
  21.4898312  75.5475311  82.8339930  22.1922355  75.9996355  83.3013856
  21.1578940  74.9059130  83.4619823  19.9378673  74.1387068  97.2091139
  19.3077334  74.8203349  97.4426536  19.8314761  74.0270149  96.2644277
  15.2323646  73.8058864  88.1357063  14.4422700  74.0616392  87.6597174
  15.7234893  74.6207202  88.2409104  29.2487455  81.1464103  90.8862344
  30.0704899  80.7444290  90.6045026  29.2449858  81.0432337  91.8378460
  17.1838391  74.1703443  85.0940540  16.3869555  74.2822137  85.6124036
  16.9563983  74.5090095  84.2281431  23.0144059  80.6948146  93.0423055
  23.0788491  81.1568554  93.8781227  22.3054983  80.0645511  93.1705365
  13.5161349  74.0589354  90.5672054  13.7669387  74.9436364  90.8329630
  14.0520897  73.8793956  89.7947146  22.7292077  82.3616254  82.9102035
  22.5937751  83.2067790  83.3386883  23.2701889  82.5635531  82.1467969
  19.2159416  68.4407834  99.5716390  18.8226362  67.8874032 100.2464034
  20.0325557  68.7518412  99.9622908  16.1821474  79.8791692  83.4829960
  16.6945995  80.6734942  83.6335525  16.8344187  79.1817982  83.4163562
  17.9916359  82.9957448  85.5652713  18.1682987  83.9175413  85.3773697
  18.7873192  82.6815867  85.9947093  22.1327377  69.8565713  97.1636647
  22.8737091  70.4572866  97.0841109  22.3645300  69.1143351  96.6054689
  17.2768715  75.0422080  95.4414876  17.1622230  74.1407337  95.7421975
  16.4213233  75.2885777  95.0899693  24.3560553  82.9839820  97.0402377
  23.9124407  82.1976199  96.7223282  25.0177767  83.1718971  96.3746268
  19.1147674  84.5135622  91.5663056  19.6655099  84.3852685  90.7940050
  18.2759150  84.8130511  91.2157948  26.4541791  83.2642620  95.0683778
  26.4360266  84.0851501  94.5764048  27.3761711  83.1396695  95.2933920
  22.9114845  80.7786750  95.9107287  23.4443182  80.0175038  95.6806595
  22.3828926  80.4860402  96.6531441  26.0784540  65.8846816  91.4400928
  25.7348810  66.7748457  91.3640039  26.4463503  65.6948473  90.5770513
  14.1470391  78.2080346  84.2589531  14.9845613  78.6177354  84.0423238
  14.3248658  77.2679788  84.2289725  24.2767558  79.9072742  83.4226099
  23.7488919  79.1725502  83.1099336  23.7755061  80.6847419  83.1766067
  19.0086285  70.5692408  85.7832710  19.5830037  70.3467590  85.0505903
  19.5957268  70.6381103  86.5361312  19.3355873  72.5996869  79.8028596
  18.4993185  72.9371556  80.1237870  19.1960642  72.4645849  78.8655733
  22.4220158  77.7252952  76.4261072  21.5147220  77.4942206  76.6252221
  22.9191190  76.9290572  76.6135053  25.3288237  86.4350460  79.3457758
  24.6549936  86.7382156  79.9542716  25.7154059  87.2379540  78.9963215
  28.8327659  81.4372137  84.7176229  28.3789986  80.5963047  84.7741420
  28.2021626  82.0733535  85.0551010  27.2760598  83.2748633  85.6526048
  27.5683573  83.8353691  84.9338413  27.7859219  83.5677194  86.4079207
  14.1696562  75.5471061  84.9300264  13.9720962  74.9540422  84.2051331
  13.6143226  75.2423272  85.6476203  23.2984479  79.3674291  78.2873140
  22.8603909  78.6510150  77.8278778  24.0394920  79.5950406  77.7258232
  20.0885645  74.0571228  84.8085236  19.2753511  74.3565398  85.2150428
  20.5844640  73.6626916  85.5259718  22.2394223  84.0528985  86.7419501
  22.1970402  84.2789831  85.8128033  23.1556922  83.8192359  86.8905302
  25.6859857  74.5213052  93.6400130  26.0409245  74.7484525  94.4994596
  26.3331988  74.8531429  93.0177385  19.5799720  71.6289583  90.4246471
  20.2199100  71.4878342  89.7269434  18.7477251  71.3424097  90.0485073
  31.4426974  79.7108015  89.3560731  31.8763480  79.6183304  90.2043785
  32.1558554  79.6865515  88.7180747  20.3560024  80.9292014  86.5381464
  21.1500623  80.4342334  86.3364038  19.6451716  80.4009877  86.1749169
  25.1754869  83.3110109  90.8893831  25.2291891  83.8801045  91.6571547
  24.3069650  83.4811994  90.5247868  16.6642788  75.0735095  82.6141216
  15.7340376  75.0119551  82.8311178  16.7600260  74.5511048  81.8177857
  16.5828337  71.5989908  85.2019458  16.8435154  72.5135241  85.0928618
  17.4045509  71.1314351  85.3516071  18.0553262  73.0127665  92.3718282
  18.7276315  72.8045027  91.7230931  17.2283048  72.8149751  91.9323515
  32.3042523  79.7531716  91.8893616  32.4978413  80.6577526  92.1352891
  32.2043141  79.2939135  92.7232201  23.9578834  69.6389606  94.3883943
  23.3106749  70.3379556  94.2948420  24.7279849  70.0725750  94.7560191
  27.3657632  79.9038458  97.4634497  27.2143138  79.6749010  96.5464580
  27.3562311  80.8609060  97.4765842  24.1342968  77.4770371  92.4480763
  25.0635028  77.6281531  92.2749730  23.7133998  77.5654392  91.5929409
  22.9331300  81.5021036  90.2179301  22.7942386  81.1339820  91.0905239
  22.1445896  82.0168675  90.0463258  23.5279452  86.6030132  81.5604837
  23.7031208  86.1318175  82.3750460  22.8412240  87.2295898  81.7886098
  24.4836515  80.8802638  87.6068138  24.1486348  80.8403408  88.5025788
  23.9840461  80.2147354  87.1338549  18.4580759  76.2870268  93.1320720
  18.3200557  75.5550507  93.7332259  19.3685683  76.1979168  92.8504907
  21.0863060  75.9990228  92.6204399  21.7962678  75.3583420  92.5791018
  21.0432368  76.2503122  93.5430580  29.0749839  82.9357581  95.5410978
  29.0162385  82.2516801  94.8741561  29.4769357  83.6776571  95.0891604
  19.7991994  72.9855446  94.4400039  19.2629351  72.5346184  95.0921635
  19.2108702  73.1201354  93.6970503  18.0940537  89.7519495  88.3344697
  18.3337136  90.3838019  89.0123716  17.2509734  89.4007535  88.6210057
  19.2094253  72.4444097  77.0026502  18.3323719  72.3232898  76.6388749
  19.6852006  71.6530175  76.7505391  29.0767246  80.8997165  93.7724958
  28.1894025  80.5623087  93.8951357  29.6465797  80.1680196  94.0093723
  10.7296393  77.2321257  87.0968009  11.4167433  76.9182987  86.5089025
  10.5744522  78.1362621  86.8235261  15.5331115  72.1211453  91.5253033
  15.4489304  71.5137123  90.7903443  14.7113821  72.6120472  91.5262529
  22.6068399  85.5598617  90.7386201  22.5338571  86.3653589  91.2505506
  22.1645792  85.7590583  89.9134223  22.3958179  84.7970387  84.2489023
  21.6125701  85.3392067  84.3427247  23.0950924  85.3144367  84.6483264
  25.0667083  85.4585451  92.8944360  25.7795055  86.0932916  92.8220261
  24.5757111  85.5549317  92.0784362  20.1178996  83.2079895  93.7149931
  20.8188456  83.8416378  93.8679325  19.6474111  83.5494626  92.9545570
  28.2433392  81.5497845  81.9997838  28.5193236  81.4354439  82.9091712
  27.3737891  81.1515329  81.9610011  24.8787456  85.7984195  85.6430651
  25.0609851  84.9805851  86.1058404  25.7020442  86.0151888  85.2055541
  25.2129622  84.7252381  82.9045700  25.7417388  84.2144835  82.2915862
  25.4757841  84.4094911  83.7691233  23.9667855  76.5044313  98.0268518
  23.2908492  76.4038443  98.6970893  24.7895489  76.3483527  98.4904515
  15.7146714  82.7416250  90.6481033  16.3000151  81.9959938  90.7808938
  15.5171553  83.0520207  91.5317697  18.5685370  85.7767497  85.6643476
  17.8995745  86.2613625  85.1807516  18.4298239  86.0236718  86.5786854
  10.3064369  75.3121850  89.3685477  10.3448469  74.7785441  90.1622595
   9.8004662  74.7857056  88.7496454  22.7090638  87.8111241  92.2626134
  23.2608946  87.9742862  93.0275219  23.0496832  88.4015679  91.5906159
  17.6855131  70.1586391  92.8648019  17.7496458  71.0201221  92.4525417
  17.6222252  69.5460392  92.1320377  17.1607404  72.2309523  96.5121053
  17.7879443  71.8486600  97.1258577  16.3035323  72.0123725  96.8776746
  27.5601512  82.6372498  98.1174789  28.1041416  83.2502456  97.6229743
  26.9788357  83.1952077  98.6341802  13.9372947  74.0385952  82.4439408
  14.2326388  73.1296631  82.3906462  13.0360982  74.0173692  82.1220410
  25.8459025  85.7593216  89.2489816  25.7210165  84.9582956  88.7400762
  26.5038117  86.2539410  88.7603786  17.4667194  72.1141949  88.4266957
  16.7453779  72.7277916  88.2874430  18.2560449  72.6499714  88.3483603
  27.9093934  83.5602236  90.8769366  26.9624269  83.4407588  90.8047693
  28.2576707  82.6724734  90.9595628  20.2693507  69.4496375  94.7007608
  20.7927909  69.6958672  95.4633918  20.0505840  70.2816410  94.2810746
  15.6660788  71.7200050  82.5678733  15.3373494  70.8397429  82.3853839
  16.0200159  71.6647719  83.4555122  24.9140367  83.3554953  87.0773719
  24.7665330  82.4271660  87.2581289  25.7393861  83.3775043  86.5930794
  18.7802611  72.0073020  82.9354211  19.1198684  72.5358941  82.2132819
  19.2274732  72.3453426  83.7112777  28.5174489  84.1783511  88.1638591
  29.4421036  83.9726373  88.0263043  28.3489792  83.9299912  89.0727933
  21.4746052  70.3910070  92.3857279  21.1342873  69.5917883  92.7877959
  20.7685058  70.6911781  91.8134112  22.1262524  67.4759383  90.8384602
  22.9488593  67.0019861  90.7163492  22.3700588  68.2549867  91.3383288
  19.6501103  74.1678503  88.6476580  19.5045684  74.4818806  89.5400862
  19.1726306  74.7863404  88.0947479  21.5097486  71.1581051  88.6957470
  21.4959054  70.2622145  88.3589768  22.2269914  71.1651715  89.3295756
  23.3623616  71.5918392  90.7410597  23.1041394  72.5135462  90.7394928
  22.8308657  71.1948826  91.4311062  14.1246765  76.7083848  91.5864242
  13.5800233  77.4843656  91.7184516  15.0026115  77.0554652  91.4283363
  14.9112787  75.8353744  94.4794399  14.1694523  75.9836379  95.0659029
  14.5905531  76.0962010  93.6161148  22.8556449  85.3769722  94.2774789
  23.1643576  85.1318869  95.1497488  23.6531931  85.5816361  93.7893659
  22.8777062  87.5307632  86.5080165  22.4382052  87.0384011  87.2013022
  23.6285178  86.9880600  86.2672240  15.3569400  83.7219173  86.5104793
  16.1827420  83.4222945  86.1303437  15.0063452  82.9526795  86.9594582
  20.3250934  83.0745641  88.5802467  19.7030943  82.4116346  88.2804695
  20.9955801  83.1006773  87.8976115  13.5578006  81.6405499  87.4693727
  12.7209914  81.2127674  87.2877728  13.5301651  81.8337943  88.4064518
  20.3975461  71.5527429  98.1734973  20.4463617  72.4289552  97.7912742
  20.9397975  71.0104822  97.6006616  30.8830307  82.0968552  97.4536110
  30.0925851  82.0792691  96.9140609  30.6463661  82.6356846  98.2085146
  31.0028182  78.9461019  94.7668838  31.0526187  78.7811026  95.7084361
  30.8942105  78.0788278  94.3766719  19.8864441  81.6249564  82.0560927
  20.0352561  82.3085029  81.4027600  20.6930884  81.6054654  82.5710383
  22.6274750  72.3058801  94.9281331  21.7578059  72.5992368  94.6563920
  22.8634230  72.8899246  95.6488595  32.5046379  81.3657960  95.0110860
  32.2131187  81.7287941  95.8474321  31.8918510  80.6524968  94.8324192
  17.6417074  77.6514742  83.0621996  17.3963115  76.7477072  83.2602206
  17.8112988  77.6531892  82.1201474  25.3313783  68.5238418  92.4446752
  25.8495727  69.2599445  92.1193240  24.9768916  68.8302412  93.2793511
  16.9112721  73.3843100  80.5608158  16.2181966  73.4587455  79.9048194
  16.6664473  72.6203443  81.0829675  23.3859846  84.1197695  79.5272675
  22.8133813  84.7387882  79.0743147  23.9592640  84.6697057  80.0612597
  26.6057106  84.4034845  80.6581257  27.5387779  84.3380407  80.8614133
  26.5180319  85.2391112  80.1995790  23.6545337  79.5076254  98.3289384
  24.5748347  79.6854853  98.5229431  23.6194920  78.5632299  98.1769083
  21.9549562  73.3808484  76.8043612  21.0481017  73.0841597  76.8806326
  22.2325543  73.0838302  75.9377899  12.8727502  74.7014847  87.2542659
  12.5530286  73.8480156  86.9617033  12.3260930  74.9163426  88.0100626
  16.6507410  77.4177288  90.9712165  16.8693419  78.3494396  90.9900199
  17.0633183  77.0585263  91.7566969  21.5235275  72.9910494 100.3614914
  21.4232002  73.9404851 100.2927005  21.3056817  72.6628733  99.4890984
  20.7248346  70.2395419  76.9455592  21.5867510  70.5650317  77.2051409
  20.9098691  69.4526915  76.4328657  12.7415762  78.3217759  89.2235780
  12.0479234  77.9071712  88.7105735  13.4888753  78.3638295  88.6269199
  21.3866545  76.4207633  99.1779976  20.9033627  77.2207993  99.3843865
  21.4727484  76.4315578  98.2247420  14.6552505  78.2536013  87.1001795
  14.6323193  78.3523700  86.1483678  14.9653141  79.1001163  87.4218961
  17.3139883  80.3112168  91.2148410  18.2683136  80.2796110  91.1478341
  17.1152406  79.8502791  92.0298636  17.9039265  78.8813284  93.7819207
  18.7232154  79.3757362  93.8054045  18.1776072  77.9645252  93.7536775
  15.6690111  85.8531787  88.2318608  15.5344579  85.0932188  87.6656606
  15.2522174  86.5772687  87.7647396  26.8049074  81.0368711  77.2395183
  27.5084924  81.2418713  77.8552839  26.0811723  81.6045473  77.5044266
  18.8259237  86.7501104  88.4437050  18.7091621  87.6946537  88.3415741
  18.0051683  86.4474666  88.8322849  13.1574179  73.2151418  94.4811404
  13.8033043  72.7050372  94.9698630  12.9491330  73.9520099  95.0554830
  25.6827571  80.2832265  99.9803545  26.5518731  80.4572917  99.6190180
  25.2034323  81.1026682  99.8579274  21.6777789  67.4791462  80.2335301
  21.6656459  68.4233302  80.3903572  22.5701211  67.2961608  79.9394762
  19.8513751  87.4029366  91.6592979  20.7540998  87.4352976  91.9759474
  19.6251121  86.4729817  91.6739314  21.6067353  86.1560353  88.3203057
  20.6562984  86.1562214  88.2067430  21.9099839  85.4093087  87.8039092
  17.4971670  70.3619035  98.5786419  18.3603131  70.0055839  98.7889743
  16.9237081  70.0232929  99.2661823  37.3420047  91.9920891  89.3848820
  37.9798457  91.8727638  88.6812160  37.2240890  92.9401735  89.4436772
  34.1509753  91.9448319  89.3210344  33.8128265  91.8289384  88.4330879
  35.0199521  91.5439484  89.3011351  30.0096569  93.7983796  85.3107235
  29.4461434  93.7073732  84.5423523  29.8948964  92.9783700  85.7909728
  34.6329536  93.0983171  95.2796550  34.6218177  92.7035969  94.4077054
  34.7950176  92.3649243  95.8730321  27.5561001  95.2934987  88.1491456
  28.3482293  94.9525812  87.7337755  27.7957651  95.4029962  89.0693609
  35.5896128  97.4654763  80.6221700  34.9384107  98.0508844  80.2355714
  36.3840490  97.9960958  80.6816738  29.5151755  94.5543900  81.0208835
  30.2882631  94.0072887  80.8821710  29.8677154  95.4188150  81.2323296
  31.3536797  95.8820283  94.2275734  31.0626663  96.7865913  94.1122400
  31.9893782  95.9236810  94.9419803  32.2793004  93.2597131  90.8177094
  32.8756576  93.0353154  90.1034056  32.3367976  92.5181877  91.4202541
  37.0671393  95.1545195  81.1590685  36.4317226  95.2279822  81.8711589
  36.7368799  95.7438794  80.4809764  31.5714321  92.6164672  80.8551659
  31.4550579  91.9409576  81.5232744  31.6816581  92.1297046  80.0383813
  33.9145862  92.0774820  84.5598349  33.5504069  91.5505441  85.2711270
  34.7712978  91.6873289  84.3864834  36.3126682  95.5681698  91.2225528
  36.0127405  96.4706737  91.1141335  35.9677742  95.3013881  92.0746680
  29.7639164  92.0195495  87.2562232  28.8389660  91.8871709  87.4639924
  30.0123577  92.7989714  87.7532174  27.1247975  91.6628769  88.0906021
  27.2540356  91.9163247  89.0045433  26.4445426  92.2556477  87.7710676
  31.2947462 102.3326018  84.1896495  31.2171492 103.2833844  84.2684976
  30.6909106 101.9871891  84.8471422  33.7864692  89.5053884  96.8457862
  33.0098026  90.0647804  96.8360727  34.4255255  89.9910667  97.3672732
  32.0411064  92.3139337  96.4075829  32.7825749  92.8524381  96.1310653
  31.3348050  92.9405626  96.5647381  37.5166404  94.4568478  95.0047991
  37.9249760  94.0150888  94.2602623  36.7943665  93.8821105  95.2582184
  33.8697474  89.3941085  92.3781548  34.7158669  89.8180498  92.5216197
  33.8096112  88.7374709  93.0720111  37.8395218  95.0169668  88.7600280
  37.2104081  95.1815383  88.0576347  37.4520881  95.4311278  89.5311244
  41.7184450  95.9524106  86.1144643  41.0335489  96.3323008  85.5641677
  41.8028300  96.5619433  86.8476591  37.0196919  87.0545453  94.0362721
  36.7757851  87.8087513  93.4996997  37.2956850  87.4330800  94.8709968
  38.9735382  93.5984065  92.7139987  39.1852277  94.2415825  92.0374368
  38.9265130  92.7646382  92.2461917  33.3923180  94.7544076  86.0250365
  33.8561526  95.0331779  85.2354987  33.1279978  93.8527521  85.8423455
  30.2847261  94.3015558  88.9630128  30.8548618  94.7302826  88.3247612
  30.8755373  94.0198143  89.6614314  30.7772428  89.4678985  97.2091139
  30.1471089  90.1495266  97.4426536  30.6708516  89.3562067  96.2644277
  26.0717400  89.1350781  88.1357063  25.2816454  89.3908310  87.6597174
  26.5628648  89.9499119  88.2409104  40.0881210  96.4756021  90.8862344
  40.9098654  96.0736208  90.6045026  40.0843613  96.3724255  91.8378460
  28.0232146  89.4995361  85.0940540  27.2263309  89.6114055  85.6124036
  27.7957738  89.8382013  84.2281431  33.8537813  96.0240064  93.0423055
  33.9182246  96.4860471  93.8781227  33.1448737  95.3937429  93.1705365
  24.3555103  89.3881272  90.5672054  24.6063142  90.2728282  90.8329630
  24.8914652  89.2085873  89.7947146  33.5685831  97.6908171  82.9102035
  33.4331506  98.5359707  83.3386883  34.1095644  97.8927449  82.1467969
  30.0553171  83.7699751  99.5716390  29.6620116  83.2165950 100.2464034
  30.8719311  84.0810330  99.9622908  27.0215228  95.2083609  83.4829960
  27.5339749  96.0026860  83.6335525  27.6737941  94.5109900  83.4163562
  28.8310113  98.3249366  85.5652713  29.0076741  99.2467330  85.3773697
  29.6266947  98.0107785  85.9947093  32.9721132  85.1857630  97.1636647
  33.7130845  85.7864784  97.0841109  33.2039054  84.4435268  96.6054689
  28.1162470  90.3713998  95.4414876  28.0015985  89.4699255  95.7421975
  27.2606987  90.6177694  95.0899693  35.1954307  98.3131738  97.0402377
  34.7518162  97.5268117  96.7223282  35.8571521  98.5010888  96.3746268
  29.9541429  99.8427540  91.5663056  30.5048854  99.7144603  90.7940050
  29.1152904 100.1422429  91.2157948  37.2935545  98.5934538  95.0683778
  37.2754021  99.4143419  94.5764048  38.2155466  98.4688613  95.2933920
  33.7508600  96.1078667  95.9107287  34.2836936  95.3466956  95.6806595
  33.2222681  95.8152319  96.6531441  24.9864145  93.5372264  84.2589531
  25.8239367  93.9469272  84.0423238  25.1642413  92.5971706  84.2289725
  36.8828577  91.2047344  79.9473364  36.3675201  91.9751949  80.1861751
  36.6105886  90.5312481  80.5706425  32.2417721  83.6682118  88.4116343
  33.1070718  83.4724927  88.0522233  32.3095230  83.4392470  89.3385700
  41.8562851  93.9579699  81.8826537  41.0792294  93.6190859  81.4381699
  42.5354332  93.9632322  81.2081502  35.1161312  95.2364660  83.4226099
  34.5882674  94.5017419  83.1099336  34.6148815  96.0139336  83.1766067
  40.0954158  93.4313680  88.5393145  39.4377833  94.1212942  88.6273274
  40.8994558  93.8210112  88.8827131  38.9059617  91.7858053  86.5897087
  39.4191499  92.4188045  87.0918797  39.5560841  91.1859249  86.2240447
  33.2613913  93.0544870  76.4261072  32.3540974  92.8234124  76.6252221
  33.7584945  92.2582489  76.6135053  36.1681991 101.7642377  79.3457758
  35.4943690 102.0674074  79.9542716  36.5547813 102.5671458  78.9963215
  35.3840448  89.2607509  88.8355427  34.4663009  89.4822456  88.6777115
  35.8000592  89.3353819  87.9767135  34.4402146  93.1557465  80.9485062
  33.5313365  92.8716498  81.0457532  34.4697230  93.5756544  80.0888369
  39.6721413  96.7664054  84.7176229  39.2183740  95.9254964  84.7741420
  39.0415380  97.4025453  85.0551010  38.1154353  98.6040551  85.6526048
  38.4077327  99.1645608  84.9338413  38.6252973  98.8969112  86.4079207
  25.0090316  90.8762979  84.9300264  24.8114716  90.2832340  84.2051331
  24.4536980  90.5715189  85.6476203  32.9887040  90.7686086  87.0494857
  33.0435650  89.8159922  86.9737334  32.1778242  90.9245525  87.5336156
  34.1378234  94.6966209  78.2873140  33.6997664  93.9802068  77.8278778
  34.8788675  94.9242323  77.7258232  30.9279400  89.3863145  84.8085236
  30.1147265  89.6857316  85.2150428  31.4238394  88.9918834  85.5259718
  33.0787978  99.3820902  86.7419501  33.0364157  99.6081749  85.8128033
  33.9950677  99.1484277  86.8905302  36.5253612  89.8504970  93.6400130
  36.8802999  90.0776443  94.4994596  37.1725743  90.1823347  93.0177385
  42.2551349  92.9723406  84.3449459  42.1169247  93.1625002  83.4170648
  41.8987567  93.7342789  84.8017510  30.4193475  86.9581501  90.4246471
  31.0592854  86.8170260  89.7269434  29.5871005  86.6716014  90.0485073
  42.2820728  95.0399933  89.3560731  42.7157235  94.9475222  90.2043785
  42.9952309  95.0157433  88.7180747  31.1953779  96.2583931  86.5381464
  31.9894377  95.7634251  86.3364038  30.4845471  95.7301794  86.1749169
  36.0148623  98.6402027  90.8893831  36.0685645  99.2092963  91.6571547
  35.1463404  98.8103912  90.5247868  27.5036542  90.4027013  82.6141216
  26.5734130  90.3411469  82.8311178  27.5994014  89.8802966  81.8177857
  27.4222091  86.9281826  85.2019458  27.6828908  87.8427159  85.0928618
  28.2439263  86.4606268  85.3516071  28.8947016  88.3419583  92.3718282
  29.5670070  88.1336945  91.7230931  28.0676803  88.1441669  91.9323515
  43.1436278  95.0823633  91.8893616  43.3372168  95.9869444  92.1352891
  43.0436896  94.6231052  92.7232201  34.7972588  84.9681524  94.3883943
  34.1500503  85.6671474  94.2948420  35.5673604  85.4017668  94.7560191
  38.2051386  95.2330376  97.4634497  38.0536893  95.0040928  96.5464580
  38.1956066  96.1900978  97.4765842  34.9736723  92.8062289  92.4480763
  35.9028783  92.9573448  92.2749730  34.5527753  92.8946310  91.5929409
  33.7725055  96.8312953  90.2179301  33.6336140  96.4631738  91.0905239
  32.9839651  97.3460593  90.0463258  34.3673207 101.9322050  81.5604837
  34.5424962 101.4610093  82.3750460  33.6805995 102.5587816  81.7886098
  35.3230270  96.2094556  87.6068138  34.9880102  96.1695326  88.5025788
  34.8234215  95.5439272  87.1338549  29.2974514  91.6162186  93.1320720
  29.1594312  90.8842425  93.7332259  30.2079437  91.5271086  92.8504907
  38.2589461  93.5550590  77.8805198  37.6418632  92.8297418  77.7838251
  37.7905950  94.3159951  77.5372272  31.9256814  91.3282145  92.6204399
  32.6356433  90.6875338  92.5791018  31.8826123  91.5795040  93.5430580
  39.9143593  98.2649499  95.5410978  39.8556139  97.5808719  94.8741561
  40.3163111  99.0068489  95.0891604  30.6385748  88.3147363  94.4400039
  30.1023105  87.8638102  95.0921635  30.0502457  88.4493272  93.6970503
  28.9334292 105.0811412  88.3344697  29.1730890 105.7129937  89.0123716
  28.0903488 104.7299453  88.6210057  39.9161000  96.2289083  93.7724958
  39.0287779  95.8915004  93.8951357  40.4859551  95.4972114  94.0093723
  21.5690147  92.5613174  87.0968009  22.2561187  92.2474904  86.5089025
  21.4138276  93.4654539  86.8235261  26.3724870  87.4503371  91.5253033
  26.2883058  86.8429040  90.7903443  25.5507576  87.9412389  91.5262529
  33.4462154 100.8890535  90.7386201  33.3732325 101.6945506  91.2505506
  33.0039547 101.0882501  89.9134223  33.2351933 100.1262305  84.2489023
  32.4519455 100.6683985  84.3427247  33.9344678 100.6436285  84.6483264
  35.9060837 100.7877369  92.8944360  36.6188809 101.4224834  92.8220261
  35.4150866 100.8841235  92.0784362  37.6278364  94.6928622  84.4661652
  36.6934643  94.8130084  84.2966356  37.8055033  93.7901088  84.2021661
  33.1283552  88.0774317  86.6194913  32.7581340  87.5245358  87.3075818
  33.6242645  87.4732451  86.0669913  30.9572751  98.5371812  93.7149931
  31.6582210  99.1708295  93.8679325  30.4867866  98.8786544  92.9545570
  39.0827147  96.8789762  81.9997838  39.3586990  96.7646357  82.9091712
  38.2131645  96.4807247  81.9610011  38.7574037  91.0916420  91.5402481
  38.1045487  91.3392327  90.8854934  39.1354417  90.2780558  91.2064958
  35.7181211 101.1276113  85.6430651  35.9003605 100.3097769  86.1058404
  36.5414197 101.3443805  85.2055541  36.0523376 100.0544298  82.9045700
  36.5811143  99.5436753  82.2915862  36.3151596  99.7386828  83.7691233
  34.8061610  91.8336231  98.0268518  34.1302247  91.7330360  98.6970893
  35.6289244  91.6775445  98.4904515  26.5540469  98.0708167  90.6481033
  27.1393906  97.3251855  90.7808938  26.3565307  98.3812124  91.5317697
  29.4079124 101.1059415  85.6643476  28.7389499 101.5905543  85.1807516
  29.2691994 101.3528635  86.5786854  21.1458124  90.6413768  89.3685477
  21.1842223  90.1077358  90.1622595  20.6398416  90.1148973  88.7496454
  33.5484393 103.1403158  92.2626134  34.1002701 103.3034780  93.0275219
  33.8890586 103.7307596  91.5906159  28.5248886  85.4878308  92.8648019
  28.5890212  86.3493139  92.4525417  28.4616006  84.8752310  92.1320377
  28.0001158  87.5601441  96.5121053  28.6273197  87.1778518  97.1258577
  27.1429077  87.3415643  96.8776746  38.3995267  97.9664416  98.1174789
  38.9435171  98.5794374  97.6229743  37.8182112  98.5243994  98.6341802
  24.7766701  89.3677870  82.4439408  25.0720142  88.4588548  82.3906462
  23.8754737  89.3465609  82.1220410  36.6852780 101.0885134  89.2489816
  36.5603919 100.2874874  88.7400762  37.3431871 101.5831327  88.7603786
  28.3060948  87.4433866  88.4266957  27.5847534  88.0569834  88.2874430
  29.0954204  87.9791631  88.3483603  38.7487688  98.8894154  90.8769366
  37.8018024  98.7699505  90.8047693  39.0970461  98.0016652  90.9595628
  31.1087262  84.7788293  94.7007608  31.6321663  85.0250589  95.4633918
  30.8899595  85.6108328  94.2810746  26.5054543  87.0491967  82.5678733
  26.1767249  86.1689346  82.3853839  26.8593913  86.9939636  83.4555122
  35.7534122  98.6846870  87.0773719  35.6059084  97.7563578  87.2581289
  36.5787615  98.7066961  86.5930794  39.3568243  99.5075429  88.1638591
  40.2814791  99.3018290  88.0263043  39.1883547  99.2591830  89.0727933
  32.3139807  85.7201988  92.3857279  31.9736627  84.9209801  92.7877959
  31.6078813  86.0203699  91.8134112  32.9656279  82.8051300  90.8384602
  33.7882348  82.3311779  90.7163492  33.2094342  83.5841784  91.3383288
  30.4894857  89.4970421  88.6476580  30.3439438  89.8110724  89.5400862
  30.0120061  90.1155321  88.0947479  32.3491240  86.4872969  88.6957470
  32.3352809  85.5914062  88.3589768  33.0663668  86.4943633  89.3295756
  34.2017371  86.9210309  90.7410597  33.9435149  87.8427380  90.7394928
  33.6702411  86.5240744  91.4311062  39.1463560 100.0261096  83.5200683
  39.3200437  99.4607519  82.7674535  39.6392451 100.8261991  83.3380173
  24.9640519  92.0375765  91.5864242  24.4193988  92.8135573  91.7184516
  25.8419869  92.3846570  91.4283363  40.1338732  99.3427861  80.6197581
  40.8289637  99.9634553  80.8384896  40.4761882  98.4923212  80.8949959
  25.7506541  91.1645662  94.4794399  25.0088277  91.3128297  95.0659029
  25.4299286  91.4253927  93.6161148  42.0330155  96.7927566  82.1484912
  42.5581479  97.1314839  81.4234232  41.9452508  95.8574582  81.9648047
  33.6950204 100.7061640  94.2774789  34.0037330 100.4610787  95.1497488
  34.4925686 100.9108278  93.7893659  33.7170816 102.8599550  86.5080165
  33.2775806 102.3675928  87.2013022  34.4678933 102.3172517  86.2672240
  26.1963155  99.0511090  86.5104793  27.0221175  98.7514862  86.1303437
  25.8457207  98.2818713  86.9594582  31.1644688  98.4037559  88.5802467
  30.5424697  97.7408264  88.2804695  31.8349555  98.4298691  87.8976115
  24.3971760  96.9697417  87.4693727  23.5603668  96.5419591  87.2877728
  24.3695405  97.1629860  88.4064518  31.2369216  86.8819347  98.1734973
  31.2857371  87.7581470  97.7912742  31.7791730  86.3396740  97.6006616
  41.7224061  97.4260470  97.4536110  40.9319605  97.4084609  96.9140609
  41.4857416  97.9648764  98.2085146  41.8421936  94.2752936  94.7668838
  41.8919941  94.1102944  95.7084361  41.7335860  93.4080195  94.3766719
  30.7258195  96.9541482  82.0560927  30.8746315  97.6376946  81.4027600
  31.5324639  96.9346572  82.5710383  39.1325699  90.2583864  96.0828145
  40.0335562  90.1190329  95.7912143  39.2073673  90.4238319  97.0226323
  33.4668504  87.6350719  94.9281331  32.5971813  87.9284285  94.6563920
  33.7027984  88.2191164  95.6488595  43.3440133  96.6949878  95.0110860
  43.0524941  97.0579858  95.8474321  42.7312264  95.9816886  94.8324192
  44.5435816  94.2602758  87.5313430  45.3782707  94.6992562  87.6950991
  44.6794944  93.7841411  86.7121676  41.5927321  91.8182492  93.4790918
  42.0681443  92.0110139  92.6709769  40.6692887  91.8741678  93.2334302
  28.4810828  92.9806660  83.0621996  28.2356870  92.0768990  83.2602206
  28.6506743  92.9823810  82.1201474  36.1707538  83.8530336  92.4446752
  36.6889482  84.5891363  92.1193240  35.8162671  84.1594329  93.2793511
  27.7506476  88.7135017  80.5608158  27.0575721  88.7879372  79.9048194
  27.5058227  87.9495361  81.0829675  34.2253601  99.4489612  79.5272675
  33.6527568 100.0679800  79.0743147  34.7986394  99.9988974  80.0612597
  37.4450860  99.7326763  80.6581257  38.3781534  99.6672324  80.8614133
  37.3574073 100.5683029  80.1995790  40.0738877  99.0492633  77.6185205
  39.9952509  98.7152497  78.5120962  40.8948544  99.5414401  77.6176677
  42.7717068  91.9154372  90.8261523  42.7393388  90.9770373  91.0121207
  43.3817692  91.9938409  90.0927348  34.6100399  90.7850425  76.8688727
  35.5559504  90.6556633  76.9377145  34.2314644  90.0465087  77.3458155
  34.4939092  94.8368171  98.3289384  35.4142101  95.0146770  98.5229431
  34.4588675  93.8924217  98.1769083  23.7121257  90.0306765  87.2542659
  23.3924041  89.1772073  86.9617033  23.1654685  90.2455343  88.0100626
  27.4901164  92.7469206  90.9712165  27.7087174  93.6786314  90.9900199
  27.9026938  92.3877180  91.7566969  32.3629029  88.3202412 100.3614914
  32.2625756  89.2696769 100.2927005  32.1450572  87.9920651  99.4890984
  23.5809517  93.6509677  89.2235780  22.8872988  93.2363629  88.7105735
  24.3282508  93.6930213  88.6269199  32.2260300  91.7499551  99.1779976
  31.7427381  92.5499911  99.3843865  32.3121239  91.7607496  98.2247420
  25.4946259  93.5827930  87.1001795  25.4716947  93.6815618  86.1483678
  25.8046896  94.4293081  87.4218961  28.1533637  95.6404085  91.2148410
  29.1076891  95.6088028  91.1478341  27.9546161  95.1794709  92.0298636
  28.7433019  94.2105201  93.7819207  29.5625908  94.7049280  93.8054045
  29.0169827  93.2937170  93.7536775  26.5083866 101.1823705  88.2318608
  26.3738334 100.4224106  87.6656606  26.0915928 101.9064605  87.7647396
  37.6442829  96.3660628  77.2395183  38.3478679  96.5710631  77.8552839
  36.9205478  96.9337390  77.5044266  38.4740639  92.1170490  83.3597453
  38.4175840  92.5739041  82.5205085  39.0268982  91.3561174  83.1820296
  29.6652992 102.0793022  88.4437050  29.5485376 103.0238454  88.3415741
  28.8445438 101.7766583  88.8322849  39.5529526  96.8043158  79.2893643
  40.3875130  96.3724356  79.1071118  39.3913869  96.6325171  80.2170537
  39.2075418  93.3075271  80.6549982  39.1524222  93.1419542  79.7138426
  38.5821474  94.0151304  80.8112172  23.9967933  88.5443335  94.4811404
  24.6426797  88.0342289  94.9698630  23.7885085  89.2812017  95.0554830
  36.5221326  95.6124183  99.9803545  37.3912485  95.7864835  99.6190180
  36.0428077  96.4318600  99.8579274  30.6907506 102.7321284  91.6592979
  31.5934753 102.7644894  91.9759474  30.4644876 101.8021735  91.6739314
  32.4461108 101.4852270  88.3203057  31.4956739 101.4854132  88.2067430
  32.7493594 100.7385005  87.8039092  28.3365424  85.6910952  98.5786419
  29.1996886  85.3347757  98.7889743  27.7630835  85.3524847  99.2661823
  48.1813801 107.3212809  89.3848820  48.8192211 107.2019556  88.6812160
  48.0634644 108.2693653  89.4436772  44.9903508 107.2740237  89.3210344
  44.6522019 107.1581301  88.4330879  45.8593276 106.8731402  89.3011351
  40.8490323 109.1275713  85.3107235  40.2855188 109.0365650  84.5423523
  40.7342718 108.3075618  85.7909728  45.4723291 108.4275089  95.2796550
  45.4611931 108.0327887  94.4077054  45.6343930 107.6941161  95.8730321
  38.3954755 110.6226905  88.1491456  39.1876047 110.2817729  87.7337755
  38.6351405 110.7321880  89.0693609  46.4289882 112.7946681  80.6221700
  45.7777862 113.3800761  80.2355714  47.2234245 113.3252876  80.6816738
  40.3545509 109.8835818  81.0208835  41.1276385 109.3364805  80.8821710
  40.7070908 110.7480067  81.2323296  42.1930552 111.2112200  94.2275734
  41.9020418 112.1157831  94.1122400  42.8287536 111.2528728  94.9419803
  43.1186759 108.5889049  90.8177094  43.7150331 108.3645071  90.1034056
  43.1761730 107.8473794  91.4202541  42.6911787 106.0428484  78.6527285
  42.9437308 105.5210005  77.8910748  41.7536346 105.8794630  78.7553968
  47.7355070 105.0464263  86.4602028  48.5218159 104.6283686  86.1092445
  47.9993774 105.9510355  86.6283676  47.9065147 110.4837113  81.1590685
  47.2710980 110.5571739  81.8711589  47.5762554 111.0730712  80.4809764
  53.1363497 104.9839496  87.3635006  53.8688669 104.4138713  87.5972836
  52.3802853 104.5961096  87.8041512  42.4108076 107.9456590  80.8551659
  42.2944334 107.2701493  81.5232744  42.5210336 107.4588964  80.0383813
  44.7539617 107.4066737  84.5598349  44.3897824 106.8797358  85.2711270
  45.6106733 107.0165206  84.3864834  50.6588917  98.6961070  91.8229615
  50.3272242  99.5656481  91.5990830  50.0634531  98.3797354  92.5023645
  44.3945104 102.4356637  79.5559697  44.5619506 103.3036873  79.9230168
  44.2042273 102.5983919  78.6320986  47.1520437 110.8973616  91.2225528
  46.8521160 111.7998655  91.1141335  46.8071496 110.6305799  92.0746680
  40.6032918 107.3487413  87.2562232  39.6783415 107.2163627  87.4639924
  40.8517331 108.1281632  87.7532174  50.5517581 103.4156156  88.9022965
  49.6434458 103.3471564  88.6081726  50.5005176 103.8928101  89.7304790
  44.3734325 104.8914294  80.5406364  44.2533950 105.3371345  81.3791844
  43.6786913 105.2399612  79.9819902  37.9641729 106.9920686  88.0906021
  38.0934110 107.2455165  89.0045433  37.2839181 107.5848394  87.7710676
  42.1341217 117.6617936  84.1896495  42.0565246 118.6125761  84.2684976
  41.5302860 117.3163809  84.8471422  44.6258446 104.8345802  96.8457862
  43.8491780 105.3939722  96.8360727  45.2649009 105.3202585  97.3672732
  52.4179227 101.6172594  90.6800839  51.7753607 101.9105128  90.0340633
  51.9134156 101.5025515  91.4854035  50.0719391 105.3635768  81.3686698
  50.9837247 105.5963154  81.1934396  49.5629038 105.9472812  80.8061777
  42.8804819 107.6431255  96.4075829  43.6219503 108.1816299  96.1310653
  42.1741804 108.2697544  96.5647381  48.3560158 109.7860395  95.0047991
  48.7643514 109.3442806  94.2602623  47.6337420 109.2113023  95.2582184
  44.7091228 104.7233002  92.3781548  45.5552424 105.1472416  92.5216197
  44.6489866 104.0666627  93.0720111  48.6788973 110.3461586  88.7600280
  48.0497835 110.5107300  88.0576347  48.2914635 110.7603196  89.5311244
  52.5578205 111.2816024  86.1144643  51.8729243 111.6614925  85.5641677
  52.6422054 111.8911351  86.8476591  47.8590674 102.3837371  94.0362721
  47.6151606 103.1379431  93.4996997  48.1350604 102.7622718  94.8709968
  49.8129136 108.9275983  92.7139987  50.0246032 109.5707743  92.0374368
  49.7658885 108.0938299  92.2461917  47.4155365 101.5393804  89.6176559
  46.5539844 101.8375057  89.9093297  47.4417800 101.7564202  88.6857592
  44.2316935 110.0835994  86.0250365  44.6955280 110.3623697  85.2354987
  43.9673733 109.1819439  85.8423455  41.1241016 109.6307476  88.9630128
  41.6942373 110.0594744  88.3247612  41.7149128 109.3490060  89.6614314
  43.1685821 106.2059147  82.8339930  43.8709864 106.6580190  83.3013856
  42.8366449 105.5642965  83.4619823  41.6166182 104.7970903  97.2091139
  40.9864843 105.4787184  97.4426536  41.5102270 104.6853985  96.2644277
  36.9111155 104.4642699  88.1357063  36.1210209 104.7200228  87.6597174
  37.4022402 105.2791037  88.2409104  50.9274964 111.8047938  90.8862344
  51.7492408 111.4028126  90.6045026  50.9237367 111.7016173  91.8378460
  38.8625900 104.8287278  85.0940540  38.0657064 104.9405973  85.6124036
  38.6351492 105.1673931  84.2281431  44.6931568 111.3531982  93.0423055
  44.7576000 111.8152389  93.8781227  43.9842492 110.7229347  93.1705365
  35.1948858 104.7173190  90.5672054  35.4456896 105.6020200  90.8329630
  35.7308406 104.5377791  89.7947146  59.0180957 108.1486687  87.2347316
  58.2644666 107.5794085  87.0791320  59.1528499 108.1149351  88.1817950
  44.4079586 113.0200089  82.9102035  44.2725260 113.8651625  83.3386883
  44.9489398 113.2219367  82.1467969  40.8946925  99.0991669  99.5716390
  40.5013871  98.5457868 100.2464034  41.7113065  99.4102247  99.9622908
  37.8608983 110.5375527  83.4829960  38.3733503 111.3318777  83.6335525
  38.5131696 109.8401818  83.4163562  39.6703868 113.6541283  85.5652713
  39.8470496 114.5759248  85.3773697  40.4660701 113.3399703  85.9947093
  43.8114886 100.5149548  97.1636647  44.5524600 101.1156701  97.0841109
  44.0432809  99.7727186  96.6054689  38.9556224 105.7005915  95.4414876
  38.8409739 104.7991173  95.7421975  38.1000742 105.9469612  95.0899693
  46.0348062 113.6423656  97.0402377  45.5911916 112.8560034  96.7223282
  46.6965275 113.8302806  96.3746268  40.7935183 115.1719457  91.5663056
  41.3442608 115.0436521  90.7940050  39.9546659 115.4714346  91.2157948
  48.1329300 113.9226456  95.0683778  48.1147775 114.7435337  94.5764048
  49.0549220 113.7980531  95.2933920  44.5902354 111.4370585  95.9107287
  45.1230691 110.6758873  95.6806595  44.0616435 111.1444237  96.6531441
  47.7572049  96.5430651  91.4400928  47.4136318  97.4332293  91.3640039
  48.1251012  96.3532309  90.5770513  35.8257900 108.8664181  84.2589531
  36.6633122 109.2761190  84.0423238  36.0036167 107.9263624  84.2289725
  47.7222332 106.5339262  79.9473364  47.2068955 107.3043867  80.1861751
  47.4499640 105.8604398  80.5706425  45.3069443 101.3788963  85.0058602
  44.4511039 100.9895813  84.8264241  45.7196395 101.4580924  84.1458387
  46.8368589  98.9135306  89.4050162  46.3333385  98.8765441  88.5917967
  47.1299196  99.8228049  89.4646818  43.0811475  98.9974036  88.4116343
  43.9464472  98.8016845  88.0522233  43.1488984  98.7684388  89.3385700
  52.6956606 109.2871617  81.8826537  51.9186049 108.9482776  81.4381699
  53.3748087 109.2924240  81.2081502  47.5108635 104.4066354  81.7733145
  47.2058771 104.7212503  82.6243288  48.4639077 104.4847774  81.8160478
  45.9555067 110.5656578  83.4226099  45.4276428 109.8309337  83.1099336
  45.4542570 111.3431254  83.1766067  50.9347913 108.7605598  88.5393145
  50.2771587 109.4504859  88.6273274  51.7388312 109.1502030  88.8827131
  40.6873794 101.2276244  85.7832710  41.2617546 101.0051425  85.0505903
  41.2744777 101.2964938  86.5361312  49.7453372 107.1149971  86.5897087
  50.2585253 107.7479963  87.0918797  50.3954596 106.5151166  86.2240447
  41.0143382 103.2580705  79.8028596  40.1780694 103.5955391  80.1237870
  40.8748151 103.1229685  78.8655733  42.9896462  98.1017493  84.5107780
  42.3360874  97.7866510  83.8864394  42.9476936  97.4793233  85.2367603
  44.1007667 108.3836788  76.4261072  43.1934729 108.1526041  76.6252221
  44.5978699 107.5874407  76.6135053  47.0075746 117.0934295  79.3457758
  46.3337445 117.3965992  79.9542716  47.3941568 117.8963375  78.9963215
  46.2234203 104.5899426  88.8355427  45.3056764 104.8114373  88.6777115
  46.6394346 104.6645737  87.9767135  47.0069250 105.9890842  83.9658108
  47.7541069 106.5012239  83.6565230  47.2760840 105.6674895  84.8262501
  45.2795900 108.4849383  80.9485062  44.3707120 108.2008415  81.0457532
  45.3090984 108.9048461  80.0888369  50.5115168 112.0955972  84.7176229
  50.0577495 111.2546882  84.7741420  49.8809135 112.7317371  85.0551010
  49.4548087 103.0247958  85.9476897  48.7170844 102.5125344  86.2787139
  49.7074861 102.5848340  85.1360174  48.9548107 113.9332469  85.6526048
  49.2471081 114.4937526  84.9338413  49.4646728 114.2261030  86.4079207
  49.5559715  95.8024210  86.5418666  49.8618592  94.9421574  86.2544581
  50.2812320  96.3941830  86.3417660  35.8484071 106.2054897  84.9300264
  35.6508471 105.6124257  84.2051331  35.2930735 105.9007107  85.6476203
  43.8280794 106.0978003  87.0494857  43.8829404 105.1451840  86.9737334
  43.0171997 106.2537442  87.5336156  44.9771988 110.0258126  78.2873140
  44.5391418 109.3093985  77.8278778  45.7182429 110.2534241  77.7258232
  41.7673154 104.7155063  84.8085236  40.9541020 105.0149234  85.2150428
  42.2632149 104.3210752  85.5259718  43.9181732 114.7112820  86.7419501
  43.8757911 114.9373666  85.8128033  44.8344431 114.4776195  86.8905302
  47.3647366 105.1796887  93.6400130  47.7196754 105.4068361  94.4994596
  48.0119497 105.5115264  93.0177385  53.0945103 108.3015323  84.3449459
  52.9563002 108.4916919  83.4170648  52.7381322 109.0634706  84.8017510
  41.2587229 102.2873419  90.4246471  41.8986608 102.1462178  89.7269434
  40.4264760 102.0007932  90.0485073  53.1214483 110.3691850  89.3560731
  53.5550989 110.2767139  90.2043785  53.8346063 110.3449351  88.7180747
  42.0347533 111.5875849  86.5381464  42.8288132 111.0926169  86.3364038
  41.3239225 111.0593712  86.1749169  46.8542378 113.9693944  90.8893831
  46.9079400 114.5384881  91.6571547  45.9857159 114.1395830  90.5247868
  38.3430297 105.7318931  82.6141216  37.4127885 105.6703386  82.8311178
  38.4387769 105.2094883  81.8177857  38.2615846 102.2573744  85.2019458
  38.5222663 103.1719077  85.0928618  39.0833018 101.7898186  85.3516071
  39.7340771 103.6711501  92.3718282  40.4063824 103.4628863  91.7230931
  38.9070557 103.4733587  91.9323515  53.9830032 110.4115551  91.8893616
  54.1765922 111.3161362  92.1352891  53.8830650 109.9522970  92.7232201
  45.6366343 100.2973442  94.3883943  44.9894258 100.9963391  94.2948420
  46.4067358 100.7309586  94.7560191  49.0445141 110.5622294  97.4634497
  48.8930647 110.3332845  96.5464580  49.0349820 111.5192895  97.4765842
  45.8130477 108.1354207  92.4480763  46.7422537 108.2865366  92.2749730
  45.3921507 108.2238227  91.5929409  44.6118809 112.1604871  90.2179301
  44.4729895 111.7923655  91.0905239  43.8233405 112.6752510  90.0463258
  45.2066961 117.2613967  81.5604837  45.3818717 116.7902011  82.3750460
  44.5199749 117.8879734  81.7886098  46.1624024 111.5386474  87.6068138
  45.8273857 111.4987244  88.5025788  45.6627970 110.8731190  87.1338549
  40.1368268 106.9454104  93.1320720  39.9988066 106.2134342  93.7332259
  41.0473192 106.8563004  92.8504907  49.0983216 108.8842508  77.8805198
  48.4812387 108.1589336  77.7838251  48.6299704 109.6451868  77.5372272
  42.7650569 106.6574063  92.6204399  43.4750187 106.0167255  92.5791018
  42.7219877 106.9086958  93.5430580  50.7537348 113.5941416  95.5410978
  50.6949894 112.9100636  94.8741561  51.1556866 114.3360406  95.0891604
  41.4779503 103.6439281  94.4400039  40.9416860 103.1930019  95.0921635
  40.8896211 103.7785190  93.6970503  40.8881762 103.1027932  77.0026502
  40.0111228 102.9816733  76.6388749  41.3639515 102.3114011  76.7505391
  50.7554755 111.5581000  93.7724958  49.8681534 111.2206922  93.8951357
  51.3253306 110.8264031  94.0093723  32.4083902 107.8905092  87.0968009
  33.0954942 107.5766822  86.5089025  32.2532031 108.7946457  86.8235261
  37.2118624 102.7795289  91.5253033  37.1276813 102.1720958  90.7903443
  36.3901330 103.2704307  91.5262529  44.2855908 116.2182453  90.7386201
  44.2126080 117.0237424  91.2505506  43.8433301 116.4174418  89.9134223
  44.0745688 115.4554223  84.2489023  43.2913210 115.9975903  84.3427247
  44.7738433 115.9728202  84.6483264  47.3842338 101.2648852  86.8923228
  47.8811037 100.5118814  86.5724298  46.6129319 101.3013169  86.3266438
  55.2372095 106.9689218  88.5341520  55.2261972 107.8513933  88.1635453
  54.3689475 106.6160768  88.3396057  46.7454592 116.1169287  92.8944360
  47.4582564 116.7516751  92.8220261  46.2544620 116.2133153  92.0784362
  48.4672119 110.0220539  84.4661652  47.5328397 110.1422002  84.2966356
  48.6448787 109.1193006  84.2021661  43.9677307 103.4066235  86.6194913
  43.5975094 102.8537275  87.3075818  44.4636399 102.8024369  86.0669913
  51.8544670 105.8637859  85.0011686  52.3205122 106.6965850  84.9271988
  52.3052170 105.3982840  85.7056944  41.7966505 113.8663730  93.7149931
  42.4975965 114.5000213  93.8679325  41.3261620 114.2078462  92.9545570
  49.9220901 112.2081680  81.9997838  50.1980745 112.0938274  82.9091712
  49.0525400 111.8099165  81.9610011  49.8261333  98.2318446  89.0402587
  48.9124413  98.4622672  89.2084794  50.2554434  98.3156890  89.8916619
  49.5967791 106.4208338  91.5402481  48.9439241 106.6684245  90.8854934
  49.9748171 105.6072476  91.2064958  46.5574965 116.4568031  85.6430651
  46.7397360 115.6389687  86.1058404  47.3807951 116.6735723  85.2055541
  46.8917131 115.3836216  82.9045700  47.4204897 114.8728670  82.2915862
  47.1545350 115.0678746  83.7691233  45.6455364 107.1628149  98.0268518
  44.9696001 107.0622278  98.6970893  46.4682998 107.0067362  98.4904515
  37.3934223 113.4000085  90.6481033  37.9787660 112.6543773  90.7808938
  37.1959062 113.7104042  91.5317697  40.2472879 116.4351333  85.6643476
  39.5783254 116.9197460  85.1807516  40.1085748 116.6820553  86.5786854
  31.9851878 105.9705685  89.3685477  32.0235978 105.4369276  90.1622595
  31.4792171 105.4440891  88.7496454  44.3878147 118.4695076  92.2626134
  44.9396455 118.6326698  93.0275219  44.7284341 119.0599514  91.5906159
  39.3642640 100.8170226  92.8648019  39.4283967 101.6785057  92.4525417
  39.3009761 100.2044228  92.1320377  38.8394913 102.8893358  96.5121053
  39.4666952 102.5070436  97.1258577  37.9822832 102.6707560  96.8776746
  49.2389021 113.2956334  98.1174789  49.7828925 113.9086292  97.6229743
  48.6575866 113.8535912  98.6341802  35.6160456 104.6969788  82.4439408
  35.9113897 103.7880466  82.3906462  34.7148491 104.6757527  82.1220410
  47.5246534 116.4177052  89.2489816  47.3997674 115.6166791  88.7400762
  48.1825626 116.9123245  88.7603786  39.1454703 102.7725784  88.4266957
  38.4241288 103.3861752  88.2874430  39.9347958 103.3083549  88.3483603
  49.5881443 114.2186072  90.8769366  48.6411778 114.0991423  90.8047693
  49.9364216 113.3308570  90.9595628  41.9481016 100.1080211  94.7007608
  42.4715418 100.3542507  95.4633918  41.7293349 100.9400245  94.2810746
  37.3448297 102.3783885  82.5678733  37.0161003 101.4981264  82.3853839
  37.6987668 102.3231554  83.4555122  46.5927876 114.0138788  87.0773719
  46.4452839 113.0855495  87.2581289  47.4181370 114.0358879  86.5930794
  40.4590120 102.6656855  82.9354211  40.7986193 103.1942776  82.2132819
  40.9062241 103.0037261  83.7112777  50.1961998 114.8367347  88.1638591
  51.1208545 114.6310208  88.0263043  50.0277301 114.5883748  89.0727933
  43.1533561 101.0493906  92.3857279  42.8130382 100.2501719  92.7877959
  42.4472567 101.3495617  91.8134112  43.8050033  98.1343218  90.8384602
  44.6276102  97.6603696  90.7163492  44.0488097  98.9133702  91.3383288
  42.4458268 101.1631477  81.1347504  43.1666630 101.5412729  80.6311220
  41.8223572 101.8820353  81.2382482  46.5889390 101.8676626  82.0705836
  46.8053005 102.7501263  81.7694664  46.1083458 101.4762839  81.3411478
  41.3288612 104.8262339  88.6476580  41.1833192 105.1402642  89.5400862
  40.8513815 105.4447239  88.0947479  43.1884995 101.8164887  88.6957470
  43.1746563 100.9205980  88.3589768  43.9057423 101.8235550  89.3295756
  45.0411125 102.2502227  90.7410597  44.7828903 103.1719298  90.7394928
  44.5096166 101.8532661  91.4311062  49.9857314 115.3553014  83.5200683
  50.1594192 114.7899437  82.7674535  50.4786205 116.1553909  83.3380173
  35.8034274 107.3667683  91.5864242  35.2587742 108.1427491  91.7184516
  36.6813624 107.7138488  91.4283363  42.5921891 100.6979267  83.9645040
  42.7137802  99.7695913  84.1635928  42.3023933 100.7117953  83.0523356
  45.4613081  98.3834177  87.1011760  45.4834778  98.4473511  86.1463740
  45.8781140  97.5438686  87.2952266  55.8396705 108.1189437  85.1390983
  56.2827851 107.3696762  84.7410106  54.9623216 108.1099573  84.7564715
  50.9732487 114.6719778  80.6197581  51.6683391 115.2926471  80.8384896
  51.3155637 113.8215130  80.8949959  36.5900296 106.4937579  94.4794399
  35.8482032 106.6420215  95.0659029  36.2693040 106.7545845  93.6161148
  52.8723910 112.1219484  82.1484912  53.3975234 112.4606757  81.4234232
  52.7846262 111.1866499  81.9648047  44.5343958 116.0353558  94.2774789
  44.8431085 115.7902704  95.1497488  45.3319440 116.2400196  93.7893659
  44.5564570 118.1891467  86.5080165  44.1169561 117.6967846  87.2013022
  45.3072687 117.6464435  86.2672240  37.0356909 114.3803008  86.5104793
  37.8614929 114.0806780  86.1303437  36.6850961 113.6110631  86.9594582
  42.0038443 113.7329476  88.5802467  41.3818452 113.0700181  88.2804695
  42.6743310 113.7590608  87.8976115  35.2365515 112.2989335  87.4693727
  34.3997423 111.8711509  87.2877728  35.2089160 112.4921778  88.4064518
  42.0762970 102.2111264  98.1734973  42.1251126 103.0873387  97.7912742
  42.6185484 101.6688657  97.6006616  52.5617816 112.7552388  97.4536110
  51.7713360 112.7376527  96.9140609  52.3251170 113.2940681  98.2085146
  52.6815691 109.6044854  94.7668838  52.7313696 109.4394861  95.7084361
  52.5729614 108.7372113  94.3766719  41.5651950 112.2833400  82.0560927
  41.7140070 112.9668864  81.4027600  42.3718393 112.2638490  82.5710383
  49.9719453 105.5875782  96.0828145  50.8729316 105.4482247  95.7912143
  50.0467428 105.7530237  97.0226323  44.3062259 102.9642637  94.9281331
  43.4365568 103.2576203  94.6563920  44.5421739 103.5483082  95.6488595
  54.1833888 112.0241796  95.0110860  53.8918696 112.3871776  95.8474321
  53.5706019 111.3108804  94.8324192  55.3829570 109.5894675  87.5313430
  56.2176461 110.0284479  87.6950991  55.5188699 109.1133329  86.7121676
  52.4321076 107.1474410  93.4790918  52.9075198 107.3402056  92.6709769
  51.5086641 107.2033596  93.2334302  39.3204583 108.3098577  83.0621996
  39.0750624 107.4060907  83.2602206  39.4900497 108.3115728  82.1201474
  47.0101292  99.1822254  92.4446752  47.5283236  99.9183281  92.1193240
  46.6556425  99.4886247  93.2793511  38.5900230 104.0426935  80.5608158
  37.8969475 104.1171290  79.9048194  38.3451982 103.2787279  81.0829675
  47.2613887  95.6022536  87.9647648  47.5415640  94.9345725  88.5908075
  48.0464493  95.7951632  87.4522312  45.0647355 114.7781530  79.5272675
  44.4921322 115.3971717  79.0743147  45.6380149 115.3280892  80.0612597
  51.1322745 104.0240170  91.7119224  52.0840168 104.1238268  91.7331448
  50.9626195 103.2318439  92.2217308  49.1537124 101.1095753  91.8978624
  48.5587057 101.3900766  91.2025113  48.8686821 101.5989654  92.6695366
  48.2844615 115.0618680  80.6581257  49.2175288 114.9964242  80.8614133
  48.1967828 115.8974947  80.1995790  50.9132632 114.3784551  77.6185205
  50.8346263 114.0444414  78.5120962  51.7342298 114.8706319  77.6176677
  53.6110823 107.2446290  90.8261523  53.5787143 106.3062291  91.0121207
  54.2211446 107.3230327  90.0927348  45.4494154 106.1142343  76.8688727
  46.3953258 105.9848551  76.9377145  45.0708399 105.3757005  77.3458155
  53.7605311 104.0357333  90.8719806  53.2444360 103.2515790  90.6849735
  54.6445260 103.7076050  91.0366326  51.4216038  97.7798349  86.8315619
  51.2240859  97.4713437  87.7158951  52.0315744  98.5059988  86.9613549
  59.4287373 108.3062297  89.9667560  60.1590761 108.0447585  90.5275263
  58.8194318 107.5691019  90.0069628  57.5102670 106.4470159  90.5642011
  56.7835833 106.3126124  89.9558503  57.0949957 106.7546988  91.3698729
  45.3332846 110.1660089  98.3289384  46.2535856 110.3438688  98.5229431
  45.2982429 109.2216134  98.1769083  43.6337071 104.0392319  76.8043612
  42.7268526 103.7425432  76.8806326  43.9113052 103.7422137  75.9377899
  34.5515011 105.3598683  87.2542659  34.2317795 104.5063991  86.9617033
  34.0048439 105.5747261  88.0100626  38.3294919 108.0761124  90.9712165
  38.5480928 109.0078232  90.9900199  38.7420692 107.7169098  91.7566969
  45.2499136  98.5829209  82.9587854  44.4399865  98.2376294  83.3343100
  45.9383553  98.2736753  83.5475465  47.1789685  97.6607256  84.5812150
  47.7320723  98.0802709  85.2402173  47.4159771  96.7343004  84.6235106
  43.2022784 103.6494329 100.3614914  43.1019511 104.5988686 100.2927005
  42.9844326 103.3212568  99.4890984  42.4035855 100.8979255  76.9455592
  43.2655019 101.2234153  77.2051409  42.5886200 100.1110750  76.4328657
  34.4203271 108.9801594  89.2235780  33.7266743 108.5655547  88.7105735
  35.1676262 109.0222131  88.6269199  50.5568492  99.7707781  84.0890815
  49.9767161 100.4292585  83.7068867  50.2904425  98.9485126  83.6778232
  49.0072058  99.1712839  86.2912135  49.5071837  99.2829373  85.4826454
  49.6507666  98.8673892  86.9312943  43.0654054 107.0791468  99.1779976
  42.5821136 107.8791828  99.3843865  43.1514993 107.0899413  98.2247420
  36.3340014 108.9119848  87.1001795  36.3110702 109.0107535  86.1483678
  36.6440650 109.7584999  87.4218961  38.9927392 110.9696003  91.2148410
  39.9470645 110.9379945  91.1478341  38.7939915 110.5086627  92.0298636
  39.5826774 109.5397119  93.7819207  40.4019663 110.0341198  93.8054045
  39.8563581 108.6229087  93.7536775  49.3393370 101.9307871  83.1447163
  48.4519225 102.2157522  82.9267358  49.7547359 101.7701635  82.2974440
  52.6907906 101.9554392  86.8601502  53.4668296 102.4450845  87.1326119
  51.9656040 102.3812447  87.3173372  55.1280465 102.6682012  87.9175443
  55.7224955 102.4277748  87.2068751  55.2007048 101.9489142  88.5448979
  37.3477620 116.5115623  88.2318608  37.2132088 115.7516023  87.6656606
  36.9309683 117.2356522  87.7647396  48.4836583 111.6952546  77.2395183
  49.1872433 111.9002549  77.8552839  47.7599232 112.2629308  77.5044266
  49.3134394 107.4462407  83.3597453  49.2569595 107.9030959  82.5205085
  49.8662736 106.6853092  83.1820296  53.1239200 103.2352139  84.1847573
  52.8676134 102.8348775  85.0155780  52.4992068 103.9495933  84.0597712
  57.4351537 105.9748212  86.6918864  56.8751095 106.0441402  87.4650426
  56.8295041 105.7989197  85.9718360  40.5046746 117.4084940  88.4437050
  40.3879130 118.3530372  88.3415741  39.6839192 117.1058501  88.8322849
  50.3923281 112.1335075  79.2893643  51.2268885 111.7016274  79.1071118
  50.2307624 111.9617089  80.2170537  50.0469173 108.6367189  80.6549982
  49.9917977 108.4711460  79.7138426  49.4215228 109.3443221  80.8112172
  34.8361688 103.8735253  94.4811404  35.4820551 103.3634207  94.9698630
  34.6278839 104.6103935  95.0554830  47.3615080 110.9416100  99.9803545
  48.2306240 111.1156753  99.6190180  46.8821832 111.7610517  99.8579274
  43.3565298  98.1375298  80.2335301  43.3443968  99.0817137  80.3903572
  44.2488720  97.9545443  79.9394762  41.5301260 118.0613201  91.6592979
  42.4328507 118.0936812  91.9759474  41.3038630 117.1313652  91.6739314
  43.2854862 116.8144188  88.3203057  42.3350493 116.8146050  88.2067430
  43.5887348 116.0676923  87.8039092  39.1759179 101.0202870  98.5786419
  40.0390640 100.6639675  98.7889743  38.6024590 100.6816765  99.2661823
  59.0207556 122.6504726  89.3848820  59.6585966 122.5311474  88.6812160
  58.9028399 123.5985570  89.4436772  55.8297262 122.6032154  89.3210344
  55.4915774 122.4873219  88.4330879  56.6987030 122.2023320  89.3011351
  56.3117045 123.7567006  95.2796550  56.3005686 123.3619804  94.4077054
  56.4737685 123.0233079  95.8730321  53.5305541 121.3720402  78.6527285
  53.7831062 120.8501923  77.8910748  52.5930101 121.2086547  78.7553968
  58.5748824 120.3756180  86.4602028  59.3611914 119.9575603  86.1092445
  58.8387529 121.2802272  86.6283676  63.9757251 120.3131413  87.3635006
  64.7082423 119.7430630  87.5972836  63.2196607 119.9253014  87.8041512
  55.5933371 122.7358655  84.5598349  55.2291578 122.2089276  85.2711270
  56.4500487 122.3457124  84.3864834  61.4982672 114.0252988  91.8229615
  61.1665997 114.8948398  91.5990830  60.9028285 113.7089272  92.5023645
  55.2338858 117.7648555  79.5559697  55.4013260 118.6328791  79.9230168
  55.0436027 117.9275836  78.6320986  61.3911335 118.7448074  88.9022965
  60.4828212 118.6763482  88.6081726  61.3398931 119.2220019  89.7304790
  55.2128079 120.2206212  80.5406364  55.0927704 120.6663263  81.3791844
  54.5180667 120.5691530  79.9819902  55.4652201 120.1637719  96.8457862
  54.6885535 120.7231639  96.8360727  56.1042764 120.6494502  97.3672732
  63.2572981 116.9464512  90.6800839  62.6147362 117.2397045  90.0340633
  62.7527910 116.8317432  91.4854035  60.9113145 120.6927685  81.3686698
  61.8231001 120.9255072  81.1934396  60.4022792 121.2764729  80.8061777
  59.1953913 125.1152313  95.0047991  59.6037269 124.6734724  94.2602623
  58.4731174 124.5404941  95.2582184  55.5484983 120.0524920  92.3781548
  56.3946178 120.4764333  92.5216197  55.4883621 119.3958544  93.0720111
  58.6984428 117.7129288  94.0362721  58.4545360 118.4671349  93.4996997
  58.9744359 118.0914636  94.8709968  60.6522891 124.2567901  92.7139987
  60.8639786 124.8999660  92.0374368  60.6052639 123.4230217  92.2461917
  58.2549120 116.8685721  89.6176559  57.3933599 117.1666975  89.9093297
  58.2811555 117.0856120  88.6857592  54.0079575 121.5351064  82.8339930
  54.7103619 121.9872108  83.3013856  53.6760204 120.8934883  83.4619823
  52.4559937 120.1262821  97.2091139  51.8258598 120.8079102  97.4426536
  52.3496025 120.0145902  96.2644277  47.7504909 119.7934617  88.1357063
  46.9603963 120.0492145  87.6597174  48.2416157 120.6082955  88.2409104
  49.7019655 120.1579196  85.0940540  48.9050818 120.2697890  85.6124036
  49.4745247 120.4965848  84.2281431  69.8574712 123.4778604  87.2347316
  69.1038420 122.9086003  87.0791320  69.9922253 123.4441269  88.1817950
  51.7340680 114.4283587  99.5716390  51.3407625 113.8749785 100.2464034
  52.5506820 114.7394165  99.9622908  54.6508641 115.8441466  97.1636647
  55.3918354 116.4448619  97.0841109  54.8826563 115.1019104  96.6054689
  49.7949979 121.0297833  95.4414876  49.6803494 120.1283090  95.7421975
  48.9394496 121.2761530  95.0899693  58.5965804 111.8722569  91.4400928
  58.2530073 112.7624210  91.3640039  58.9644766 111.6824226  90.5770513
  58.5616086 121.8631180  79.9473364  58.0462710 122.6335784  80.1861751
  58.2893395 121.1896316  80.5706425  56.1463197 116.7080881  85.0058602
  55.2904794 116.3187731  84.8264241  56.5590149 116.7872841  84.1458387
  57.6762344 114.2427224  89.4050162  57.1727140 114.2057359  88.5917967
  57.9692951 115.1519967  89.4646818  53.9205230 114.3265954  88.4116343
  54.7858227 114.1308762  88.0522233  53.9882739 114.0976305  89.3385700
  63.5350360 124.6163534  81.8826537  62.7579803 124.2774694  81.4381699
  64.2141841 124.6216158  81.2081502  58.3502389 119.7358272  81.7733145
  58.0452525 120.0504421  82.6243288  59.3032832 119.8139692  81.8160478
  61.7741667 124.0897516  88.5393145  61.1165342 124.7796777  88.6273274
  62.5782067 124.4793948  88.8827131  51.5267549 116.5568161  85.7832710
  52.1011301 116.3343343  85.0505903  52.1138531 116.6256856  86.5361312
  60.5847126 122.4441888  86.5897087  61.0979008 123.0771880  87.0918797
  61.2348350 121.8443084  86.2240447  51.8537136 118.5872623  79.8028596
  51.0174448 118.9247309  80.1237870  51.7141906 118.4521602  78.8655733
  53.8290217 113.4309410  84.5107780  53.1754629 113.1158428  83.8864394
  53.7870691 112.8085151  85.2367603  54.9401421 123.7128705  76.4261072
  54.0328483 123.4817959  76.6252221  55.4372453 122.9166325  76.6135053
  57.0627957 119.9191344  88.8355427  56.1450518 120.1406291  88.6777115
  57.4788101 119.9937654  87.9767135  57.8463005 121.3182760  83.9658108
  58.5934824 121.8304157  83.6565230  58.1154594 120.9966812  84.8262501
  56.1189655 123.8141300  80.9485062  55.2100874 123.5300333  81.0457532
  56.1484739 124.2340379  80.0888369  60.2941842 118.3539876  85.9476897
  59.5564599 117.8417262  86.2787139  60.5468615 117.9140257  85.1360174
  60.3953469 111.1316128  86.5418666  60.7012346 110.2713491  86.2544581
  61.1206074 111.7233748  86.3417660  54.6674549 121.4269921  87.0494857
  54.7223159 120.4743757  86.9737334  53.8565751 121.5829360  87.5336156
  52.6066909 120.0446981  84.8085236  51.7934774 120.3441151  85.2150428
  53.1025903 119.6502669  85.5259718  58.2041121 120.5088805  93.6400130
  58.5590508 120.7360278  94.4994596  58.8513252 120.8407182  93.0177385
  63.9338858 123.6307241  84.3449459  63.7956756 123.8208837  83.4170648
  63.5775076 124.3926624  84.8017510  52.0980984 117.6165336  90.4246471
  52.7380363 117.4754095  89.7269434  51.2658514 117.3299850  90.0485073
  63.9608237 125.6983768  89.3560731  64.3944744 125.6059057  90.2043785
  64.6739818 125.6741269  88.7180747  49.1824051 121.0610848  82.6141216
  48.2521639 120.9995304  82.8311178  49.2781523 120.5386801  81.8177857
  49.1009600 117.5865661  85.2019458  49.3616417 118.5010994  85.0928618
  49.9226772 117.1190104  85.3516071  50.5734525 119.0003418  92.3718282
  51.2457579 118.7920780  91.7230931  49.7464312 118.8025504  91.9323515
  64.8223787 125.7407469  91.8893616  65.0159677 126.6453279  92.1352891
  64.7224405 125.2814888  92.7232201  56.4760097 115.6265359  94.3883943
  55.8288012 116.3255309  94.2948420  57.2461113 116.0601503  94.7560191
  56.6524232 123.4646124  92.4480763  57.5816292 123.6157284  92.2749730
  56.2315262 123.5530145  91.5929409  50.9762023 122.2746021  93.1320720
  50.8381821 121.5426260  93.7332259  51.8866946 122.1854921  92.8504907
  59.9376970 124.2134426  77.8805198  59.3206141 123.4881254  77.7838251
  59.4693459 124.9743786  77.5372272  53.6044323 121.9865981  92.6204399
  54.3143942 121.3459173  92.5791018  53.5613631 122.2378876  93.5430580
  52.3173257 118.9731199  94.4400039  51.7810614 118.5221937  95.0921635
  51.7289966 119.1077107  93.6970503  51.7275516 118.4319850  77.0026502
  50.8504983 118.3108651  76.6388749  52.2033269 117.6405928  76.7505391
  48.0512379 118.1087206  91.5253033  47.9670567 117.5012876  90.7903443
  47.2295085 118.5996225  91.5262529  58.2236092 116.5940770  86.8923228
  58.7204792 115.8410732  86.5724298  57.4523074 116.6305086  86.3266438
  66.0765850 122.2981135  88.5341520  66.0655726 123.1805851  88.1635453
  65.2083229 121.9452686  88.3396057  54.8071061 118.7358153  86.6194913
  54.4368849 118.1829193  87.3075818  55.3030154 118.1316286  86.0669913
  62.6938424 121.1929776  85.0011686  63.1598877 122.0257768  84.9271988
  63.1445925 120.7274758  85.7056944  60.6655087 113.5610363  89.0402587
  59.7518167 113.7914590  89.2084794  61.0948189 113.6448807  89.8916619
  60.4361546 121.7500255  91.5402481  59.7832996 121.9976163  90.8854934
  60.8141926 120.9364393  91.2064958  56.4849119 122.4920066  98.0268518
  55.8089756 122.3914196  98.6970893  57.3076753 122.3359280  98.4904515
  50.2036395 116.1462144  92.8648019  50.2677721 117.0076974  92.4525417
  50.1403515 115.5336145  92.1320377  49.6788667 118.2185276  96.5121053
  50.3060706 117.8362353  97.1258577  48.8216586 117.9999478  96.8776746
  46.4554210 120.0261705  82.4439408  46.7507651 119.1172384  82.3906462
  45.5542246 120.0049445  82.1220410  49.9848457 118.1017702  88.4266957
  49.2635043 118.7153669  88.2874430  50.7741713 118.6375467  88.3483603
  52.7874771 115.4372128  94.7007608  53.3109172 115.6834425  95.4633918
  52.5687104 116.2692163  94.2810746  48.1842052 117.7075803  82.5678733
  47.8554758 116.8273182  82.3853839  48.5381422 117.6523472  83.4555122
  51.2983875 117.9948773  82.9354211  51.6379947 118.5234694  82.2132819
  51.7455995 118.3329179  83.7112777  53.9927316 116.3785823  92.3857279
  53.6524136 115.5793636  92.7877959  53.2866322 116.6787534  91.8134112
  54.6443787 113.4635136  90.8384602  55.4669857 112.9895614  90.7163492
  54.8881851 114.2425620  91.3383288  53.2852022 116.4923394  81.1347504
  54.0060384 116.8704647  80.6311220  52.6617326 117.2112271  81.2382482
  57.4283145 117.1968543  82.0705836  57.6446759 118.0793181  81.7694664
  56.9477212 116.8054757  81.3411478  52.1682366 120.1554256  88.6476580
  52.0226947 120.4694560  89.5400862  51.6907570 120.7739157  88.0947479
  54.0278749 117.1456804  88.6957470  54.0140318 116.2497898  88.3589768
  54.7451177 117.1527468  89.3295756  55.8804880 117.5794145  90.7410597
  55.6222658 118.5011215  90.7394928  55.3489920 117.1824579  91.4311062
  53.4315645 116.0271185  83.9645040  53.5531556 115.0987831  84.1635928
  53.1417687 116.0409871  83.0523356  56.3006835 113.7126095  87.1011760
  56.3228532 113.7765428  86.1463740  56.7174894 112.8730604  87.2952266
  66.6790460 123.4481355  85.1390983  67.1221606 122.6988680  84.7410106
  65.8016970 123.4391491  84.7564715  52.9156725 117.5403182  98.1734973
  52.9644880 118.4165305  97.7912742  53.4579239 116.9980575  97.6006616
  63.5209445 124.9336772  94.7668838  63.5707450 124.7686779  95.7084361
  63.4123369 124.0664031  94.3766719  60.8113208 120.9167700  96.0828145
  61.7123070 120.7774165  95.7912143  60.8861182 121.0822155  97.0226323
  55.1456013 118.2934554  94.9281331  54.2759322 118.5868121  94.6563920
  55.3815493 118.8774999  95.6488595  66.2223324 124.9186593  87.5313430
  67.0570216 125.3576397  87.6950991  66.3582453 124.4425246  86.7121676
  63.2714830 122.4766328  93.4790918  63.7468952 122.6693974  92.6709769
  62.3480396 122.5325514  93.2334302  57.8495047 114.5114171  92.4446752
  58.3676991 115.2475198  92.1193240  57.4950180 114.8178165  93.2793511
  49.4293985 119.3718853  80.5608158  48.7363229 119.4463208  79.9048194
  49.1845736 118.6079196  81.0829675  58.1007641 110.9314454  87.9647648
  58.3809395 110.2637643  88.5908075  58.8858248 111.1243550  87.4522312
  61.9716499 119.3532088  91.7119224  62.9233922 119.4530186  91.7331448
  61.8019950 118.5610356  92.2217308  59.9930879 116.4387671  91.8978624
  59.3980811 116.7192684  91.2025113  59.7080576 116.9281572  92.6695366
  64.4504577 122.5738208  90.8261523  64.4180897 121.6354208  91.0121207
  65.0605201 122.6522244  90.0927348  56.2887908 121.4434261  76.8688727
  57.2347013 121.3140469  76.9377145  55.9102153 120.7048923  77.3458155
  64.5999066 119.3649251  90.8719806  64.0838114 118.5807708  90.6849735
  65.4839014 119.0367968  91.0366326  62.2609793 113.1090267  86.8315619
  62.0634614 112.8005355  87.7158951  62.8709498 113.8351906  86.9613549
  70.2681127 123.6354214  89.9667560  70.9984516 123.3739503  90.5275263
  69.6588073 122.8982936  90.0069628  68.3496424 121.7762077  90.5642011
  67.6229588 121.6418042  89.9558503  67.9343711 122.0838906  91.3698729
  54.4730825 119.3684237  76.8043612  53.5662281 119.0717350  76.8806326
  54.7506806 119.0714055  75.9377899  56.0892891 113.9121127  82.9587854
  55.2793619 113.5668212  83.3343100  56.7777308 113.6028670  83.5475465
  58.0183439 112.9899174  84.5812150  58.5714478 113.4094627  85.2402173
  58.2553526 112.0634922  84.6235106  54.0416538 118.9786247 100.3614914
  53.9413265 119.9280604 100.2927005  53.8238081 118.6504486  99.4890984
  53.2429610 116.2271172  76.9455592  54.1048774 116.5526071  77.2051409
  53.4279954 115.4402668  76.4328657  61.3962246 115.0999699  84.0890815
  60.8160915 115.7584503  83.7068867  61.1298179 114.2777043  83.6778232
  59.8465813 114.5004756  86.2912135  60.3465591 114.6121291  85.4826454
  60.4901421 114.1965809  86.9312943  53.9047809 122.4083386  99.1779976
  53.4214890 123.2083746  99.3843865  53.9908748 122.4191331  98.2247420
  60.1787124 117.2599789  83.1447163  59.2912979 117.5449440  82.9267358
  60.5941113 117.0993552  82.2974440  63.5301660 117.2846310  86.8601502
  64.3062051 117.7742762  87.1326119  62.8049795 117.7104364  87.3173372
  65.9674219 117.9973929  87.9175443  66.5618710 117.7569665  87.2068751
  66.0400803 117.2781060  88.5448979  60.1528148 122.7754325  83.3597453
  60.0963349 123.2322876  82.5205085  60.7056491 122.0145010  83.1820296
  63.9632954 118.5644057  84.1847573  63.7069888 118.1640693  85.0155780
  63.3385822 119.2787851  84.0597712  68.2745292 121.3040130  86.6918864
  67.7144850 121.3733319  87.4650426  67.6688795 121.1281115  85.9718360
  60.8862927 123.9659106  80.6549982  60.8311731 123.8003378  79.7138426
  60.2608983 124.6735139  80.8112172  45.6755442 119.2027171  94.4811404
  46.3214306 118.6926125  94.9698630  45.4672593 119.9395852  95.0554830
  54.1959053 113.4667215  80.2335301  54.1837723 114.4109055  80.3903572
  55.0882475 113.2837361  79.9394762  58.0111172 110.0609992  84.4881237
  57.2443568 109.5068479  84.6337920  58.4221877 110.1331861  85.3495389
  50.0152933 116.3494788  98.5786419  50.8784395 115.9931593  98.7889743
  49.4418344 116.0108683  99.2661823  69.4359558 127.2014486  91.4400928
  69.0923827 128.0916128  91.3640039  69.8038521 127.0116144  90.5770513
  71.2347224 126.4608046  86.5418666  71.5406101 125.6005409  86.2544581
  71.9599829 127.0525666  86.3417660  71.5048842 128.8902281  89.0402587
  70.5911921 129.1206508  89.2084794  71.9341943 128.9740725  89.8916619
  68.9401396 126.2606372  87.9647648  69.2203149 125.5929561  88.5908075
  69.7252002 126.4535467  87.4522312  73.1003547 128.4382184  86.8315619
  72.9028368 128.1297272  87.7158951  73.7103253 129.1643823  86.9613549
  68.8577194 128.3191091  84.5812150  69.4108232 128.7386545  85.2402173
  69.0947280 127.3926839  84.6235106  68.8504927 125.3901910  84.4881237
  68.0837323 124.8360396  84.6337920  69.2615632 125.4623778  85.3495389
   4.8238785  23.0107261  76.1094126   5.4617195  22.8914008  75.4057466
   4.7059628  23.9588105  76.1682078   1.6328491  22.9634689  76.0455651
   1.2947002  22.8475753  75.1576186   2.5018259  22.5625854  76.0256657
   2.1148274  24.1169540  82.0041857   2.1036915  23.7222339  81.1322360
   2.2768913  23.3835613  82.5975628   3.0714865  28.4841133  67.3467007
   2.4202845  29.0695213  66.9601021   3.8659228  29.0147328  67.4062044
   4.3780053  20.7358714  73.1847334   5.1643142  20.3178138  72.8337751
   4.6418757  21.6404807  73.3528983   4.5490130  26.1731565  67.8835991
   3.9135963  26.2466191  68.5956896   4.2187537  26.7625164  67.2055070
   9.7788480  20.6733948  74.0880313  10.5113652  20.1033164  74.3218142
   9.0227836  20.2855548  74.5286818   1.3964600  23.0961189  71.2843655
   1.0322807  22.5691810  71.9956577   2.2531716  22.7059658  71.1110141
   7.3013901  14.3855522  78.5474921   6.9697225  15.2550933  78.3236136
   6.7059514  14.0691806  79.2268952   1.0370087  18.1251089  66.2805004
   1.2044489  18.9931325  66.6475475   0.8467256  18.2878371  65.3566293
   3.7945420  26.5868068  77.9470834   3.4946143  27.4893107  77.8386641
   3.4496480  26.3200251  78.7991987   7.1942564  19.1050608  75.6268272
   6.2859441  19.0366016  75.3327033   7.1430160  19.5822553  76.4550097
   1.2683430  20.5240253  83.5703169   0.4916764  21.0834174  83.5606033
   1.9073993  21.0097036  84.0918039   9.0604210  17.3067046  77.4046145
   8.4178591  17.5999579  76.7585940   8.5559139  17.1919967  78.2099342
   6.7144374  21.0530219  68.0932005   7.6262230  21.2857606  67.9179702
   6.2054021  21.6367264  67.5307083   4.9985142  25.4754847  81.7293297
   5.4068498  25.0337258  80.9847930   4.2762403  24.9007475  81.9827490
   1.3516212  20.4127454  79.1026854   2.1977407  20.8366868  79.2461503
   1.2914849  19.7561078  79.7965417   5.3213956  26.0356038  75.4845586
   4.6922819  26.2001752  74.7821654   4.9339618  26.4497647  76.2556550
   9.2003188  26.9710476  72.8389950   8.5154226  27.3509377  72.2886983
   9.2847037  27.5805802  73.5721898   4.5015657  18.0731822  80.7608028
   4.2576589  18.8273883  80.2242304   4.7775588  18.4517170  81.5955275
   6.4554120  24.6170435  79.4385293   6.6671015  25.2602195  78.7619675
   6.4083868  23.7832751  78.9707224   4.0580349  17.2288255  76.3421866
   3.1964828  17.5269509  76.6338603   4.0842783  17.4458654  75.4102898
   0.8741918  25.7730446  72.7495671   1.3380264  26.0518149  71.9600294
   0.6098716  24.8713891  72.5668762   7.5699948  27.4942390  77.6107651
   8.3917391  27.0922578  77.3290332   7.5662351  27.3910624  78.5623767
   1.3356551  27.0426434  79.7668361   1.4000984  27.5046841  80.6026533
   0.6267475  26.4123798  79.8950671  15.6605941  23.8381139  73.9592622
  14.9069649  23.2688537  73.8036627  15.7953482  23.8043803  74.9063257
   1.0504569  28.7094541  69.6347342   0.9150244  29.5546077  70.0632189
   1.5914381  28.9113819  68.8713275   2.6773045  29.3318108  83.7647684
   2.2336899  28.5454486  83.4468588   3.3390259  29.5197258  83.0991575
   4.7754283  29.6120907  81.7929085   4.7572759  30.4329789  81.3009354
   5.6974203  29.4874983  82.0179226   1.2327337  27.1265037  82.6352593
   1.7655674  26.3653325  82.4051901   0.7041419  26.8338689  83.3776748
   4.3647315  22.2233714  66.6718670   3.8493939  22.9938319  66.9107058
   4.0924624  21.5498850  67.2951732   9.3381589  24.9766069  68.6071844
   8.5611032  24.6377228  68.1627006  10.0173070  24.9818692  67.9326809
   4.1533618  20.0960806  68.4978451   3.8483754  20.4106955  69.3488595
   5.1064060  20.1742226  68.5405784   2.5980050  26.2551029  70.1471405
   2.0701412  25.5203789  69.8344643   2.0967553  27.0325706  69.9011374
   7.5772896  24.4500050  75.2638452   6.9196571  25.1399311  75.3518580
   8.3813295  24.8396482  75.6072438   6.3878355  22.8044423  73.3142393
   6.9010237  23.4374414  73.8164103   7.0379579  22.2045618  72.9485753
   3.6500729  32.7828747  66.0703065   2.9762428  33.0860444  66.6788022
   4.0366551  33.5857827  65.7208522   2.8659186  20.2793878  75.5600734
   1.9481747  20.5008825  75.4022422   3.2819329  20.3540189  74.7012441
   3.6494234  21.6785294  70.6903414   4.3966053  22.1906691  70.3810536
   3.9185823  21.3569347  71.5507808   1.9220884  24.1743835  67.6730369
   1.0132103  23.8902867  67.7702838   1.9515968  24.5942913  66.8133675
   7.1540151  27.7850424  71.4421536   6.7002478  26.9441334  71.4986727
   6.5234118  28.4211822  71.7796316   6.0973071  18.7142410  72.6722204
   5.3595828  18.2019796  73.0032446   6.3499844  18.2742792  71.8605480
   5.5973090  29.6226921  72.3771354   5.8896065  30.1831978  71.6583720
   6.1071711  29.9155482  73.1324513   1.6196972  25.7152578  65.0118447
   1.1816401  24.9988437  64.5524084   2.3607412  25.9428693  64.4503538
   0.5606716  30.4007272  73.4664807   0.5182894  30.6268118  72.5373339
   1.4769414  30.1670646  73.6150609   4.0072349  20.8691339  80.3645437
   4.3621737  21.0962813  81.2239902   4.6544481  21.2009716  79.7422692
   9.7370086  23.9909775  71.0694766   9.5987985  24.1811371  70.1415955
   9.3806305  24.7529158  71.5262817   9.7639466  26.0586302  76.0806037
  10.1975973  25.9661591  76.9289091  10.4771047  26.0343803  75.4426053
   3.4967361  29.6588396  77.6139138   3.5504383  30.2279333  78.3816854
   2.6282142  29.8290281  77.2493175  10.6255016  26.1010003  78.6138923
  10.8190906  27.0055813  78.8598197  10.5255634  25.6417422  79.4477508
   5.6870124  26.2516746  84.1879803   5.5355631  26.0227297  83.2709887
   5.6774804  27.2087347  84.2011148   2.4555461  23.8248658  79.1726070
   3.3847521  23.9759818  78.9995037   2.0346491  23.9132679  78.3174716
   1.8491944  32.9508419  68.2850144   2.0243700  32.4796462  69.0995766
   1.1624732  33.5774185  68.5131404   2.8049008  27.2280926  74.3313445
   2.4698840  27.1881695  75.2271095   2.3052953  26.5625641  73.8583855
   5.7408199  24.5736960  64.6050505   5.1237370  23.8483788  64.5083557
   5.2724688  25.3346320  64.2617579   7.3962331  29.2835868  82.2656285
   7.3374877  28.5995088  81.5986868   7.7981849  30.0254858  81.8136911
   7.3979738  27.2475452  80.4970265   6.5106517  26.9101374  80.6196664
   7.9678289  26.5158483  80.7339030   0.9280891  31.9076904  77.4631508
   0.8551063  32.7131876  77.9750812   0.4858285  32.1068870  76.6379529
   4.0267321  16.9543304  73.6168535   4.5236021  16.2013266  73.2969605
   3.2554303  16.9907621  73.0511744  11.8797079  22.6583670  75.2586826
  11.8686955  23.5408385  74.8880759  11.0114458  22.3055220  75.0641363
   3.3879575  31.8063739  79.6189667   4.1007547  32.4411203  79.5465568
   2.8969604  31.9027605  78.8029668   5.1097102  25.7114991  71.1906958
   4.1753381  25.8316454  71.0211663   5.2873770  24.8087458  70.9266968
   8.4969653  21.5532310  71.7256992   8.9630105  22.3860302  71.6517295
   8.9477154  21.0877292  72.4302251   6.5645884  27.8976132  68.7243144
   6.8405728  27.7832726  69.6337018   5.6950383  27.4993617  68.6855318
   6.2392775  22.1102789  78.2647788   5.5864225  22.3578697  77.6100241
   6.6173154  21.2966928  77.9310265   3.1999948  32.1462483  72.3675958
   3.3822343  31.3284139  72.8303710   4.0232934  32.3630175  71.9300848
   3.5342114  31.0730668  69.6291007   4.0629880  30.5623122  69.0161169
   3.7970333  30.7573198  70.4936540   2.2880348  22.8522601  84.7513825
   1.6120985  22.7516730  85.4216200   3.1107981  22.6961814  85.2149822
   1.0303130  34.1589528  78.9871441   1.5821438  34.3221149  79.7520526
   1.3709324  34.7493966  78.3151466   5.8814005  28.9850785  84.8420095
   6.4253909  29.5980744  84.3475050   5.3000850  29.5430364  85.3587108
   4.1671518  32.1071503  75.9735123   4.0422657  31.3061243  75.4646068
   4.8250609  32.6017697  75.4849093   6.2306426  29.9080524  77.6014673
   5.2836762  29.7885875  77.5293000   6.5789199  29.0203022  77.6840935
   3.2352859  29.7033240  73.8019025   3.0877822  28.7749947  73.9826595
   4.0606353  29.7253330  73.3176101   6.8386981  30.5261799  74.8883898
   7.7633529  30.3204660  74.7508349   6.6702285  30.2778200  75.7973240
   3.2314374  17.5571077  68.7951143   3.4477988  18.4395715  68.4939971
   2.7508441  17.1657291  68.0656785   6.6282297  31.0447466  70.2445990
   6.8019175  30.4793888  69.4919842   7.1211189  31.8448361  70.0625479
  12.4821689  23.8083889  71.8636289  12.9252835  23.0591214  71.4655413
  11.6048199  23.7994025  71.4810021   7.6157470  30.3614230  67.3442888
   8.3108375  30.9820923  67.5630202   7.9580620  29.5109582  67.6195266
   9.5148893  27.8113936  68.8730219  10.0400217  28.1501209  68.1479539
   9.4271246  26.8760951  68.6893353   1.1768942  31.7248010  81.0020095
   1.4856068  31.4797156  81.8742795   1.9744424  31.9294648  80.5138965
   1.1989554  33.8785919  73.2325472   0.7594544  33.3862298  73.9258328
   1.9497671  33.3358887  72.9917547   9.2042799  28.4446840  84.1781417
   8.4138343  28.4270978  83.6385916   8.9676154  28.9835133  84.9330453
   9.3240674  25.2939306  81.4914145   9.3738679  25.1289313  82.4329668
   9.2154597  24.4266565  81.1012026   6.6144437  21.2770234  82.8073452
   7.5154299  21.1376699  82.5157450   6.6892411  21.4424689  83.7471629
  10.8258871  27.7136247  81.7356167  10.5343679  28.0766228  82.5719628
  10.2131002  27.0003256  81.5569499  12.0254553  25.2789127  74.2558737
  12.8601445  25.7178931  74.4196297  12.1613682  24.8027780  73.4366983
   9.0746059  22.8368862  80.2036225   9.5500181  23.0296508  79.3955076
   8.1511625  22.8928048  79.9579608   1.7072338  30.4675982  66.2517981
   1.1346305  31.0866169  65.7988453   2.2805132  31.0175344  66.7857903
   7.7747728  19.7134622  78.4364530   8.7265151  19.8132720  78.4576754
   7.6051179  18.9212891  78.9462615   5.7962108  16.7990205  78.6223931
   5.2012040  17.0795218  77.9270420   5.5111804  17.2884106  79.3940672
   4.9269598  30.7513132  67.3826564   5.8600271  30.6858694  67.5859439
   4.8392811  31.5869399  66.9241096   7.5557615  30.0679003  64.3430511
   7.4771246  29.7338866  65.2366269   8.3767282  30.5600770  64.3421984
  10.2535806  22.9340742  77.5506830  10.2212126  21.9956743  77.7366514
  10.8636430  23.0124779  76.8172655   2.0919137  21.8036795  63.5934034
   3.0378242  21.6743003  63.6622452   1.7133382  21.0651457  64.0703462
  10.4030294  19.7251785  77.5965113   9.8869343  18.9410242  77.4095042
  11.2870243  19.3970502  77.7611632   8.0641021  13.4692801  73.5560926
   7.8665843  13.1607889  74.4404258   8.6740727  14.1954440  73.6858856
  16.0712356  23.9956749  76.6912867  16.8015744  23.7342037  77.2520570
  15.4619301  23.2585471  76.7314935  14.1527653  22.1364611  77.2887318
  13.4260817  22.0020576  76.6803809  13.7374940  22.4441440  78.0944036
   1.9757829  25.8554541  85.0534691   2.8960839  26.0333140  85.2474737
   1.9407412  24.9110586  84.9014390   7.1993475  15.4602233  70.8136121
   6.6192144  16.1187037  70.4314174   6.9329408  14.6379577  70.4023539
   5.6497041  14.8607291  73.0157442   6.1496820  14.9723825  72.2071760
   6.2932649  14.5568343  73.6558250   5.9818353  17.6202323  69.8692470
   5.0944208  17.9051974  69.6512664   6.3972342  17.4596087  69.0219746
   9.3332889  17.6448844  73.5846809  10.1093279  18.1345297  73.8571426
   8.6081023  18.0706898  74.0418678  11.7705448  18.3576463  74.6420749
  12.3649939  18.1172199  73.9314058  11.8432032  17.6383594  75.2694286
   5.1261567  27.3846998  63.9640490   5.8297417  27.5897000  64.5798145
   4.4024215  27.9523760  64.2289573   5.9559377  23.1356859  70.0842760
   5.8994578  23.5925411  69.2450392   6.5087719  22.3747544  69.9065602
   9.7664183  18.9246591  70.9092879   9.5101117  18.5243227  71.7401087
   9.1417051  19.6390385  70.7843018  14.0776521  21.6642664  73.4164171
  13.5176079  21.7335854  74.1895733  13.4720024  21.4883649  72.6963667
   7.0348264  27.8229527  66.0138950   7.8693868  27.3910726  65.8316424
   6.8732607  27.6511541  66.9415844   6.6894156  24.3261640  67.3795289
   6.6342960  24.1605912  66.4383733   6.0640211  25.0337673  67.5357479
   4.0040063  26.6310552  86.7048852   4.8731223  26.8051205  86.3435487
   3.5246815  27.4504969  86.5824581  15.6632539  38.3399178  76.1094126
  16.3010949  38.2205926  75.4057466  15.5453382  39.2880022  76.1682078
  12.4722245  38.2926606  76.0455651  12.1340757  38.1767671  75.1576186
  13.3412014  37.8917771  76.0256657   8.3309061  40.1462083  72.0352542
   7.7673926  40.0552020  71.2668830   8.2161456  39.3261987  72.5155035
  12.9542028  39.4461458  82.0041857  12.9430669  39.0514256  81.1322360
  13.1162668  38.7127531  82.5975628   5.8773493  41.6413274  74.8736762
   6.6694785  41.3004099  74.4583062   6.1170143  41.7508249  75.7938916
  13.9108620  43.8133050  67.3467007  13.2596600  44.3987131  66.9601021
  14.7052983  44.3439245  67.4062044   7.8364247  40.9022188  67.7454141
   8.6095123  40.3551175  67.6067017   8.1889646  41.7666437  67.9568603
   9.6749290  42.2298570  80.9521041   9.3839155  43.1344201  80.8367707
  10.3106274  42.2715097  81.6665110  10.6005496  39.6075418  77.5422400
  11.1969069  39.3831441  76.8279363  10.6580468  38.8660164  78.1447848
  10.1730525  37.0614854  65.3772591  10.4256045  36.5396375  64.6156054
   9.2355084  36.8980999  65.4799275  15.2173808  36.0650632  73.1847334
  16.0036897  35.6470055  72.8337751  15.4812512  36.9696724  73.3528983
  15.3883885  41.5023482  67.8835991  14.7529718  41.5758109  68.5956896
  15.0581291  42.0917081  67.2055070  20.6182235  36.0025865  74.0880313
  21.3507407  35.4325082  74.3218142  19.8621590  35.6147466  74.5286818
   9.8926814  38.9642960  67.5796966   9.7763072  38.2887863  68.2478050
  10.0029073  38.4775334  66.7629119  12.2358354  38.4253107  71.2843655
  11.8716562  37.8983728  71.9956577  13.0925470  38.0351576  71.1110141
  18.1407655  29.7147439  78.5474921  17.8090980  30.5842850  78.3236136
  17.5453268  29.3983723  79.2268952  11.8763841  33.4543006  66.2805004
  12.0438244  34.3223243  66.6475475  11.6861010  33.6170288  65.3566293
  14.6339175  41.9159985  77.9470834  14.3339898  42.8185024  77.8386641
  14.2890234  41.6492169  78.7991987   8.0851656  38.3673782  73.9807539
   7.1602153  38.2349996  74.1885230   8.3336069  39.1468001  74.4777481
  18.0336318  34.4342526  75.6268272  17.1253196  34.3657934  75.3327033
  17.9823914  34.9114471  76.4550097  11.8553062  35.9100664  67.2651671
  11.7352687  36.3557715  68.1037151  11.1605651  36.2585982  66.7065209
   5.4460467  38.0107056  74.8151328   5.5752848  38.2641535  75.7290739
   4.7657918  38.6034764  74.4955983   9.6159954  48.6804306  70.9141802
   9.5383984  49.6312131  70.9930282   9.0121598  48.3350178  71.5716728
  12.1077184  35.8532171  83.5703169  11.3310518  36.4126091  83.5606033
  12.7467747  36.3388954  84.0918039  19.8997965  32.6358964  77.4046145
  19.2572345  32.9291497  76.7585940  19.3952893  32.5211884  78.2099342
  17.5538128  36.3822137  68.0932005  18.4655985  36.6149524  67.9179702
  17.0447776  36.9659181  67.5307083  10.3623556  38.6617625  83.1321136
  11.1038241  39.2002668  82.8555959   9.6560542  39.2883913  83.2892688
  15.8378896  40.8046765  81.7293297  16.2462252  40.3629176  80.9847930
  15.1156158  40.2299393  81.9827490  12.1909966  35.7419372  79.1026854
  13.0371161  36.1658785  79.2461503  12.1308604  35.0852996  79.7965417
  16.1607711  41.3647956  75.4845586  15.5316573  41.5293670  74.7821654
  15.7733373  41.7789565  76.2556550  20.0396943  42.3002393  72.8389950
  19.3547981  42.6801295  72.2886983  20.1240792  42.9097720  73.5721898
  15.3409411  33.4023740  80.7608028  15.0970343  34.1565801  80.2242304
  15.6169342  33.7809088  81.5955275  17.2947874  39.9462352  79.4385293
  17.5064770  40.5894112  78.7619675  17.2477623  39.1124669  78.9707224
  14.8974103  32.5580173  76.3421866  14.0358582  32.8561427  76.6338603
  14.9236538  32.7750572  75.4102898  11.7135673  41.1022364  72.7495671
  12.1774018  41.3810067  71.9600294  11.4492471  40.2005808  72.5668762
   8.6059754  40.6493845  75.6875435   9.1761111  41.0781114  75.0492919
   9.1967866  40.3676430  76.3859620  10.6504559  37.2245516  69.5585236
  11.3528602  37.6766560  70.0259163  10.3185187  36.5829335  70.1865130
   9.0984920  35.8157273  83.9336446   8.4683581  36.4973554  84.1671843
   8.9921008  35.7040354  82.9889584   4.3929893  35.4829069  74.8602370
   3.6028947  35.7386597  74.3842481   4.8841140  36.2977407  74.9654411
  18.4093702  42.8234308  77.6107651  19.2311146  42.4214495  77.3290332
  18.4056105  42.7202542  78.5623767   6.3444638  35.8473648  71.8185847
   5.5475801  35.9592342  72.3369342   6.1170230  36.1860300  70.9526737
  12.1750306  42.3718351  79.7668361  12.2394738  42.8338758  80.6026533
  11.4661230  41.7415716  79.8950671   2.6767596  35.7359559  77.2917361
   2.9275634  36.6206569  77.5574937   3.2127144  35.5564161  76.5192453
  26.4999695  39.1673056  73.9592622  25.7463404  38.5980454  73.8036627
  26.6347236  39.1335721  74.9063257  11.8898323  44.0386459  69.6347342
  11.7543998  44.8837994  70.0632189  12.4308136  44.2405736  68.8713275
   8.3765663  30.1178039  86.2961697   7.9832609  29.5644237  86.9709341
   9.1931803  30.4288617  86.6868214   5.3427721  41.5561897  70.2075267
   5.8552241  42.3505147  70.3580831   5.9950434  40.8588187  70.1408868
   7.1522605  44.6727653  72.2898020   7.3289234  45.5945618  72.1019004
   7.9479439  44.3586072  72.7192400  11.2933624  31.5335918  83.8881953
  12.0343337  32.1343071  83.8086416  11.5251547  30.7913555  83.3299996
   6.4374962  36.7192285  82.1660183   6.3228477  35.8177542  82.4667282
   5.5819480  36.9655982  81.8145000  13.5166800  44.6610025  83.7647684
  13.0730654  43.8746404  83.4468588  14.1784013  44.8489176  83.0991575
   8.2753921  46.1905827  78.2908362   8.8261346  46.0622890  77.5185356
   7.4365397  46.4900716  77.9403255  15.6148038  44.9412825  81.7929085
  15.5966513  45.7621706  81.3009354  16.5367958  44.8166900  82.0179226
  12.0721092  42.4556955  82.6352593  12.6049429  41.6945243  82.4051901
  11.5435173  42.1630606  83.3776748  15.2390787  27.5617021  78.1646235
  14.8955056  28.4518662  78.0885346  15.6069749  27.3718678  77.3015820
   3.3076637  39.8850551  70.9834837   4.1451859  40.2947559  70.7668545
   3.4854905  38.9449993  70.9535031  15.2041070  37.5525632  66.6718670
  14.6887693  38.3230236  66.9107058  14.9318378  36.8790768  67.2951732
  12.7888181  32.3975332  71.7303909  11.9329777  32.0082183  71.5509547
  13.2015132  32.4767293  70.8703694  14.3187327  29.9321676  76.1295468
  13.8152123  29.8951811  75.3163274  14.6117934  30.8414418  76.1892125
  10.5630213  30.0160405  75.1361650  11.4283210  29.8203214  74.7767540
  10.6307722  29.7870757  76.0631007  20.1775344  40.3057986  68.6071844
  19.4004787  39.9669146  68.1627006  20.8566825  40.3110609  67.9326809
  14.9927373  35.4252724  68.4978451  14.6877508  35.7398873  69.3488595
  15.9457815  35.5034144  68.5405784  13.4373805  41.5842947  70.1471405
  12.9095166  40.8495707  69.8344643  12.9361307  42.3617623  69.9011374
  18.4166651  39.7791968  75.2638452  17.7590325  40.4691229  75.3518580
  19.2207050  40.1688400  75.6072438   8.1692532  32.2462613  72.5078017
   8.7436284  32.0237795  71.7751210   8.7563515  32.3151308  73.2606618
  17.2272109  38.1336340  73.3142393  17.7403991  38.7666332  73.8164103
  17.8773333  37.5337536  72.9485753   8.4962119  34.2767074  66.5273902
   7.6599432  34.6141761  66.8483177   8.3566889  34.1416054  65.5901039
  10.4715200  29.1203862  71.2353086   9.8179612  28.8052879  70.6109701
  10.4295674  28.4979603  71.9612909  11.5826405  39.4023157  63.1506378
  10.6753467  39.1712411  63.3497527  12.0797437  38.6060777  63.3380360
  14.4894484  48.1120665  66.0703065  13.8156182  48.4152361  66.6788022
  14.8760306  48.9149745  65.7208522  13.7052940  35.6085796  75.5600734
  12.7875502  35.8300743  75.4022422  14.1213084  35.6832106  74.7012441
  14.4887988  37.0077212  70.6903414  15.2359807  37.5198609  70.3810536
  14.7579578  36.6861264  71.5507808  12.7614638  39.5035752  67.6730369
  11.8525858  39.2194785  67.7702838  12.7909722  39.9234831  66.8133675
  17.9933906  43.1142342  71.4421536  17.5396233  42.2733252  71.4986727
  17.3627872  43.7503740  71.7796316  16.9366825  34.0434328  72.6722204
  16.1989582  33.5311714  73.0032446  17.1893599  33.6034709  71.8605480
  16.4366845  44.9518838  72.3771354  16.7289819  45.5123896  71.6583720
  16.9465465  45.2447399  73.1324513  17.0378453  26.8210580  73.2663973
  17.3437329  25.9607943  72.9789888  17.7631057  27.4128200  73.0662967
   3.3302809  37.2241266  71.6545571   3.1327208  36.6310627  70.9296637
   2.7749473  36.9193477  72.3721510  11.3099532  37.1164373  73.7740164
  11.3648142  36.1638209  73.6982640  10.4990734  37.2723812  74.2581462
  12.4590726  41.0444496  65.0118447  12.0210156  40.3280355  64.5524084
  13.2001167  41.2720611  64.4503538   9.2491892  35.7341433  71.5330543
   8.4359758  36.0335603  71.9395735   9.7450886  35.3397121  72.2505025
  11.4000470  45.7299190  73.4664807  11.3576649  45.9560036  72.5373339
  12.3163169  45.4962564  73.6150609  14.8466104  36.1983257  80.3645437
  15.2015492  36.4254730  81.2239902  15.4938235  36.5301634  79.7422692
  20.5763841  39.3201693  71.0694766  20.4381739  39.5103289  70.1415955
  20.2200060  40.0821076  71.5262817   8.7405967  33.3059788  77.1491778
   9.3805346  33.1648547  76.4514741   7.9083498  33.0194301  76.7730380
  20.6033220  41.3878220  76.0806037  21.0369727  41.2953509  76.9289091
  21.3164801  41.3635720  75.4426053   9.5166271  42.6062219  73.2626770
  10.3106869  42.1112539  73.0609345   8.8057963  42.0780082  72.8994476
  14.3361115  44.9880314  77.6139138  14.3898138  45.5571250  78.3816854
  13.4675897  45.1582199  77.2493175   5.8249034  36.7505300  69.3386523
   4.8946622  36.6889756  69.5556485   5.9206506  36.2281253  68.5423164
   5.7434583  33.2760113  71.9264764   6.0041401  34.1905446  71.8173925
   6.5651756  32.8084556  72.0761377   7.2159509  34.6897870  79.0963589
   7.8882562  34.4815232  78.4476238   6.3889295  34.4919956  78.6568821
  21.4648770  41.4301921  78.6138923  21.6584660  42.3347731  78.8598197
  21.3649388  40.9709340  79.4477508  13.1185081  31.3159811  81.1129250
  12.4712996  32.0149761  81.0193726  13.8886096  31.7495955  81.4805498
  16.5263879  41.5808663  84.1879803  16.3749385  41.3519215  83.2709887
  16.5168558  42.5379265  84.2011148  13.2949215  39.1540576  79.1726070
  14.2241275  39.3051736  78.9995037  12.8740245  39.2424597  78.3174716
  12.0937547  43.1791241  76.9424607  11.9548633  42.8110025  77.8150545
  11.3052143  43.6938880  76.7708565  12.6885699  48.2800337  68.2850144
  12.8637455  47.8088380  69.0995766  12.0018487  48.9066103  68.5131404
  13.6442762  42.5572843  74.3313445  13.3092595  42.5173613  75.2271095
  13.1446708  41.8917559  73.8583855   7.6187006  37.9640473  79.8566026
   7.4806804  37.2320712  80.4577565   8.5291929  37.8749373  79.5750214
  16.5801954  39.9028878  64.6050505  15.9631124  39.1775706  64.5083557
  16.1118442  40.6638238  64.2617579  10.2469307  37.6760433  79.3449706
  10.9568925  37.0353625  79.3036324  10.2038615  37.9273327  80.2675887
  18.2356085  44.6127786  82.2656285  18.1768631  43.9287006  81.5986868
  18.6375604  45.3546776  81.8136911   8.9598241  34.6625650  81.1645345
   8.4235598  34.2116389  81.8166942   8.3714949  34.7971559  80.4215810
   7.2546784  51.4289700  75.0590004   7.4943382  52.0608224  75.7369022
   6.4115981  51.0777740  75.3455363   8.3700500  34.1214302  63.7271809
   7.4929966  34.0003103  63.3634056   8.8458253  33.3300380  63.4750698
  18.2373493  42.5767370  80.4970265  17.3500271  42.2393292  80.6196664
  18.8072044  41.8450401  80.7339030   4.6937362  33.7981658  78.2498340
   4.6095551  33.1907328  77.5148750   3.8720068  34.2890676  78.2507836
  11.7674646  47.2368822  77.4631508  11.6944817  48.0423794  77.9750812
  11.3252039  47.4360788  76.6379529  11.5564426  46.4740592  70.9734329
  10.7731947  47.0162272  71.0672554  12.2557171  46.9914572  71.3728571
  14.8661076  32.2835222  73.6168535  15.3629775  31.5305184  73.2969605
  14.0948057  32.3199538  73.0511744  22.7190833  37.9875587  75.2586826
  22.7080709  38.8700303  74.8880759  21.8508213  37.6347138  75.0641363
  14.2273330  47.1355656  79.6189667  14.9401302  47.7703121  79.5465568
  13.7363358  47.2319522  78.8029668  15.9490856  41.0406909  71.1906958
  15.0147135  41.1608371  71.0211663  16.1267525  40.1379376  70.9266968
  11.4496044  34.4252605  73.3440219  11.0793832  33.8723645  74.0321125
  11.9455137  33.8210738  72.7915219  19.3363408  36.8824228  71.7256992
  19.8023860  37.7152220  71.6517295  19.7870908  36.4169210  72.4302251
   9.2785243  44.8850100  80.4395237   9.9794703  45.5186583  80.5924632
   8.8080358  45.2264831  79.6790877  17.4039639  43.2268049  68.7243144
  17.6799483  43.1124644  69.6337018  16.5344138  42.8285534  68.6855318
  17.3080071  29.2504815  75.7647894  16.3943150  29.4809042  75.9330101
  17.7373172  29.3343259  76.6161926  17.0786529  37.4394707  78.2647788
  16.4257979  37.6870615  77.6100241  17.4566909  36.6258845  77.9310265
  14.0393703  47.4754400  72.3675958  14.2216097  46.6576056  72.8303710
  14.8626689  47.6922093  71.9300848  14.3735868  46.4022585  69.6291007
  14.9023635  45.8915040  69.0161169  14.6364088  46.0865116  70.4936540
  13.1274102  38.1814518  84.7513825  12.4514739  38.0808648  85.4216200
  13.9501736  38.0253732  85.2149822   4.8752961  44.4186455  77.3726340
   5.4606398  43.6730143  77.5054244   4.6777800  44.7290411  78.2563004
   7.7291616  47.4537702  72.3888782   7.0601992  47.9383830  71.9052823
   7.5904486  47.7006923  73.3032161  11.8696885  49.4881446  78.9871441
  12.4215193  49.6513067  79.7520526  12.2103078  50.0785883  78.3151466
   6.8461378  31.8356595  79.5893326   6.9102705  32.6971426  79.1770723
   6.7828498  31.2230597  78.8565684   6.3213651  33.9079728  83.2366360
   6.9485689  33.5256805  83.8503884   5.4641570  33.6893930  83.6022052
  16.7207759  44.3142703  84.8420095  17.2647663  44.9272661  84.3475050
  16.1394604  44.8722282  85.3587108   3.0979193  35.7156157  69.1684715
   3.3932634  34.8066835  69.1151768   2.1967229  35.6943897  68.8465717
  15.0065272  47.4363421  75.9735123  14.8816412  46.6353161  75.4646068
  15.6644363  47.9309615  75.4849093   6.6273440  33.7912154  75.1512263
   5.9060026  34.4048121  75.0119737   7.4166696  34.3269918  75.0728909
  17.0700181  45.2372441  77.6014673  16.1230516  45.1177792  77.5293000
  17.4182954  44.3494939  77.6840935   9.4299754  31.1266580  81.4252915
   9.9534156  31.3728877  82.1879224   9.2112087  31.9586615  81.0056052
   4.8267035  33.3970255  69.2924040   4.4979741  32.5167634  69.1099146
   5.1806406  33.3417923  70.1800429  14.0746614  45.0325157  73.8019025
  13.9271576  44.1041865  73.9826595  14.9000107  45.0545248  73.3176101
   7.9408858  33.6843225  69.6599517   8.2804931  34.2129146  68.9378126
   8.3880979  34.0223631  70.4358084  17.6780736  45.8553716  74.8883898
  18.6027283  45.6496578  74.7508349  17.5096039  45.6070117  75.7973240
  10.6352299  32.0680275  79.1102585  10.2949119  31.2688088  79.5123265
   9.9291305  32.3681986  78.5379419  11.2868771  29.1529588  77.5629909
  12.1094840  28.6790066  77.4408799  11.5306834  29.9320071  78.0628595
   9.9277005  32.1817846  67.8592810  10.6485368  32.5599099  67.3556527
   9.3042309  32.9006723  67.9627788  14.0708128  32.8862995  68.7951143
  14.2871743  33.7687633  68.4939971  13.5902195  32.4949209  68.0656785
   8.8107350  35.8448708  75.3721887   8.6651930  36.1589011  76.2646169
   8.3332553  36.4633609  74.8192786  10.6703732  32.8351256  75.4202777
  10.6565301  31.9392350  75.0835075  11.3876161  32.8421920  76.0541063
  12.5229863  33.2688597  77.4655904  12.2647641  34.1905667  77.4640235
  11.9914904  32.8719031  78.1556368  17.4676052  46.3739384  70.2445990
  17.6412929  45.8085806  69.4919842  17.9604943  47.1740279  70.0625479
   3.2853012  38.3854053  78.3109548   2.7406480  39.1613861  78.4429823
   4.1632362  38.7324857  78.1528670  10.0740628  31.7165637  70.6890347
  10.1956540  30.7882283  70.8881234   9.7842671  31.7304323  69.7768662
  12.9431819  29.4020547  73.8257067  12.9653516  29.4659880  72.8709046
  13.3599878  28.5625056  74.0197573  23.3215443  39.1375807  71.8636289
  23.7646589  38.3883132  71.4655413  22.4441953  39.1285943  71.4810021
  18.4551224  45.6906148  67.3442888  19.1502129  46.3112841  67.5630202
  18.7974375  44.8401499  67.6195266   4.0719034  37.5123949  81.2039705
   3.3300770  37.6606584  81.7904336   3.7511778  37.7732215  80.3406455
  20.3542648  43.1405854  68.8730219  20.8793972  43.4793126  68.1479539
  20.2665000  42.2052869  68.6893353  12.0162696  47.0539927  81.0020095
  12.3249823  46.8089074  81.8742795  12.8138178  47.2586566  80.5138965
  12.0383308  49.2077837  73.2325472  11.5988299  48.7154216  73.9258328
  12.7891425  48.6650805  72.9917547   4.5175647  45.3989378  73.2350100
   5.3433667  45.0993150  72.8548743   4.1669699  44.6297000  73.6839888
   9.4857180  44.7515846  75.3047773   8.8637190  44.0886551  75.0050001
  10.1562047  44.7776978  74.6221421   2.7184252  43.3175704  74.1939033
   1.8816161  42.8897879  74.0123035   2.6907898  43.5108148  75.1309825
   9.5581708  33.2297634  84.8980279   9.6069863  34.1059757  84.5158049
  10.1004222  32.6875027  84.3251923  20.0436554  43.7738757  84.1781417
  19.2532097  43.7562896  83.6385916  19.8069908  44.3127051  84.9330453
  20.1634429  40.6231224  81.4914145  20.2132434  40.4581231  82.4329668
  20.0548352  39.7558483  81.1012026   9.0470687  43.3019769  68.7806234
   9.1958808  43.9855234  68.1272907   9.8537131  43.2824859  69.2955690
  17.4538191  36.6062152  82.8073452  18.3548054  36.4668616  82.5157450
  17.5286166  36.7716606  83.7471629  11.7880996  33.9829006  81.6526638
  10.9184306  34.2762572  81.3809227  12.0240477  34.5669451  82.3733902
  21.6652625  43.0428165  81.7356167  21.3737434  43.4058146  82.5719628
  21.0524757  42.3295173  81.5569499  22.8648308  40.6081045  74.2558737
  23.6995199  41.0470849  74.4196297  23.0007437  40.1319698  73.4366983
  19.9139814  38.1660780  80.2036225  20.3893935  38.3588426  79.3955076
  18.9905379  38.2219966  79.9579608   6.8023320  39.3284947  69.7867303
   6.5569362  38.4247277  69.9847513   6.9719235  39.3302097  68.8446781
  14.4920030  30.2008623  79.1692058  15.0101974  30.9369650  78.8438547
  14.1375163  30.5072617  80.0038818   6.0718968  35.0613305  67.2853464
   5.3788213  35.1357659  66.6293500   5.8270720  34.2973648  67.8074981
  14.7432624  26.6208906  74.6892955  15.0234378  25.9532095  75.3153382
  15.5283231  26.8138001  74.1767619  12.5466093  45.7967900  66.2517981
  11.9740060  46.4158087  65.7988453  13.1198887  46.3467261  66.7857903
  18.6141483  35.0426540  78.4364530  19.5658906  35.1424637  78.4576754
  18.4444933  34.2504808  78.9462615  16.6355862  32.1282123  78.6223931
  16.0405794  32.4087136  77.9270420  16.3505559  32.6176024  79.3940672
  15.7663353  46.0805050  67.3826564  16.6994026  46.0150612  67.5859439
  15.6786565  46.9161317  66.9241096  18.3951369  45.3970920  64.3430511
  18.3165001  45.0630784  65.2366269  19.2161036  45.8892688  64.3421984
  21.0929560  38.2632660  77.5506830  21.0605881  37.3248660  77.7366514
  21.7030184  38.3416696  76.8172655  12.9312891  37.1328712  63.5934034
  13.8771996  37.0034921  63.6622452  12.5527136  36.3943374  64.0703462
  21.2424049  35.0543703  77.5965113  20.7263098  34.2702160  77.4095042
  22.1263998  34.7262420  77.7611632  18.9034776  28.7984719  73.5560926
  18.7059597  28.4899807  74.4404258  19.5134481  29.5246357  73.6858856
  26.9106110  39.3248666  76.6912867  27.6409499  39.0633954  77.2520570
  26.3013056  38.5877388  76.7314935  24.9921407  37.4656529  77.2887318
  24.2654571  37.3312494  76.6803809  24.5768694  37.7733358  78.0944036
  12.8151584  41.1846459  85.0534691  13.7354593  41.3625058  85.2474737
  12.7801167  40.2402504  84.9014390  11.1155809  35.0578689  63.5288919
  10.2087264  34.7611802  63.6051633  11.3931790  34.7608507  62.6623205
   2.0333749  36.3785052  73.9787965   1.7136533  35.5250360  73.6862339
   1.4867177  36.5933630  74.7345933   5.8113656  39.0947493  77.6957472
   6.0299666  40.0264601  77.7145506   6.2239430  38.7355468  78.4812276
  12.7317874  29.6015579  69.6833160  11.9218603  29.2562664  70.0588406
  13.4202291  29.2923122  70.2720772  14.6608423  28.6793625  71.3057457
  15.2139461  29.0989079  71.9647480  14.8978509  27.7529374  71.3480413
  10.6841522  34.6680699  87.0860221  10.5838249  35.6175056  87.0172312
  10.4663064  34.3398938  86.2136291   9.8854593  31.9165624  63.6700898
  10.7473757  32.2420522  63.9296716  10.0704937  31.1297120  63.1573964
   1.9022009  39.9987964  75.9481087   1.2085480  39.5841917  75.4351041
   2.6495000  40.0408500  75.3514506  18.0387230  30.7894151  70.8136121
  17.4585899  31.4478955  70.4314174  17.7723162  29.9671495  70.4023539
  16.4890796  30.1899208  73.0157442  16.9890574  30.3015743  72.2071760
  17.1326404  29.8860261  73.6558250  10.5472792  38.0977838  85.9025283
  10.0639874  38.8978198  86.1089172  10.6333731  38.1085783  84.9492727
   3.8158751  39.9306218  73.8247102   3.7929440  40.0293905  72.8728985
   4.1259388  40.7771368  74.1464268   6.4746129  41.9882373  77.9393716
   7.4289383  41.9566315  77.8723648   6.2758653  41.5272996  78.7543942
   7.0645511  40.5583489  80.5064514   7.8838400  41.0527567  80.5299351
   7.3382319  39.6415457  80.4782082  16.8212108  32.9494241  69.8692470
  15.9337963  33.2343892  69.6512664  17.2366097  32.7888004  69.0219746
  20.1726644  32.9740762  73.5846809  20.9487034  33.4637214  73.8571426
  19.4474778  33.3998816  74.0418678  22.6099202  33.6868381  74.6420749
  23.2043693  33.4464117  73.9314058  22.6825786  32.9675512  75.2694286
   4.8296358  47.5301992  74.9563914   4.6950826  46.7702393  74.3901912
   4.4128420  48.2542892  74.4892703  15.9655321  42.7138916  63.9640490
  16.6691171  42.9188918  64.5798145  15.2417970  43.2815678  64.2289573
  16.7953131  38.4648777  70.0842760  16.7388333  38.9217328  69.2450392
  17.3481474  37.7039461  69.9065602  20.6057937  34.2538509  70.9092879
  20.3494872  33.8535144  71.7401087  19.9810805  34.9682303  70.7843018
  24.9170275  36.9934582  73.4164171  24.3569833  37.0627771  74.1895733
  24.3113779  36.8175567  72.6963667   7.9865484  48.4271309  75.1682357
   7.8697868  49.3716742  75.0661047   7.1657930  48.1244871  75.5568156
  17.8742019  43.1521445  66.0138950  18.7087622  42.7202643  65.8316424
  17.7126361  42.9803458  66.9415844  17.5287911  39.6553558  67.3795289
  17.4736714  39.4897830  66.4383733  16.9033966  40.3629591  67.5357479
   2.3180426  34.8921622  81.2056711   2.9639289  34.3820576  81.6943936
   2.1097577  35.6290304  81.7800136  14.8433818  41.9602470  86.7048852
  15.7124977  42.1343122  86.3435487  14.3640569  42.7796887  86.5824581
  10.8384036  29.1561667  66.9580607  10.8262706  30.1003507  67.1148878
  11.7307458  28.9731813  66.6640068   9.0119998  49.0799571  78.3838285
   9.9147245  49.1123181  78.7004780   8.7857368  48.1500022  78.3984621
  10.7673600  47.8330558  75.0448364   9.8169231  47.8332419  74.9312736
  11.0706086  47.0863292  74.5284399  14.6536156  25.7504444  71.2126544
  13.8868551  25.1962930  71.3583226  15.0646861  25.8226313  72.0740696
   6.6577917  32.0389240  85.3031725   7.5209378  31.6826044  85.5135050
   6.0843327  31.7003134  85.9907130  26.5026294  53.6691096  76.1094126
  27.1404704  53.5497843  75.4057466  26.3847136  54.6171940  76.1682078
  23.3116000  53.6218524  76.0455651  22.9734511  53.5059589  75.1576186
  24.1805768  53.2209689  76.0256657  19.1702816  55.4754000  72.0352542
  18.6067681  55.3843937  71.2668830  19.0555211  54.6553905  72.5155035
  23.7935783  54.7753376  82.0041857  23.7824424  54.3806174  81.1322360
  23.9556422  54.0419448  82.5975628  16.7167248  56.9705192  74.8736762
  17.5088539  56.6296017  74.4583062  16.9563898  57.0800167  75.7938916
  24.7502374  59.1424968  67.3467007  24.0990354  59.7279049  66.9601021
  25.5446737  59.6731163  67.4062044  18.6758001  56.2314105  67.7454141
  19.4488877  55.6843092  67.6067017  19.0283400  57.0958355  67.9568603
  20.5143044  57.5590488  80.9521041  20.2232910  58.4636118  80.8367707
  21.1500028  57.6007015  81.6665110  21.4399251  54.9367336  77.5422400
  22.0362823  54.7123358  76.8279363  21.4974222  54.1952082  78.1447848
  21.0124279  52.3906771  65.3772591  21.2649800  51.8688293  64.6156054
  20.0748838  52.2272917  65.4799275  26.0567562  51.3942550  73.1847334
  26.8430651  50.9761973  72.8337751  26.3206266  52.2988642  73.3528983
  26.2277639  56.8315400  67.8835991  25.5923472  56.9050027  68.5956896
  25.8975046  57.4208999  67.2055070  31.4575989  51.3317783  74.0880313
  32.1901161  50.7617000  74.3218142  30.7015345  50.9439383  74.5286818
  20.7320568  54.2934877  67.5796966  20.6156826  53.6179781  68.2478050
  20.8422828  53.8067251  66.7629119  23.0752109  53.7545024  71.2843655
  22.7110316  53.2275645  71.9956577  23.9319225  53.3643494  71.1110141
  28.9801410  45.0439357  78.5474921  28.6484734  45.9134768  78.3236136
  28.3847023  44.7275641  79.2268952  22.7157596  48.7834924  66.2805004
  22.8831998  49.6515161  66.6475475  22.5254765  48.9462206  65.3566293
  25.4732929  57.2451903  77.9470834  25.1733652  58.1476942  77.8386641
  25.1283989  56.9784086  78.7991987  18.9245411  53.6965700  73.9807539
  17.9995907  53.5641914  74.1885230  19.1729824  54.4759919  74.4777481
  28.8730073  49.7634443  75.6268272  27.9646950  49.6949852  75.3327033
  28.8217669  50.2406388  76.4550097  22.6946817  51.2392582  67.2651671
  22.5746442  51.6849632  68.1037151  21.9999405  51.5877899  66.7065209
  16.2854222  53.3398973  74.8151328  16.4146603  53.5933452  75.7290739
  15.6051673  53.9326681  74.4955983  20.4553709  64.0096223  70.9141802
  20.3777739  64.9604048  70.9930282  19.8515352  63.6642096  71.5716728
  22.9470939  51.1824089  83.5703169  22.1704273  51.7418009  83.5606033
  23.5861502  51.6680872  84.0918039  30.7391719  47.9650882  77.4046145
  30.0966100  48.2583415  76.7585940  30.2346648  47.8503802  78.2099342
  28.3931883  51.7114055  68.0932005  29.3049739  51.9441442  67.9179702
  27.8841530  52.2951099  67.5307083  21.2017311  53.9909542  83.1321136
  21.9431995  54.5294586  82.8555959  20.4954296  54.6175831  83.2892688
  26.6772651  56.1338683  81.7293297  27.0856007  55.6921093  80.9847930
  25.9549912  55.5591310  81.9827490  23.0303721  51.0711289  79.1026854
  23.8764916  51.4950703  79.2461503  22.9702358  50.4144914  79.7965417
  27.0001465  56.6939873  75.4845586  26.3710328  56.8585587  74.7821654
  26.6127127  57.1081483  76.2556550  30.8790697  57.6294311  72.8389950
  30.1941735  58.0093213  72.2886983  30.9634546  58.2389638  73.5721898
  26.1803166  48.7315658  80.7608028  25.9364098  49.4857718  80.2242304
  26.4563096  49.1101005  81.5955275  28.1341629  55.2754270  79.4385293
  28.3458524  55.9186030  78.7619675  28.0871377  54.4416587  78.9707224
  25.7367858  47.8872091  76.3421866  24.8752337  48.1853344  76.6338603
  25.7630292  48.1042490  75.4102898  22.5529427  56.4314281  72.7495671
  23.0167773  56.7101984  71.9600294  22.2886225  55.5297726  72.5668762
  19.4453508  55.9785763  75.6875435  20.0154865  56.4073031  75.0492919
  20.0361620  55.6968348  76.3859620  21.4898313  52.5537434  69.5585236
  22.1922357  53.0058477  70.0259163  21.1578942  51.9121253  70.1865130
  19.9378675  51.1449190  83.9336446  19.3077335  51.8265471  84.1671843
  19.8314763  51.0332272  82.9889584  15.2323647  50.8120986  74.8602370
  14.4422701  51.0678515  74.3842481  15.7234895  51.6269324  74.9654411
  29.2487457  58.1526226  77.6107651  30.0704900  57.7506413  77.3290332
  29.2449860  58.0494460  78.5623767  17.1838393  51.1765566  71.8185847
  16.3869556  51.2884260  72.3369342  16.9563985  51.5152218  70.9526737
  23.0144060  57.7010269  79.7668361  23.0788493  58.1630676  80.6026533
  22.3054984  57.0707634  79.8950671  13.5161350  51.0651477  77.2917361
  13.7669389  51.9498487  77.5574937  14.0520899  50.8856078  76.5192453
  22.7292078  59.3678376  69.6347342  22.5937753  60.2129912  70.0632189
  23.2701890  59.5697654  68.8713275  19.2159417  45.4469956  86.2961697
  18.8226363  44.8936155  86.9709341  20.0325558  45.7580535  86.6868214
  16.1821475  56.8853814  70.2075267  16.6945996  57.6797065  70.3580831
  16.8344188  56.1880105  70.1408868  17.9916360  60.0019571  72.2898020
  18.1682988  60.9237535  72.1019004  18.7873193  59.6877990  72.7192400
  22.1327378  46.8627835  83.8881953  22.8737092  47.4634988  83.8086416
  22.3645301  46.1205473  83.3299996  17.2768716  52.0484203  82.1660183
  17.1622232  51.1469460  82.4667282  16.4213234  52.2947899  81.8145000
  24.3560554  59.9901943  83.7647684  23.9124408  59.2038321  83.4468588
  25.0177768  60.1781093  83.0991575  19.1147675  61.5197744  78.2908362
  19.6655100  61.3914808  77.5185356  18.2759151  61.8192633  77.9403255
  26.4541792  60.2704743  81.7929085  26.4360268  61.0913624  81.3009354
  27.3761712  60.1458818  82.0179226  22.9114846  57.7848872  82.6352593
  23.4443183  57.0237160  82.4051901  22.3828928  57.4922524  83.3776748
  26.0784541  42.8908938  78.1646235  25.7348811  43.7810580  78.0885346
  26.4463504  42.7010596  77.3015820  14.1470392  55.2142469  70.9834837
  14.9845614  55.6239477  70.7668545  14.3248660  54.2741911  70.9535031
  26.0434824  52.8817549  66.6718670  25.5281448  53.6522154  66.9107058
  25.7712133  52.2082686  67.2951732  23.6281935  47.7267250  71.7303909
  22.7723531  47.3374101  71.5509547  24.0408887  47.8059211  70.8703694
  25.1581082  45.2613593  76.1295468  24.6545877  45.2243729  75.3163274
  25.4511689  46.1706336  76.1892125  21.4023968  45.3452323  75.1361650
  22.2676964  45.1495132  74.7767540  21.4701477  45.1162675  76.0631007
  31.0169098  55.6349904  68.6071844  30.2398541  55.2961063  68.1627006
  31.6960579  55.6402527  67.9326809  25.8321127  50.7544641  68.4978451
  25.5271263  51.0690791  69.3488595  26.7851569  50.8326061  68.5405784
  24.2767559  56.9134865  70.1471405  23.7488921  56.1787624  69.8344643
  23.7755062  57.6909541  69.9011374  29.2560405  55.1083885  75.2638452
  28.5984080  55.7983147  75.3518580  30.0600804  55.4980317  75.6072438
  19.0086287  47.5754531  72.5078017  19.5830039  47.3529713  71.7751210
  19.5957269  47.6443226  73.2606618  28.0665864  53.4628258  73.3142393
  28.5797746  54.0958250  73.8164103  28.7167088  52.8629453  72.9485753
  19.3355874  49.6058992  66.5273902  18.4993186  49.9433679  66.8483177
  19.1960643  49.4707972  65.5901039  21.3108954  44.4495780  71.2353086
  20.6573367  44.1344797  70.6109701  21.2689429  43.8271520  71.9612909
  22.4220159  54.7315075  63.1506378  21.5147221  54.5004328  63.3497527
  22.9191191  53.9352694  63.3380360  25.3288238  63.4412582  66.0703065
  24.6549937  63.7444279  66.6788022  25.7154060  64.2441663  65.7208522
  24.5446695  50.9377713  75.5600734  23.6269256  51.1592661  75.4022422
  24.9606838  51.0124024  74.7012441  25.3281743  52.3369129  70.6903414
  26.0753562  52.8490526  70.3810536  25.5973332  52.0153182  71.5507808
  23.6008393  54.8327670  67.6730369  22.6919612  54.5486703  67.7702838
  23.6303477  55.2526748  66.8133675  28.8327660  58.4434259  71.4421536
  28.3789987  57.6025169  71.4986727  28.2021627  59.0795658  71.7796316
  27.7760580  49.3726245  72.6722204  27.0383337  48.8603632  73.0032446
  28.0287353  48.9326627  71.8605480  27.2760599  60.2810756  72.3771354
  27.5683574  60.8415813  71.6583720  27.7859220  60.5739317  73.1324513
  27.8772207  42.1502497  73.2663973  28.1831084  41.2899861  72.9789888
  28.6024812  42.7420118  73.0662967  14.1696563  52.5533184  71.6545571
  13.9720963  51.9602545  70.9296637  13.6143227  52.2485394  72.3721510
  22.1493287  52.4456291  73.7740164  22.2041897  51.4930127  73.6982640
  21.3384489  52.6015730  74.2581462  23.2984481  56.3736414  65.0118447
  22.8603910  55.6572273  64.5524084  24.0394921  56.6012528  64.4503538
  20.0885647  51.0633350  71.5330543  19.2753512  51.3627521  71.9395735
  20.5844641  50.6689039  72.2505025  22.2394225  61.0591107  73.4664807
  22.1970403  61.2851953  72.5373339  23.1556923  60.8254482  73.6150609
  25.6859858  51.5275175  80.3645437  26.0409246  51.7546648  81.2239902
  26.3331990  51.8593552  79.7422692  31.4157595  54.6493611  71.0694766
  31.2775494  54.8395207  70.1415955  31.0593814  55.4112993  71.5262817
  19.5799721  48.6351706  77.1491778  20.2199101  48.4940465  76.4514741
  18.7477252  48.3486219  76.7730380  31.4426975  56.7170138  76.0806037
  31.8763482  56.6245427  76.9289091  32.1558556  56.6927638  75.4426053
  20.3560025  57.9354136  73.2626770  21.1500624  57.4404456  73.0609345
  19.6451718  57.4071999  72.8994476  25.1754870  60.3172232  77.6139138
  25.2291892  60.8863168  78.3816854  24.3069651  60.4874117  77.2493175
  16.6642789  52.0797218  69.3386523  15.7340377  52.0181673  69.5556485
  16.7600261  51.5573171  68.5423164  16.5828338  48.6052031  71.9264764
  16.8435155  49.5197364  71.8173925  17.4045510  48.1376473  72.0761377
  18.0553263  50.0189788  79.0963589  18.7276317  49.8107150  78.4476238
  17.2283050  49.8211874  78.6568821  32.3042524  56.7593838  78.6138923
  32.4978415  57.6639649  78.8598197  32.2043143  56.3001257  79.4477508
  23.9578835  46.6451729  81.1129250  23.3106750  47.3441679  81.0193726
  24.7279851  47.0787873  81.4805498  27.3657633  56.9100581  84.1879803
  27.2143140  56.6811133  83.2709887  27.3562313  57.8671182  84.2011148
  24.1342970  54.4832494  79.1726070  25.0635030  54.6343653  78.9995037
  23.7134000  54.5716515  78.3174716  22.9331301  58.5083158  76.9424607
  22.7942387  58.1401943  77.8150545  22.1445898  59.0230798  76.7708565
  23.5279453  63.6092255  68.2850144  23.7031209  63.1380298  69.0995766
  22.8412241  64.2358021  68.5131404  24.4836516  57.8864761  74.3313445
  24.1486349  57.8465531  75.2271095  23.9840462  57.2209477  73.8583855
  18.4580760  53.2932391  79.8566026  18.3200558  52.5612630  80.4577565
  19.3685684  53.2041291  79.5750214  27.4195708  55.2320795  64.6050505
  26.8024879  54.5067623  64.5083557  26.9512197  55.9930155  64.2617579
  21.0863061  53.0052350  79.3449706  21.7962680  52.3645542  79.3036324
  21.0432369  53.2565245  80.2675887  29.0749840  59.9419704  82.2656285
  29.0162386  59.2578924  81.5986868  29.4769358  60.6838694  81.8136911
  19.7991995  49.9917568  81.1645345  19.2629352  49.5408307  81.8166942
  19.2108704  50.1263477  80.4215810  18.0940539  66.7581617  75.0590004
  18.3337137  67.3900142  75.7369022  17.2509735  66.4069657  75.3455363
  19.2094254  49.4506220  63.7271809  18.3323720  49.3295020  63.3634056
  19.6852007  48.6592298  63.4750698  29.0767247  57.9059288  80.4970265
  28.1894026  57.5685209  80.6196664  29.6465798  57.1742319  80.7339030
  10.7296394  54.2383379  73.8213316  11.4167434  53.9245109  73.2334331
  10.5744523  55.1424744  73.5480568  15.5331116  49.1273576  78.2498340
  15.4489305  48.5199245  77.5148750  14.7113823  49.6182594  78.2507836
  22.6068400  62.5660740  77.4631508  22.5338572  63.3715711  77.9750812
  22.1645794  62.7652706  76.6379529  22.3958180  61.8032510  70.9734329
  21.6125702  62.3454190  71.0672554  23.0950925  62.3206490  71.3728571
  25.7054830  47.6127139  73.6168535  26.2023530  46.8597102  73.2969605
  24.9341812  47.6491456  73.0511744  33.5584588  53.3167505  75.2586826
  33.5474464  54.1992220  74.8880759  32.6901967  52.9639056  75.0641363
  26.7884611  56.3698827  71.1906958  25.8540890  56.4900289  71.0211663
  26.9661279  55.4671293  70.9266968  22.2889799  49.7544522  73.3440219
  21.9187586  49.2015563  74.0321125  22.7848891  49.1502656  72.7915219
  30.1757162  52.2116146  71.7256992  30.6417614  53.0444137  71.6517295
  30.6264663  51.7461127  72.4302251  20.1178998  60.2142017  80.4395237
  20.8188457  60.8478500  80.5924632  19.6474113  60.5556749  79.6790877
  28.2433393  58.5559967  68.7243144  28.5193237  58.4416562  69.6337018
  27.3737892  58.1577452  68.6855318  28.1473825  44.5796733  75.7647894
  27.2336905  44.8100960  75.9330101  28.5766926  44.6635177  76.6161926
  27.9180283  52.7686625  78.2647788  27.2651734  53.0162532  77.6100241
  28.2960663  51.9550763  77.9310265  24.8787457  62.8046318  72.3675958
  25.0609852  61.9867974  72.8303710  25.7020443  63.0214010  71.9300848
  25.2129623  61.7314503  69.6291007  25.7417389  61.2206958  69.0161169
  25.4757842  61.4157033  70.4936540  23.9667857  53.5106436  84.7513825
  23.2908494  53.4100565  85.4216200  24.7895490  53.3545650  85.2149822
  15.7146716  59.7478372  77.3726340  16.3000152  59.0022060  77.5054244
  15.5171554  60.0582329  78.2563004  18.5685371  62.7829620  72.3888782
  17.8995746  63.2675747  71.9052823  18.4298241  63.0298840  73.3032161
  10.3064370  52.3183973  76.0930783  10.3448470  51.7847563  76.8867901
   9.8004663  51.7919178  75.4741760  17.6855133  47.1648513  79.5893326
  17.7496459  48.0263344  79.1770723  17.6222253  46.5522515  78.8565684
  17.1607405  49.2371646  83.2366360  17.7879444  48.8548723  83.8503884
  16.3035324  49.0185848  83.6022052  13.9372948  51.0448075  69.1684715
  14.2326389  50.1358753  69.1151768  13.0360984  51.0235814  68.8465717
  17.4667195  49.1204071  75.1512263  16.7453781  49.7340039  75.0119737
  18.2560451  49.6561836  75.0728909  27.9093935  60.5664359  77.6014673
  26.9624271  60.4469710  77.5293000  28.2576708  59.6786857  77.6840935
  20.2693508  46.4558498  81.4252915  20.7927910  46.7020794  82.1879224
  20.0505842  47.2878533  81.0056052  15.6660789  48.7262172  69.2924040
  15.3373496  47.8459551  69.1099146  16.0200160  48.6709841  70.1800429
  24.9140368  60.3617075  73.8019025  24.7665331  59.4333783  73.9826595
  25.7393862  60.3837166  73.3176101  18.7802613  49.0135142  69.6599517
  19.1198685  49.5421063  68.9378126  19.2274733  49.3515548  70.4358084
  28.5174490  61.1845634  74.8883898  29.4421038  60.9788495  74.7508349
  28.3489794  60.9362035  75.7973240  21.4746053  47.3972193  79.1102585
  21.1342874  46.5980006  79.5123265  20.7685060  47.6973904  78.5379419
  22.1262525  44.4821505  77.5629909  22.9488595  44.0081984  77.4408799
  22.3700589  45.2611989  78.0628595  20.7670760  47.5109764  67.8592810
  21.4879122  47.8891017  67.3556527  20.1436064  48.2298641  67.9627788
  24.9101883  48.2154913  68.7951143  25.1265497  49.0979551  68.4939971
  24.4295950  47.8241126  68.0656785  19.6501104  51.1740626  75.3721887
  19.5045685  51.4880929  76.2646169  19.1726308  51.7925526  74.8192786
  21.5097487  48.1643174  75.4202777  21.4959056  47.2684267  75.0835075
  22.2269915  48.1713838  76.0541063  23.3623618  48.5980514  77.4655904
  23.1041395  49.5197585  77.4640235  22.8308658  48.2010949  78.1556368
  28.3069806  61.7031301  70.2445990  28.4806684  61.1377724  69.4919842
  28.7998698  62.5032196  70.0625479  14.1246766  53.7145970  78.3109548
  13.5800234  54.4905778  78.4429823  15.0026116  54.0616775  78.1528670
  20.9134383  47.0457554  70.6890347  21.0350294  46.1174200  70.8881234
  20.6236425  47.0596240  69.7768662  23.7825573  44.7312465  73.8257067
  23.8047270  44.7951798  72.8709046  24.1993632  43.8916973  74.0197573
  34.1609198  54.4667724  71.8636289  34.6040344  53.7175049  71.4655413
  33.2835708  54.4577861  71.4810021  29.2944979  61.0198066  67.3442888
  29.9895884  61.6404758  67.5630202  29.6368129  60.1693417  67.6195266
  14.9112788  52.8415867  81.2039705  14.1694524  52.9898502  81.7904336
  14.5905532  53.1024132  80.3406455  31.1936402  58.4697771  68.8730219
  31.7187726  58.8085044  68.1479539  31.1058755  57.5344787  68.6893353
  22.8556451  62.3831845  81.0020095  23.1643577  62.1380992  81.8742795
  23.6531933  62.5878483  80.5138965  22.8777063  64.5369755  73.2325472
  22.4382053  64.0446133  73.9258328  23.6285180  63.9942722  72.9917547
  15.3569402  60.7281295  73.2350100  16.1827422  60.4285067  72.8548743
  15.0063454  59.9588918  73.6839888  20.3250935  60.0807764  75.3047773
  19.7030944  59.4178469  75.0050001  20.9955802  60.1068896  74.6221421
  13.5578007  58.6467622  74.1939033  12.7209915  58.2189796  74.0123035
  13.5301652  58.8400065  75.1309825  20.3975462  48.5589552  84.8980279
  20.4463618  49.4351674  84.5158049  20.9397977  48.0166945  84.3251923
  31.0028183  55.9523141  81.4914145  31.0526188  55.7873149  82.4329668
  30.8942106  55.0850400  81.1012026  19.8864442  58.6311687  68.7806234
  20.0352562  59.3147151  68.1272907  20.6930885  58.6116777  69.2955690
  28.2931946  51.9354069  82.8073452  29.1941808  51.7960534  82.5157450
  28.3679920  52.1008524  83.7471629  22.6274751  49.3120924  81.6526638
  21.7578060  49.6054490  81.3809227  22.8634231  49.8961369  82.3733902
  32.5046380  58.3720083  81.7356167  32.2131188  58.7350063  82.5719628
  31.8918511  57.6587091  81.5569499  33.7042062  55.9372963  74.2558737
  34.5388954  56.3762767  74.4196297  33.8401191  55.4611616  73.4366983
  30.7533568  53.4952697  80.2036225  31.2287690  53.6880344  79.3955076
  29.8299134  53.5511883  79.9579608  17.6417075  54.6576865  69.7867303
  17.3963117  53.7539195  69.9847513  17.8112989  54.6594015  68.8446781
  25.3313785  45.5300541  79.1692058  25.8495729  46.2661568  78.8438547
  24.9768917  45.8364534  80.0038818  16.9112722  50.3905222  67.2853464
  16.2181967  50.4649577  66.6293500  16.6664474  49.6265566  67.8074981
  25.5826379  41.9500824  74.6892955  25.8628133  41.2824013  75.3153382
  26.3676986  42.1429919  74.1767619  23.3859847  61.1259817  66.2517981
  22.8133814  61.7450005  65.7988453  23.9592641  61.6759179  66.7857903
  29.4535237  50.3718457  78.4364530  30.4052660  50.4716555  78.4576754
  29.2838688  49.5796726  78.9462615  27.4749617  47.4574041  78.6223931
  26.8799549  47.7379053  77.9270420  27.1899313  47.9467942  79.3940672
  26.6057107  61.4096968  67.3826564  27.5387780  61.3442529  67.5859439
  26.5180320  62.2453234  66.9241096  29.2345124  60.7262838  64.3430511
  29.1558755  60.3922701  65.2366269  30.0554791  61.2184606  64.3421984
  31.9323315  53.5924577  77.5506830  31.8999635  52.6540578  77.7366514
  32.5423939  53.6708614  76.8172655  23.7706646  52.4620630  63.5934034
  24.7165751  52.3326838  63.6622452  23.3920891  51.7235292  64.0703462
  29.7428530  44.1276636  73.5560926  29.5453352  43.8191724  74.4404258
  30.3528236  44.8538275  73.6858856  23.6545338  56.5138376  85.0534691
  24.5748348  56.6916975  85.2474737  23.6194921  55.5694422  84.9014390
  21.9549563  50.3870607  63.5288919  21.0481018  50.0903719  63.6051633
  22.2325544  50.0900425  62.6623205  12.8727503  51.7076970  73.9787965
  12.5530288  50.8542278  73.6862339  12.3260932  51.9225548  74.7345933
  16.6507411  54.4239411  77.6957472  16.8693421  55.3556519  77.7145506
  17.0633185  54.0647385  78.4812276  23.5711629  44.9307496  69.6833160
  22.7612357  44.5854581  70.0588406  24.2596046  44.6215040  70.2720772
  25.5002177  44.0085543  71.3057457  26.0533216  44.4280996  71.9647480
  25.7372263  43.0821291  71.3480413  21.5235276  49.9972617  87.0860221
  21.4232003  50.9466974  87.0172312  21.3056818  49.6690856  86.2136291
  20.7248348  47.2457542  63.6700898  21.5867512  47.5712440  63.9296716
  20.9098692  46.4589038  63.1573964  12.7415763  55.3279881  75.9481087
  12.0479235  54.9133834  75.4351041  13.4888754  55.3700418  75.3514506
  28.8780984  46.1186068  70.8136121  28.2979653  46.7770872  70.4314174
  28.6116917  45.2963413  70.4023539  27.3284550  45.5191126  73.0157442
  27.8284329  45.6307660  72.2071760  27.9720158  45.2152179  73.6558250
  21.3866546  53.4269756  85.9025283  20.9033628  54.2270116  86.1089172
  21.4727485  53.4377700  84.9492727  14.6552506  55.2598135  73.8247102
  14.6323194  55.3585823  72.8728985  14.9653142  56.1063286  74.1464268
  17.3139884  57.3174290  77.9393716  18.2683137  57.2858233  77.8723648
  17.1152407  56.8564914  78.7543942  17.9039266  55.8875406  80.5064514
  18.7232155  56.3819485  80.5299351  18.1776074  54.9707374  80.4782082
  27.6605862  48.2786159  69.8692470  26.7731717  48.5635809  69.6512664
  28.0759851  48.1179922  69.0219746  31.0120398  48.3032680  73.5846809
  31.7880788  48.7929132  73.8571426  30.2868532  48.7290734  74.0418678
  33.4492957  49.0160299  74.6420749  34.0437448  48.7756035  73.9314058
  33.5219541  48.2967429  75.2694286  15.6690113  62.8593910  74.9563914
  15.5344581  62.0994311  74.3901912  15.2522175  63.5834810  74.4892703
  26.8049076  58.0430833  63.9640490  27.5084926  58.2480836  64.5798145
  26.0811724  58.6107595  64.2289573  27.6346886  53.7940695  70.0842760
  27.5782087  54.2509246  69.2450392  28.1875228  53.0331379  69.9065602
  31.4451692  49.5830426  70.9092879  31.1888626  49.1827062  71.7401087
  30.8204560  50.2974220  70.7843018  18.8259238  63.7563227  75.1682357
  18.7091623  64.7008659  75.0661047  18.0051685  63.4536788  75.5568156
  28.7135773  58.4813362  66.0138950  29.5481377  58.0494561  65.8316424
  28.5520116  58.3095376  66.9415844  28.3681665  54.9845476  67.3795289
  28.3130469  54.8189747  66.4383733  27.7427720  55.6921509  67.5357479
  13.1574180  50.2213540  81.2056711  13.8033044  49.7112494  81.6943936
  12.9491331  50.9582222  81.7800136  25.6827572  57.2894388  86.7048852
  26.5518732  57.4635040  86.3435487  25.2034324  58.1088804  86.5824581
  21.6777791  44.4853585  66.9580607  21.6656460  45.4295425  67.1148878
  22.5701213  44.3023730  66.6640068  19.8513753  64.4091489  78.3838285
  20.7540999  64.4415099  78.7004780  19.6251123  63.4791940  78.3984621
  21.6067355  63.1622475  75.0448364  20.6562986  63.1624337  74.9312736
  21.9099841  62.4155210  74.5284399  25.4929910  41.0796361  71.2126544
  24.7262306  40.5254848  71.3583226  25.9040615  41.1518230  72.0740696
  17.4971671  47.3681157  85.3031725  18.3603133  47.0117962  85.5135050
  16.9237082  47.0295052  85.9907130  29.5151756  71.5606023  67.7454141
  30.2882632  71.0135010  67.6067017  29.8677155  72.4250272  67.9568603
  31.8518034  67.7198689  65.3772591  32.1043554  67.1980210  64.6156054
  30.9142593  67.5564835  65.4799275  31.5714322  69.6226795  67.5796966
  31.4550581  68.9471698  68.2478050  31.6816582  69.1359169  66.7629119
  33.5551350  64.1126842  66.2805004  33.7225753  64.9807078  66.6475475
  33.3648519  64.2754124  65.3566293  33.5340571  66.5684499  67.2651671
  33.4140196  67.0141550  68.1037151  32.8393160  66.9169817  66.7065209
  32.3292068  67.8829351  69.5585236  33.0316111  68.3350395  70.0259163
  31.9972696  67.2413170  70.1865130  28.0232147  66.5057483  71.8185847
  27.2263310  66.6176178  72.3369342  27.7957739  66.8444136  70.9526737
  36.9178296  58.2200856  78.1646235  36.5742565  59.1102498  78.0885346
  37.2857258  58.0302514  77.3015820  34.4675690  63.0559168  71.7303909
  33.6117286  62.6666018  71.5509547  34.8802641  63.1351129  70.8703694
  35.9974836  60.5905511  76.1295468  35.4939632  60.5535646  75.3163274
  36.2905443  61.4998254  76.1892125  29.8480041  62.9046449  72.5078017
  30.4223793  62.6821630  71.7751210  30.4351024  62.9735143  73.2606618
  30.1749628  64.9350910  66.5273902  29.3386941  65.2725596  66.8483177
  30.0354398  64.7999890  65.5901039  32.1502709  59.7787698  71.2353086
  31.4967121  59.4636715  70.6109701  32.1083183  59.1563438  71.9612909
  25.0090318  67.8825102  71.6545571  24.8114717  67.2894462  70.9296637
  24.4536982  67.5777312  72.3721510  30.9279401  66.3925268  71.5330543
  30.1147267  66.6919438  71.9395735  31.4238395  65.9980957  72.2505025
  27.5036543  67.4089136  69.3386523  26.5734131  67.3473591  69.5556485
  27.5994015  66.8865088  68.5423164  27.4222092  63.9343948  71.9264764
  27.6828910  64.8489282  71.8173925  28.2439265  63.4668391  72.0761377
  30.0488009  64.7798137  63.7271809  29.1717475  64.6586938  63.3634056
  30.5245762  63.9884215  63.4750698  21.5690149  69.5675297  73.8213316
  22.2561189  69.2537027  73.2334331  21.4138277  70.4716662  73.5480568
  36.5448585  62.9419057  73.6168535  37.0417284  62.1889019  73.2969605
  35.7735566  62.9783374  73.0511744  21.1458125  67.6475890  76.0930783
  21.1842224  67.1139481  76.8867901  20.6398418  67.1211096  75.4741760
  28.5248887  62.4940431  79.5893326  28.5890214  63.3555262  79.1770723
  28.4616007  61.8814432  78.8565684  24.7766702  66.3739992  69.1684715
  25.0720143  65.4650671  69.1151768  23.8754738  66.3527732  68.8465717
  28.3060949  64.4495989  75.1512263  27.5847535  65.0631957  75.0119737
  29.0954205  64.9853754  75.0728909  26.5054544  64.0554090  69.2924040
  26.1767250  63.1751469  69.1099146  26.8593915  64.0001759  70.1800429
  29.6196367  64.3427060  69.6599517  29.9592440  64.8712981  68.9378126
  30.0668488  64.6807466  70.4358084  32.3139808  62.7264111  79.1102585
  31.9736628  61.9271924  79.5123265  31.6078814  63.0265821  78.5379419
  32.9656280  59.8113423  77.5629909  33.7882349  59.3373901  77.4408799
  33.2094343  60.5903907  78.0628595  31.6064514  62.8401681  67.8592810
  32.3272877  63.2182934  67.3556527  30.9829818  63.5590558  67.9627788
  32.3491241  63.4935092  75.4202777  32.3352810  62.5976185  75.0835075
  33.0663670  63.5005755  76.0541063  31.7528137  62.3749472  70.6890347
  31.8744049  61.4466118  70.8881234  31.4630180  62.3888158  69.7768662
  34.6219328  60.0604382  73.8257067  34.6441025  60.1243715  72.8709046
  35.0387387  59.2208891  74.0197573  28.4810829  69.9868782  69.7867303
  28.2356871  69.0831112  69.9847513  28.6506744  69.9885933  68.8446781
  36.1707539  60.8592459  79.1692058  36.6889483  61.5953486  78.8438547
  35.8162672  61.1656452  80.0038818  27.7506477  65.7197140  67.2853464
  27.0575722  65.7941495  66.6293500  27.5058229  64.9557483  67.8074981
  36.4220133  57.2792741  74.6892955  36.7021887  56.6115930  75.3153382
  37.2070740  57.4721837  74.1767619  34.6100400  67.7912548  63.5934034
  35.5559505  67.6618756  63.6622452  34.2314645  67.0527210  64.0703462
  32.7943317  65.7162524  63.5288919  31.8874773  65.4195637  63.6051633
  33.0719298  65.4192342  62.6623205  23.7121258  67.0368888  73.9787965
  23.3924042  66.1834196  73.6862339  23.1654686  67.2517466  74.7345933
  34.4105383  60.2599414  69.6833160  33.6006112  59.9146499  70.0588406
  35.0989800  59.9506958  70.2720772  36.3395932  59.3377461  71.3057457
  36.8926970  59.7572914  71.9647480  36.5766018  58.4113209  71.3480413
  31.5642102  62.5749459  63.6700898  32.4261266  62.9004358  63.9296716
  31.7492446  61.7880955  63.1573964  32.5171545  59.8145502  66.9580607
  32.5050215  60.7587342  67.1148878  33.4094967  59.6315648  66.6640068
  36.3323665  56.4088279  71.2126544  35.5656060  55.8546766  71.3583226
  36.7434370  56.4810148  72.0740696  40.8490325  86.1337836  72.0352542
  40.2855190  86.0427773  71.2668830  40.7342720  85.3137740  72.5155035
  46.4289883  89.8008803  67.3467007  45.7777863  90.3862884  66.9601021
  47.2234246  90.3314998  67.4062044  40.3545510  86.8897941  67.7454141
  41.1276386  86.3426928  67.6067017  40.7070909  87.7542190  67.9568603
  42.6911788  83.0490607  65.3772591  42.9437309  82.5272128  64.6156054
  41.7536347  82.8856752  65.4799275  47.9065148  87.4899235  67.8835991
  47.2710981  87.5633862  68.5956896  47.5762555  88.0792834  67.2055070
  42.4108077  84.9518713  67.5796966  42.2944335  84.2763616  68.2478050
  42.5210337  84.4651087  66.7629119  44.7539618  84.4128860  71.2843655
  44.3897825  83.8859481  71.9956577  45.6106734  84.0227329  71.1110141
  42.1341218  94.6680059  70.9141802  42.0565248  95.6187884  70.9930282
  41.5302861  94.3225931  71.5716728  50.0719392  82.3697890  68.0932005
  50.9837248  82.6025277  67.9179702  49.5629039  82.9534934  67.5307083
  59.0180959  85.1548809  73.9592622  58.2644667  84.5856207  73.8036627
  59.1528500  85.1211474  74.9063257  44.4079587  90.0262212  69.6347342
  44.2725262  90.8713747  70.0632189  44.9489399  90.2281489  68.8713275
  37.8608984  87.5437650  70.2075267  38.3733505  88.3380900  70.3580831
  38.5131697  86.8463940  70.1408868  39.6703869  90.6603406  72.2898020
  39.8470497  91.5821371  72.1019004  40.4660702  90.3461825  72.7192400
  40.7935184  92.1781580  78.2908362  41.3442609  92.0498643  77.5185356
  39.9546660  92.4776469  77.9403255  35.8257901  85.8726304  70.9834837
  36.6633123  86.2823312  70.7668545  36.0036169  84.9325746  70.9535031
  47.7222333  83.5401385  66.6718670  47.2068957  84.3105989  66.9107058
  47.4499642  82.8666521  67.2951732  52.6956607  86.2933739  68.6071844
  51.9186050  85.9544899  68.1627006  53.3748088  86.2986363  67.9326809
  45.9555068  87.5718700  70.1471405  45.4276430  86.8371460  69.8344643
  45.4542571  88.3493376  69.9011374  44.1007668  85.3898910  63.1506378
  43.1934730  85.1588164  63.3497527  44.5978700  84.5936530  63.3380360
  47.0075747  94.0996418  66.0703065  46.3337446  94.4028114  66.6788022
  47.3941569  94.9025498  65.7208522  45.2795902  85.4911505  67.6730369
  44.3707121  85.2070538  67.7702838  45.3090986  85.9110584  66.8133675
  48.9548108  90.9394591  72.3771354  49.2471083  91.4999649  71.6583720
  49.4646729  91.2323152  73.1324513  35.8484072  83.2117019  71.6545571
  35.6508472  82.6186380  70.9296637  35.2930736  82.9069230  72.3721510
  44.9771990  87.0320249  65.0118447  44.5391419  86.3156108  64.5524084
  45.7182430  87.2596364  64.4503538  43.9181734  91.7174943  73.4664807
  43.8757912  91.9435789  72.5373339  44.8344432  91.4838317  73.6150609
  53.0945104  85.3077446  71.0694766  52.9563003  85.4979042  70.1415955
  52.7381323  86.0696829  71.5262817  42.0347534  88.5937972  73.2626770
  42.8288133  88.0988292  73.0609345  41.3239227  88.0655835  72.8994476
  45.2066962  94.2676090  68.2850144  45.3818718  93.7964133  69.0995766
  44.5199750  94.8941856  68.5131404  49.0983217  85.8904631  64.6050505
  48.4812388  85.1651459  64.5083557  48.6299706  86.6513991  64.2617579
  39.7728048  97.4165453  75.0590004  40.0124646  98.0483977  75.7369022
  38.9297244  97.0653493  75.3455363  44.0745689  92.4616345  70.9734329
  43.2913211  93.0038025  71.0672554  44.7738434  92.9790325  71.3728571
  48.4672120  87.0282662  71.1906958  47.5328399  87.1484124  71.0211663
  48.6448788  86.1255129  70.9266968  51.8544671  82.8699981  71.7256992
  52.3205123  83.7027973  71.6517295  52.3052172  82.4044963  72.4302251
  49.9220902  89.2143802  68.7243144  50.1980746  89.1000397  69.6337018
  49.0525401  88.8161287  68.6855318  46.5574966  93.4630153  72.3675958
  46.7397361  92.6451809  72.8303710  47.3807952  93.6797846  71.9300848
  46.8917132  92.3898338  69.6291007  47.4204898  91.8790793  69.0161169
  47.1545351  92.0740869  70.4936540  37.3934225  90.4062208  77.3726340
  37.9787661  89.6605896  77.5054244  37.1959063  90.7166164  78.2563004
  40.2472880  93.4413455  72.3888782  39.5783255  93.9259583  71.9052823
  40.1085749  93.6882676  73.3032161  44.3878148  95.4757199  78.9871441
  44.9396456  95.6388820  79.7520526  44.7284342  96.0661636  78.3151466
  47.5246536  93.4239174  75.9735123  47.3997675  92.6228914  75.4646068
  48.1825627  93.9185368  75.4849093  46.5927877  91.0200910  73.8019025
  46.4452840  90.0917618  73.9826595  47.4181371  91.0421001  73.3176101
  49.9857315  92.3615137  70.2445990  50.1594193  91.7961559  69.4919842
  50.4786207  93.1616032  70.0625479  55.8396707  85.1251560  71.8636289
  56.2827853  84.3758885  71.4655413  54.9623217  85.1161696  71.4810021
  50.9732488  91.6781901  67.3442888  51.6683392  92.2988594  67.5630202
  51.3155638  90.8277252  67.6195266  52.8723911  89.1281607  68.8730219
  53.3975235  89.4668879  68.1479539  52.7846264  88.1928622  68.6893353
  44.5564572  95.1953590  73.2325472  44.1169562  94.7029969  73.9258328
  45.3072689  94.6526558  72.9917547  37.0356911  91.3865131  73.2350100
  37.8614931  91.0868903  72.8548743  36.6850963  90.6172753  73.6839888
  42.0038444  90.7391599  75.3047773  41.3818453  90.0762304  75.0050001
  42.6743311  90.7652731  74.6221421  35.2365516  89.3051457  74.1939033
  34.3997424  88.8773632  74.0123035  35.2089161  89.4983901  75.1309825
  41.5651951  89.2895522  68.7806234  41.7140071  89.9730987  68.1272907
  42.3718394  89.2700612  69.2955690  39.3204584  85.3160700  69.7867303
  39.0750626  84.4123030  69.9847513  39.4900498  85.3177850  68.8446781
  45.0647356  91.7843653  66.2517981  44.4921323  92.4033840  65.7988453
  45.6380150  92.3343014  66.7857903  48.2844616  92.0680803  67.3826564
  49.2175289  92.0026365  67.5859439  48.1967829  92.9037070  66.9241096
  50.9132633  91.3846673  64.3430511  50.8346264  91.0506537  65.2366269
  51.7342300  91.8768441  64.3421984  45.4494155  83.1204466  63.5934034
  46.3953260  82.9910674  63.6622452  45.0708400  82.3819127  64.0703462
  37.3477622  93.5177745  74.9563914  37.2132089  92.7578146  74.3901912
  36.9309684  94.2418645  74.4892703  48.4836585  88.7014669  63.9640490
  49.1872435  88.9064671  64.5798145  47.7599233  89.2691431  64.2289573
  53.1239201  80.2414262  70.9092879  52.8676135  79.8410897  71.7401087
  52.4992069  80.9558056  70.7843018  40.5046747  94.4147062  75.1682357
  40.3879132  95.3592495  75.0661047  39.6839194  94.1120624  75.5568156
  50.3923282  89.1397198  66.0138950  51.2268886  88.7078396  65.8316424
  50.2307625  88.9679212  66.9415844  50.0469174  85.6429311  67.3795289
  49.9917978  85.4773583  66.4383733  49.4215229  86.3505344  67.5357479
  41.5301262  95.0675324  78.3838285  42.4328508  95.0998934  78.7004780
  41.3038632  94.1375775  78.3984621  43.2854864  93.8206311  75.0448364
  42.3350495  93.8208172  74.9312736  43.5887350  93.0739045  74.5284399
  59.0207557  99.6566849  76.1094126  59.6585967  99.5373596  75.4057466
  58.9028400 100.6047693  76.1682078  55.8297263  99.6094277  76.0455651
  55.4915775  99.4935342  75.1576186  56.6987032  99.2085442  76.0256657
  51.6884079 101.4629753  72.0352542  51.1248944 101.3719690  71.2668830
  51.5736474 100.6429658  72.5155035  56.3117046 100.7629129  82.0041857
  56.3005687 100.3681927  81.1322360  56.4737686 100.0295201  82.5975628
  49.2348511 102.9580945  74.8736762  50.0269803 102.6171770  74.4583062
  49.4745161 103.0675920  75.7938916  57.2683638 105.1300721  67.3467007
  56.6171618 105.7154802  66.9601021  58.0628001 105.6606916  67.4062044
  51.1939265 102.2189858  67.7454141  51.9670141 101.6718845  67.6067017
  51.5464664 103.0834108  67.9568603  53.0324307 103.5466241  80.9521041
  52.7414173 104.4511871  80.8367707  53.6681292 103.5882768  81.6665110
  53.9580514 100.9243089  77.5422400  54.5544087 100.6999112  76.8279363
  54.0155486 100.1827835  78.1447848  53.5305543  98.3782524  65.3772591
  53.7831063  97.8564046  64.6156054  52.5930102  98.2148670  65.4799275
  58.5748826  97.3818303  73.1847334  59.3611915  96.9637726  72.8337751
  58.8387530  98.2864395  73.3528983  58.7458903 102.8191153  67.8835991
  58.1104736 102.8925780  68.5956896  58.4156309 103.4084752  67.2055070
  63.9757253  97.3193536  74.0880313  64.7082425  96.7492753  74.3218142
  63.2196608  96.9315136  74.5286818  53.2501831 100.2810630  67.5796966
  53.1338090  99.6055534  68.2478050  53.3604091  99.7943004  66.7629119
  55.5933372  99.7420777  71.2843655  55.2291580  99.2151398  71.9956577
  56.4500488  99.3519247  71.1110141  55.2338859  94.7710677  66.2805004
  55.4013262  95.6390914  66.6475475  55.0436028  94.9337959  65.3566293
  57.9914193 103.2327656  77.9470834  57.6914916 104.1352695  77.8386641
  57.6465252 102.9659839  78.7991987  51.4426674  99.6841453  73.9807539
  50.5177171  99.5517667  74.1885230  51.6911087 100.4635672  74.4777481
  61.3911336  95.7510196  75.6268272  60.4828214  95.6825605  75.3327033
  61.3398932  96.2282141  76.4550097  55.2128080  97.2268335  67.2651671
  55.0927705  97.6725385  68.1037151  54.5180669  97.5753652  66.7065209
  48.8035485  99.3274726  74.8151328  48.9327866  99.5809205  75.7290739
  48.1232936  99.9202434  74.4955983  52.9734972 109.9971976  70.9141802
  52.8959002 110.9479802  70.9930282  52.3696616 109.6517849  71.5716728
  63.2572983  93.9526635  77.4046145  62.6147363  94.2459168  76.7585940
  62.7527911  93.8379555  78.2099342  60.9113146  97.6989808  68.0932005
  61.8231003  97.9317195  67.9179702  60.4022793  98.2826852  67.5307083
  53.7198574  99.9785295  83.1321136  54.4613259 100.5170339  82.8555959
  53.0135560 100.6051584  83.2892688  59.1953914 102.1214436  81.7293297
  59.6037270 101.6796846  80.9847930  58.4731176 101.5467063  81.9827490
  55.5484984  97.0587042  79.1026854  56.3946179  97.4826456  79.2461503
  55.4883622  96.4020667  79.7965417  59.5182729 102.6815626  75.4845586
  58.8891591 102.8461340  74.7821654  59.1308391 103.0957236  76.2556550
  63.3971961 103.6170064  72.8389950  62.7122999 103.9968966  72.2886983
  63.4815810 104.2265391  73.5721898  60.6522892 101.2630023  79.4385293
  60.8639787 101.9061783  78.7619675  60.6052640 100.4292340  78.9707224
  58.2549121  93.8747844  76.3421866  57.3933600  94.1729097  76.6338603
  58.2811556  94.0918243  75.4102898  55.0710691 102.4190034  72.7495671
  55.5349036 102.6977737  71.9600294  54.8067489 101.5173479  72.5668762
  51.9634772 101.9661516  75.6875435  52.5336129 102.3948784  75.0492919
  52.5542884 101.6844101  76.3859620  54.0079577  98.5413187  69.5585236
  54.7103620  98.9934230  70.0259163  53.6760205  97.8997006  70.1865130
  52.4559938  97.1324943  83.9336446  51.8258599  97.8141224  84.1671843
  52.3496026  97.0208025  82.9889584  47.7504911  96.7996739  74.8602370
  46.9603965  97.0554268  74.3842481  48.2416158  97.6145077  74.9654411
  61.7668720 104.1401979  77.6107651  62.5886164 103.7382166  77.3290332
  61.7631123 104.0370213  78.5623767  49.7019656  97.1641319  71.8185847
  48.9050819  97.2760013  72.3369342  49.4745248  97.5027971  70.9526737
  55.5325324 103.6886022  79.7668361  55.5969756 104.1506429  80.6026533
  54.8236247 103.0583387  79.8950671  46.0342614  97.0527230  77.2917361
  46.2850652  97.9374240  77.5574937  46.5702162  96.8731831  76.5192453
  69.8574713 100.4840727  73.9592622  69.1038422  99.9148125  73.8036627
  69.9922254 100.4503392  74.9063257  55.2473341 105.3554129  69.6347342
  55.1119016 106.2005665  70.0632189  55.7883154 105.5573407  68.8713275
  48.7002739 102.8729567  70.2075267  49.2127259 103.6672818  70.3580831
  49.3525451 102.1755858  70.1408868  50.5097623 105.9895324  72.2898020
  50.6864252 106.9113288  72.1019004  51.3054457 105.6753743  72.7192400
  49.7949980  98.0359956  82.1660183  49.6803495  97.1345213  82.4667282
  48.9394498  98.2823652  81.8145000  56.8741818 105.9777696  83.7647684
  56.4305672 105.1914074  83.4468588  57.5359031 106.1656846  83.0991575
  51.6328939 107.5073497  78.2908362  52.1836364 107.3790561  77.5185356
  50.7940415 107.8068387  77.9403255  58.9723056 106.2580496  81.7929085
  58.9541531 107.0789377  81.3009354  59.8942976 106.1334571  82.0179226
  55.4296110 103.7724625  82.6352593  55.9624447 103.0112914  82.4051901
  54.9010191 103.4798277  83.3776748  46.6651655 101.2018222  70.9834837
  47.5026877 101.6115230  70.7668545  46.8429923 100.2617664  70.9535031
  58.5616088  98.8693302  66.6718670  58.0462711  99.6397907  66.9107058
  58.2893396  98.1958439  67.2951732  56.1463199  93.7143003  71.7303909
  55.2904795  93.3249854  71.5509547  56.5590150  93.7934964  70.8703694
  57.6762345  91.2489346  76.1295468  57.1727141  91.2119482  75.3163274
  57.9692952  92.1582089  76.1892125  63.5350362 101.6225657  68.6071844
  62.7579804 101.2836817  68.1627006  64.2141843 101.6278280  67.9326809
  58.3502391  96.7420394  68.4978451  58.0452526  97.0566544  69.3488595
  59.3032833  96.8201814  68.5405784  56.7948823 102.9010618  70.1471405
  56.2670184 102.1663377  69.8344643  56.2936325 103.6785294  69.9011374
  61.7741669 101.0959638  75.2638452  61.1165343 101.7858900  75.3518580
  62.5782068 101.4856070  75.6072438  51.5267550  93.5630284  72.5078017
  52.1011302  93.3405466  71.7751210  52.1138533  93.6318979  73.2606618
  60.5847127  99.4504011  73.3142393  61.0979009 100.0834003  73.8164103
  61.2348351  98.8505206  72.9485753  51.8537137  95.5934745  66.5273902
  51.0174450  95.9309432  66.8483177  51.7141907  95.4583725  65.5901039
  53.8290218  90.4371533  71.2353086  53.1754630  90.1220550  70.6109701
  53.7870692  89.8147273  71.9612909  54.9401423 100.7190828  63.1506378
  54.0328484 100.4880082  63.3497527  55.4372455  99.9228447  63.3380360
  57.8469502 109.4288335  66.0703065  57.1731200 109.7320032  66.6788022
  58.2335324 110.2317416  65.7208522  57.0627958  96.9253467  75.5600734
  56.1450520  97.1468414  75.4022422  57.4788102  96.9999777  74.7012441
  57.8463006  98.3244882  70.6903414  58.5934825  98.8366279  70.3810536
  58.1154596  98.0028935  71.5507808  56.1189656 100.8203423  67.6730369
  55.2100875 100.5362456  67.7702838  56.1484740 101.2402501  66.8133675
  61.3508924 104.4310012  71.4421536  60.8971251 103.5900922  71.4986727
  60.7202890 105.0671411  71.7796316  60.2941843  95.3601998  72.6722204
  59.5564600  94.8479385  73.0032446  60.5468617  94.9202380  71.8605480
  59.7941863 106.2686509  72.3771354  60.0864837 106.8291566  71.6583720
  60.3040483 106.5615070  73.1324513  60.3953470  88.1378250  73.2663973
  60.7012347  87.2775614  72.9789888  61.1206075  88.7295871  73.0662967
  46.6877827  98.5408937  71.6545571  46.4902226  97.9478298  70.9296637
  46.1324491  98.2361147  72.3721510  54.6674550  98.4332044  73.7740164
  54.7223160  97.4805880  73.6982640  53.8565752  98.5891483  74.2581462
  55.8165744 102.3612167  65.0118447  55.3785174 101.6448026  64.5524084
  56.5576185 102.5888281  64.4503538  52.6066910  97.0509103  71.5330543
  51.7934776  97.3503274  71.9395735  53.1025904  96.6564792  72.2505025
  54.7575488 107.0466860  73.4664807  54.7151667 107.2727707  72.5373339
  55.6738187 106.8130235  73.6150609  58.2041122  97.5150928  80.3645437
  58.5590510  97.7422401  81.2239902  58.8513253  97.8469305  79.7422692
  63.9338859 100.6369364  71.0694766  63.7956757 100.8270960  70.1415955
  63.5775078 101.3988746  71.5262817  52.0980985  94.6227459  77.1491778
  52.7380364  94.4816218  76.4514741  51.2658515  94.3361972  76.7730380
  63.9608238 102.7045891  76.0806037  64.3944745 102.6121180  76.9289091
  64.6739819 102.6803391  75.4426053  52.8741289 103.9229889  73.2626770
  53.6681887 103.4280209  73.0609345  52.1632981 103.3947752  72.8994476
  57.6936133 106.3047985  77.6139138  57.7473156 106.8738921  78.3816854
  56.8250915 106.4749870  77.2493175  49.1824052  98.0672971  69.3386523
  48.2521640  98.0057426  69.5556485  49.2781524  97.5448924  68.5423164
  49.1009601  94.5927784  71.9264764  49.3616419  95.5073117  71.8173925
  49.9226774  94.1252226  72.0761377  50.5734527  96.0065541  79.0963589
  51.2457580  95.7982903  78.4476238  49.7464313  95.8087627  78.6568821
  64.8223788 102.7469591  78.6138923  65.0159678 103.6515402  78.8598197
  64.7224406 102.2877010  79.4477508  59.8838897 102.8976334  84.1879803
  59.7324403 102.6686886  83.2709887  59.8743576 103.8546935  84.2011148
  56.6524233 100.4708247  79.1726070  57.5816293 100.6219406  78.9995037
  56.2315263 100.5592268  78.3174716  55.4512565 104.4958911  76.9424607
  55.3123651 104.1277696  77.8150545  54.6627161 105.0106551  76.7708565
  56.0460717 109.5968008  68.2850144  56.2212472 109.1256051  69.0995766
  55.3593505 110.2233774  68.5131404  57.0017780 103.8740514  74.3313445
  56.6667613 103.8341284  75.2271095  56.5021726 103.2085230  73.8583855
  50.9762024  99.2808144  79.8566026  50.8381822  98.5488383  80.4577565
  51.8866947  99.1917044  79.5750214  59.9376972 101.2196548  64.6050505
  59.3206142 100.4943376  64.5083557  59.4693460 101.9805909  64.2617579
  53.6044325  98.9928103  79.3449706  54.3143943  98.3521295  79.3036324
  53.5613633  99.2440998  80.2675887  61.5931103 105.9295457  82.2656285
  61.5343649 105.2454677  81.5986868  61.9950622 106.6714447  81.8136911
  52.3173259  95.9793321  81.1645345  51.7810616  95.5284060  81.8166942
  51.7289967  96.1139230  80.4215810  50.6121802 112.7457370  75.0590004
  50.8518400 113.3775895  75.7369022  49.7690999 112.3945410  75.3455363
  51.7275518  95.4381973  63.7271809  50.8504984  95.3170773  63.3634056
  52.2033271  94.6468051  63.4750698  61.5948511 103.8935041  80.4970265
  60.7075289 103.5560962  80.6196664  62.1647062 103.1618072  80.7339030
  43.2477658 100.2259132  73.8213316  43.9348697  99.9120862  73.2334331
  43.0925786 101.1300497  73.5480568  48.0512380  95.1149329  78.2498340
  47.9670569  94.5074998  77.5148750  47.2295086  95.6058347  78.2507836
  55.1249664 108.5536493  77.4631508  55.0519835 109.3591464  77.9750812
  54.6827057 108.7528459  76.6379529  54.9139444 107.7908263  70.9734329
  54.1306965 108.3329943  71.0672554  55.6132189 108.3082243  71.3728571
  58.2236094  93.6002892  73.6168535  58.7204793  92.8472855  73.2969605
  57.4523075  93.6367209  73.0511744  66.0765851  99.3043258  75.2586826
  66.0655727 100.1867973  74.8880759  65.2083231  98.9514809  75.0641363
  57.5848347 108.4523327  79.6189667  58.2976320 109.0870792  79.5465568
  57.0938376 108.5487193  78.8029668  59.3065874 102.3574580  71.1906958
  58.3722153 102.4776042  71.0211663  59.4842543 101.4547046  70.9266968
  54.8071062  95.7420275  73.3440219  54.4368850  95.1891316  74.0321125
  55.3030155  95.1378409  72.7915219  62.6938426  98.1991899  71.7256992
  63.1598878  99.0319890  71.6517295  63.1445926  97.7336880  72.4302251
  52.6360261 106.2017770  80.4395237  53.3369720 106.8354253  80.5924632
  52.1655376 106.5432502  79.6790877  60.7614657 104.5435720  68.7243144
  61.0374501 104.4292315  69.6337018  59.8919156 104.1453205  68.6855318
  60.4361547  98.7562378  78.2647788  59.7832997  99.0038285  77.6100241
  60.8141927  97.9426516  77.9310265  57.3968721 108.7922071  72.3675958
  57.5791115 107.9743727  72.8303710  58.2201707 109.0089763  71.9300848
  57.7310886 107.7190256  69.6291007  58.2598653 107.2082711  69.0161169
  57.9939106 107.4032786  70.4936540  48.2327979 105.7354125  77.3726340
  48.8181416 104.9897813  77.5054244  48.0352818 106.0458082  78.2563004
  51.0866634 108.7705373  72.3888782  50.4177010 109.2551500  71.9052823
  50.9479504 109.0174593  73.3032161  42.8245634  98.3059726  76.0930783
  42.8629733  97.7723316  76.8867901  42.3185927  97.7794931  75.4741760
  55.2271903 110.8049116  78.9871441  55.7790211 110.9680738  79.7520526
  55.5678096 111.3953554  78.3151466  49.6788669  95.2247399  83.2366360
  50.3060707  94.8424476  83.8503884  48.8216587  95.0061601  83.6022052
  60.0782777 105.6310374  84.8420095  60.6222681 106.2440332  84.3475050
  59.4969622 106.1889952  85.3587108  46.4554211  97.0323828  69.1684715
  46.7507652  96.1234506  69.1151768  45.5542247  97.0111567  68.8465717
  58.3640290 108.7531092  75.9735123  58.2391430 107.9520832  75.4646068
  59.0219381 109.2477285  75.4849093  49.9848458  95.1079824  75.1512263
  49.2635044  95.7215792  75.0119737  50.7741714  95.6437589  75.0728909
  60.4275199 106.5540112  77.6014673  59.4805534 106.4345463  77.5293000
  60.7757972 105.6662610  77.6840935  48.1842053  94.7137925  69.2924040
  47.8554759  93.8335304  69.1099146  48.5381424  94.6585594  70.1800429
  57.4321632 106.3492828  73.8019025  57.2846594 105.4209536  73.9826595
  58.2575125 106.3712919  73.3176101  51.2983876  95.0010895  69.6599517
  51.6379949  95.5296816  68.9378126  51.7455997  95.3391301  70.4358084
  61.0355754 107.1721387  74.8883898  61.9602301 106.9664248  74.7508349
  60.8671057 106.9237788  75.7973240  53.2852023  93.4985517  67.8592810
  54.0060386  93.8766770  67.3556527  52.6617327  94.2174394  67.9627788
  57.4283146  94.2030666  68.7951143  57.6446761  95.0855304  68.4939971
  56.9477213  93.8116879  68.0656785  52.1682368  97.1616379  75.3721887
  52.0226948  97.4756682  76.2646169  51.6907571  97.7801279  74.8192786
  54.0278750  94.1518927  75.4202777  54.0140319  93.2560020  75.0835075
  54.7451179  94.1589591  76.0541063  55.8804881  94.5856267  77.4655904
  55.6222659  95.5073338  77.4640235  55.3489921  94.1886702  78.1556368
  60.8251070 107.6907054  70.2445990  60.9987947 107.1253477  69.4919842
  61.3179961 108.4907949  70.0625479  46.6428030  99.7021723  78.3109548
  46.0981498 100.4781531  78.4429823  47.5207380 100.0492528  78.1528670
  53.4315646  93.0333307  70.6890347  53.5531558  92.1049953  70.8881234
  53.1417689  93.0471993  69.7768662  56.3006837  90.7188218  73.8257067
  56.3228534  90.7827551  72.8709046  56.7174896  89.8792726  74.0197573
  66.6790461 100.4543477  71.8636289  67.1221607  99.7050802  71.4655413
  65.8016971 100.4453614  71.4810021  61.8126242 107.0073819  67.3442888
  62.5077147 107.6280511  67.5630202  62.1549393 106.1569170  67.6195266
  47.4294052  98.8291620  81.2039705  46.6875788  98.9774255  81.7904336
  47.1086796  99.0899885  80.3406455  63.7117665 104.4573524  68.8730219
  64.2368990 104.7960797  68.1479539  63.6240018 103.5220540  68.6893353
  55.3737714 108.3707598  81.0020095  55.6824841 108.1256745  81.8742795
  56.1713196 108.5754236  80.5138965  55.3958326 110.5245508  73.2325472
  54.9563317 110.0321886  73.9258328  56.1466443 109.9818475  72.9917547
  47.8750665 106.7157048  73.2350100  48.7008685 106.4160820  72.8548743
  47.5244717 105.9464671  73.6839888  52.8432198 106.0683517  75.3047773
  52.2212208 105.4054222  75.0050001  53.5137065 106.0944649  74.6221421
  46.0759270 104.6343375  74.1939033  45.2391179 104.2065549  74.0123035
  46.0482916 104.8275818  75.1309825  63.4011572 105.0906428  84.1781417
  62.6107115 105.0730567  83.6385916  63.1644926 105.6294722  84.9330453
  63.5209447 101.9398894  81.4914145  63.5707452 101.7748902  82.4329668
  63.4123370 101.0726153  81.1012026  52.4045705 104.6187440  68.7806234
  52.5533826 105.3022904  68.1272907  53.2112149 104.5992530  69.2955690
  60.8113209  97.9229822  82.8073452  61.7123072  97.7836287  82.5157450
  60.8861184  98.0884277  83.7471629  65.0227643 104.3595836  81.7356167
  64.7312452 104.7225816  82.5719628  64.4099775 103.6462844  81.5569499
  66.2223326 101.9248716  74.2558737  67.0570217 102.3638520  74.4196297
  66.3582455 101.4487369  73.4366983  63.2714832  99.4828450  80.2036225
  63.7468953  99.6756097  79.3955076  62.3480397  99.5387636  79.9579608
  50.1598338 100.6452618  69.7867303  49.9144380  99.7414948  69.9847513
  50.3294253 100.6469768  68.8446781  49.4293986  96.3780975  67.2853464
  48.7363231  96.4525330  66.6293500  49.1845738  95.6141319  67.8074981
  55.9041111 107.1135570  66.2517981  55.3315078 107.7325758  65.7988453
  56.4773904 107.6634932  66.7857903  61.9716501  96.3594211  78.4364530
  62.9233924  96.4592308  78.4576754  61.8019951  95.5672479  78.9462615
  59.1238371 107.3972721  67.3826564  60.0569044 107.3318282  67.5859439
  59.0361583 108.2328987  66.9241096  61.7526387 106.7138591  64.3430511
  61.6740019 106.3798455  65.2366269  62.5736054 107.2060359  64.3421984
  64.4504578  99.5800330  77.5506830  64.4180899  98.6416331  77.7366514
  65.0605202  99.6584367  76.8172655  56.2887909  98.4496383  63.5934034
  57.2347014  98.3202591  63.6622452  55.9102154  97.7111045  64.0703462
  64.5999067  96.3711374  77.5965113  64.0838116  95.5869830  77.4095042
  65.4839015  96.0430090  77.7611632  62.2609794  90.1152389  73.5560926
  62.0634615  89.8067477  74.4404258  62.8709499  90.8414028  73.6858856
  70.2681128 100.6416337  76.6912867  70.9984517 100.3801625  77.2520570
  69.6588074  99.9045059  76.7314935  68.3496425  98.7824200  77.2887318
  67.6229589  98.6480165  76.6803809  67.9343712  99.0901028  78.0944036
  56.1726602 102.5014129  85.0534691  57.0929611 102.6792728  85.2474737
  56.1376185 101.5570175  84.9014390  54.4730826  96.3746360  63.5288919
  53.5662282  96.0779472  63.6051633  54.7506807  96.0776178  62.6623205
  45.3908767  97.6952723  73.9787965  45.0711551  96.8418031  73.6862339
  44.8442195  97.9101301  74.7345933  49.1688674 100.4115164  77.6957472
  49.3874684 101.3432272  77.7145506  49.5814448 100.0523138  78.4812276
  56.0892892  90.9183249  69.6833160  55.2793621  90.5730334  70.0588406
  56.7777309  90.6090793  70.2720772  58.0183440  89.9961296  71.3057457
  58.5714479  90.4156750  71.9647480  58.2553527  89.0697044  71.3480413
  53.2429611  93.2333295  63.6700898  54.1048775  93.5588193  63.9296716
  53.4279955  92.4464791  63.1573964  45.2597027 101.3155634  75.9481087
  44.5660498 100.9009587  75.4351041  46.0070018 101.3576171  75.3514506
  61.3962248  92.1061821  70.8136121  60.8160917  92.7646625  70.4314174
  61.1298180  91.2839166  70.4023539  59.8465814  91.5066879  73.0157442
  60.3465592  91.6183413  72.2071760  60.4901422  91.2027932  73.6558250
  47.1733769 101.2473888  73.8247102  47.1504457 101.3461576  72.8728985
  47.4834406 102.0939039  74.1464268  49.8321147 103.3050043  77.9393716
  50.7864401 103.2733986  77.8723648  49.6333671 102.8440667  78.7543942
  50.4220529 101.8751159  80.5064514  51.2413418 102.3695238  80.5299351
  50.6957337 100.9583127  80.4782082  60.1787126  94.2661912  69.8692470
  59.2912981  94.5511562  69.6512664  60.5941115  94.1055675  69.0219746
  63.5301662  94.2908433  73.5846809  64.3062052  94.7804885  73.8571426
  62.8049796  94.7166487  74.0418678  65.9674220  95.0036052  74.6420749
  66.5618711  94.7631788  73.9314058  66.0400804  94.2843182  75.2694286
  48.1871376 108.8469663  74.9563914  48.0525844 108.0870064  74.3901912
  47.7703438 109.5710563  74.4892703  59.3230339 104.0306586  63.9640490
  60.0266189 104.2356589  64.5798145  58.5992988 104.5983348  64.2289573
  60.1528149  99.7816448  70.0842760  60.0963351 100.2384999  69.2450392
  60.7056492  99.0207132  69.9065602  63.9632955  95.5706179  70.9092879
  63.7069889  95.1702815  71.7401087  63.3385823  96.2849973  70.7843018
  68.2745293  98.3102253  73.4164171  67.7144851  98.3795442  74.1895733
  67.6688796  98.1343237  72.6963667  51.3440502 109.7438980  75.1682357
  51.2272886 110.6884412  75.0661047  50.5232948 109.4412541  75.5568156
  61.2317036 104.4689116  66.0138950  62.0662640 104.0370314  65.8316424
  61.0701379 104.2971129  66.9415844  60.8862929 100.9721229  67.3795289
  60.8311732 100.8065500  66.4383733  60.2608984 101.6797262  67.5357479
  45.6755444  96.2089293  81.2056711  46.3214307  95.6988247  81.6943936
  45.4672595  96.9457975  81.7800136  58.2008836 103.2770141  86.7048852
  59.0699995 103.4510793  86.3435487  57.7215587 104.0964558  86.5824581
  54.1959054  90.4729338  66.9580607  54.1837724  91.4171178  67.1148878
  55.0882476  90.2899483  66.6640068  52.3695016 110.3967242  78.3838285
  53.2722263 110.4290852  78.7004780  52.1432386 109.4667693  78.3984621
  54.1248618 109.1498228  75.0448364  53.1744249 109.1500090  74.9312736
  54.4281104 108.4030963  74.5284399  58.0111174  87.0672114  71.2126544
  57.2443569  86.5130601  71.3583226  58.4221879  87.1393983  72.0740696
  50.0152935  93.3556910  85.3031725  50.8784396  92.9993715  85.5135050
  49.4418345  93.0170805  85.9907130  69.8601312 114.9858767  76.1094126
  70.4979722 114.8665514  75.4057466  69.7422154 115.9339611  76.1682078
  66.6691018 114.9386195  76.0455651  66.3309529 114.8227259  75.1576186
  67.5380786 114.5377360  76.0256657  62.5277834 116.7921671  72.0352542
  61.9642699 116.7011608  71.2668830  62.4130229 115.9721576  72.5155035
  67.1510801 116.0921046  82.0041857  67.1399442 115.6973845  81.1322360
  67.3131440 115.3587119  82.5975628  60.0742265 118.2872863  74.8736762
  60.8663557 117.9463687  74.4583062  60.3138916 118.3967838  75.7938916
  68.1077392 120.4592639  67.3467007  67.4565372 121.0446719  66.9601021
  68.9021755 120.9898834  67.4062044  62.0333019 117.5481776  67.7454141
  62.8063895 117.0010763  67.6067017  62.3858418 118.4126025  67.9568603
  63.8718062 118.8758158  80.9521041  63.5807928 119.7803789  80.8367707
  64.5075046 118.9174686  81.6665110  64.7974269 116.2535007  77.5422400
  65.3937841 116.0291029  76.8279363  64.8549240 115.5119752  78.1447848
  64.3699297 113.7074442  65.3772591  64.6224818 113.1855963  64.6156054
  63.4323856 113.5440588  65.4799275  69.4142580 112.7110220  73.1847334
  70.2005669 112.2929644  72.8337751  69.6781284 113.6156313  73.3528983
  69.5852657 118.1483071  67.8835991  68.9498490 118.2217697  68.5956896
  69.2550064 118.7376670  67.2055070  74.8151007 112.6485454  74.0880313
  75.5476179 112.0784670  74.3218142  74.0590363 112.2607054  74.5286818
  64.0895586 115.6102548  67.5796966  63.9731844 114.9347451  68.2478050
  64.1997846 115.1234922  66.7629119  66.4327127 115.0712695  71.2843655
  66.0685334 114.5443316  71.9956577  67.2894243 114.6811164  71.1110141
  72.3376428 106.3607028  78.5474921  72.0059752 107.2302439  78.3236136
  71.7422041 106.0443312  79.2268952  66.0732614 110.1002595  66.2805004
  66.2407016 110.9682831  66.6475475  65.8829783 110.2629877  65.3566293
  68.8307947 118.5619574  77.9470834  68.5308670 119.4644613  77.8386641
  68.4859007 118.2951757  78.7991987  62.2820429 115.0133371  73.9807539
  61.3570925 114.8809585  74.1885230  62.5304842 115.7927590  74.4777481
  72.2305091 111.0802114  75.6268272  71.3221968 111.0117522  75.3327033
  72.1792687 111.5574059  76.4550097  66.0521835 112.5560252  67.2651671
  65.9321460 113.0017303  68.1037151  65.3574423 112.9045570  66.7065209
  59.6429240 114.6566644  74.8151328  59.7721621 114.9101123  75.7290739
  58.9626691 115.2494352  74.4955983  63.8128727 125.3263894  70.9141802
  63.7352757 126.2771719  70.9930282  63.2090370 124.9809767  71.5716728
  66.3045957 112.4991760  83.5703169  65.5279291 113.0585680  83.5606033
  66.9436520 112.9848543  84.0918039  74.0966737 109.2818552  77.4046145
  73.4541117 109.5751086  76.7585940  73.5921666 109.1671473  78.2099342
  71.7506901 113.0281726  68.0932005  72.6624757 113.2609112  67.9179702
  71.2416548 113.6118770  67.5307083  64.5592329 115.3077213  83.1321136
  65.3007013 115.8462257  82.8555959  63.8529314 115.9343502  83.2892688
  70.0347669 117.4506353  81.7293297  70.4431025 117.0088764  80.9847930
  69.3124930 116.8758981  81.9827490  66.3878739 112.3878960  79.1026854
  67.2339934 112.8118374  79.2461503  66.3277376 111.7312584  79.7965417
  70.3576483 118.0107544  75.4845586  69.7285346 118.1753258  74.7821654
  69.9702145 118.4249154  76.2556550  74.2365715 118.9461982  72.8389950
  73.5516753 119.3260883  72.2886983  74.3209564 119.5557309  73.5721898
  69.5378184 110.0483329  80.7608028  69.2939116 110.8025389  80.2242304
  69.8138114 110.4268676  81.5955275  71.4916647 116.5921941  79.4385293
  71.7033542 117.2353701  78.7619675  71.4446395 115.7584257  78.9707224
  69.0942876 109.2039762  76.3421866  68.2327355 109.5021015  76.6338603
  69.1205310 109.4210160  75.4102898  65.9104445 117.7481952  72.7495671
  66.3742791 118.0269655  71.9600294  65.6461243 116.8465397  72.5668762
  62.8028526 117.2953434  75.6875435  63.3729883 117.7240702  75.0492919
  63.3936638 117.0136018  76.3859620  64.8473331 113.8705104  69.5585236
  65.5497374 114.3226148  70.0259163  64.5153960 113.2288923  70.1865130
  63.2953693 112.4616861  83.9336446  62.6652353 113.1433142  84.1671843
  63.1889781 112.3499943  82.9889584  58.5898665 112.1288657  74.8602370
  57.7997719 112.3846186  74.3842481  59.0809912 112.9436995  74.9654411
  72.6062475 119.4693896  77.6107651  73.4279918 119.0674084  77.3290332
  72.6024878 119.3662130  78.5623767  60.5413410 112.4933236  71.8185847
  59.7444574 112.6051931  72.3369342  60.3139003 112.8319889  70.9526737
  66.3719078 119.0177940  79.7668361  66.4363511 119.4798347  80.6026533
  65.6630002 118.3875305  79.8950671  56.8736368 112.3819148  77.2917361
  57.1244406 113.2666157  77.5574937  57.4095916 112.2023749  76.5192453
  80.6968468 115.8132645  73.9592622  79.9432176 115.2440043  73.8036627
  80.8316009 115.7795309  74.9063257  66.0867096 120.6846047  69.6347342
  65.9512771 121.5297583  70.0632189  66.6276908 120.8865325  68.8713275
  62.5734435 106.7637627  86.2961697  62.1801381 106.2103825  86.9709341
  63.3900576 107.0748205  86.6868214  59.5396493 118.2021485  70.2075267
  60.0521014 118.9964735  70.3580831  60.1919206 117.5047776  70.1408868
  61.3491378 121.3187241  72.2898020  61.5258006 122.2405206  72.1019004
  62.1448211 121.0045661  72.7192400  65.4902396 108.1795506  83.8881953
  66.2312110 108.7802659  83.8086416  65.7220319 107.4373144  83.3299996
  60.6343734 113.3651873  82.1660183  60.5197250 112.4637131  82.4667282
  59.7788252 113.6115570  81.8145000  67.7135572 121.3069614  83.7647684
  67.2699426 120.5205992  83.4468588  68.3752786 121.4948764  83.0991575
  62.4722693 122.8365415  78.2908362  63.0230118 122.7082479  77.5185356
  61.6334169 123.1360304  77.9403255  69.8116810 121.5872414  81.7929085
  69.7935286 122.4081295  81.3009354  70.7336730 121.4626489  82.0179226
  66.2689864 119.1016543  82.6352593  66.8018201 118.3404831  82.4051901
  65.7403945 118.8090195  83.3776748  69.4359559 104.2076609  78.1646235
  69.0923829 105.0978251  78.0885346  69.8038522 104.0178267  77.3015820
  57.5045410 116.5310139  70.9834837  58.3420632 116.9407148  70.7668545
  57.6823678 115.5909582  70.9535031  69.4009842 114.1985220  66.6718670
  68.8856465 114.9689825  66.9107058  69.1287150 113.5250356  67.2951732
  66.9856953 109.0434921  71.7303909  66.1298549 108.6541771  71.5509547
  67.3983905 109.1226882  70.8703694  68.5156100 106.5781264  76.1295468
  68.0120895 106.5411399  75.3163274  68.8086707 107.4874007  76.1892125
  64.7598986 106.6619994  75.1361650  65.6251982 106.4662803  74.7767540
  64.8276495 106.4330346  76.0631007  74.3744116 116.9517575  68.6071844
  73.5973559 116.6128734  68.1627006  75.0535597 116.9570198  67.9326809
  69.1896145 112.0712312  68.4978451  68.8846281 112.3858461  69.3488595
  70.1426587 112.1493732  68.5405784  67.6342577 118.2302535  70.1471405
  67.1063939 117.4955295  69.8344643  67.1330080 119.0077212  69.9011374
  72.6135423 116.4251556  75.2638452  71.9559098 117.1150817  75.3518580
  73.4175822 116.8147988  75.6072438  62.3661305 108.8922202  72.5078017
  62.9405057 108.6697383  71.7751210  62.9532287 108.9610896  73.2606618
  71.4240882 114.7795929  73.3142393  71.9372764 115.4125920  73.8164103
  72.0742106 114.1797124  72.9485753  62.6930892 110.9226663  66.5273902
  61.8568204 111.2601349  66.8483177  62.5535661 110.7875643  65.5901039
  64.6683972 105.7663451  71.2353086  64.0148385 105.4512468  70.6109701
  64.6264447 105.1439191  71.9612909  65.7795177 116.0482746  63.1506378
  64.8722239 115.8171999  63.3497527  66.2766209 115.2520365  63.3380360
  68.6863256 124.7580253  66.0703065  68.0124955 125.0611950  66.6788022
  69.0729078 125.5609333  65.7208522  67.9021713 112.2545384  75.5600734
  66.9844274 112.4760331  75.4022422  68.3181856 112.3291695  74.7012441
  68.6856761 113.6536800  70.6903414  69.4328579 114.1658197  70.3810536
  68.9548350 113.3320853  71.5507808  66.9583411 116.1495341  67.6730369
  66.0494630 115.8654373  67.7702838  66.9878494 116.5694419  66.8133675
  72.1902678 119.7601930  71.4421536  71.7365005 118.9192840  71.4986727
  71.5596645 120.3963328  71.7796316  71.1335598 110.6893916  72.6722204
  70.3958354 110.1771302  73.0032446  71.3862371 110.2494298  71.8605480
  70.6335617 121.5978427  72.3771354  70.9258592 122.1583484  71.6583720
  71.1434238 121.8906988  73.1324513  71.2347225 103.4670168  73.2663973
  71.5406102 102.6067532  72.9789888  71.9599830 104.0587788  73.0662967
  57.5271581 113.8700855  71.6545571  57.3295981 113.2770215  70.9296637
  56.9718245 113.5653065  72.3721510  65.5068305 113.7623961  73.7740164
  65.5616915 112.8097798  73.6982640  64.6959507 113.9183400  74.2581462
  66.6559498 117.6904084  65.0118447  66.2178928 116.9739943  64.5524084
  67.3969939 117.9180199  64.4503538  63.4460665 112.3801021  71.5330543
  62.6328530 112.6795192  71.9395735  63.9419659 111.9856710  72.2505025
  65.5969243 122.3758778  73.4664807  65.5545421 122.6019624  72.5373339
  66.5131941 122.1422152  73.6150609  69.0434876 112.8442845  80.3645437
  69.3984264 113.0714319  81.2239902  69.6907008 113.1761222  79.7422692
  74.7732613 115.9661281  71.0694766  74.6350512 116.1562877  70.1415955
  74.4168832 116.7280664  71.5262817  62.9374739 109.9519376  77.1491778
  63.5774119 109.8108136  76.4514741  62.1052270 109.6653890  76.7730380
  74.8001993 118.0337808  76.0806037  75.2338500 117.9413097  76.9289091
  75.5133574 118.0095309  75.4426053  63.7135043 119.2521807  73.2626770
  64.5075642 118.7572127  73.0609345  63.0026736 118.7239670  72.8994476
  68.5329888 121.6339902  77.6139138  68.5866910 122.2030839  78.3816854
  67.6644669 121.8041787  77.2493175  60.0217807 113.3964889  69.3386523
  59.0915395 113.3349344  69.5556485  60.1175279 112.8740841  68.5423164
  59.9403356 109.9219701  71.9264764  60.2010173 110.8365035  71.8173925
  60.7620528 109.4544144  72.0761377  61.4128281 111.3357459  79.0963589
  62.0851335 111.1274821  78.4476238  60.5858068 111.1379545  78.6568821
  75.6617542 118.0761509  78.6138923  75.8553433 118.9807319  78.8598197
  75.5618161 117.6168928  79.4477508  67.3153853 107.9619400  81.1129250
  66.6681768 108.6609349  81.0193726  68.0854869 108.3955543  81.4805498
  70.7232651 118.2268252  84.1879803  70.5718158 117.9978803  83.2709887
  70.7137331 119.1838853  84.2011148  67.4917988 115.8000164  79.1726070
  68.4210048 115.9511324  78.9995037  67.0709018 115.8884185  78.3174716
  66.2906319 119.8250829  76.9424607  66.1517405 119.4569613  77.8150545
  65.5020916 120.3398468  76.7708565  66.8854471 124.9259925  68.2850144
  67.0606227 124.4547969  69.0995766  66.1987259 125.5525692  68.5131404
  67.8411534 119.2032432  74.3313445  67.5061367 119.1633202  75.2271095
  67.3415480 118.5377148  73.8583855  61.8155778 114.6100062  79.8566026
  61.6775576 113.8780300  80.4577565  62.7260702 114.5208962  79.5750214
  70.7770726 116.5488466  64.6050505  70.1599897 115.8235294  64.5083557
  70.3087215 117.3097826  64.2617579  64.4438079 114.3220021  79.3449706
  65.1537698 113.6813213  79.3036324  64.4007387 114.5732916  80.2675887
  72.4324858 121.2587374  82.2656285  72.3737404 120.5746594  81.5986868
  72.8344376 122.0006364  81.8136911  63.1567013 111.3085239  81.1645345
  62.6204370 110.8575977  81.8166942  62.5683722 111.4431148  80.4215810
  62.5669272 110.7673890  63.7271809  61.6898738 110.6462691  63.3634056
  63.0427025 109.9759969  63.4750698  72.4342265 119.2226958  80.4970265
  71.5469044 118.8852880  80.6196664  73.0040816 118.4909989  80.7339030
  54.0871412 115.5551050  73.8213316  54.7742452 115.2412780  73.2334331
  53.9319541 116.4592415  73.5480568  58.8906134 110.4441247  78.2498340
  58.8064323 109.8366916  77.5148750  58.0688841 110.9350265  78.2507836
  65.9643418 123.8828411  77.4631508  65.8913590 124.6883382  77.9750812
  65.5220812 124.0820376  76.6379529  65.7533198 123.1200181  70.9734329
  64.9700720 123.6621861  71.0672554  66.4525943 123.6374160  71.3728571
  69.0629848 108.9294810  73.6168535  69.5598548 108.1764772  73.2969605
  68.2916830 108.9659127  73.0511744  76.9159606 114.6335176  75.2586826
  76.9049482 115.5159891  74.8880759  76.0476985 114.2806726  75.0641363
  68.4242102 123.7815245  79.6189667  69.1370074 124.4162709  79.5465568
  67.9332131 123.8779111  78.8029668  70.1459629 117.6866497  71.1906958
  69.2115908 117.8067960  71.0211663  70.3236297 116.7838964  70.9266968
  65.6464817 111.0712193  73.3440219  65.2762604 110.5183233  74.0321125
  66.1423909 110.4670327  72.7915219  73.5332180 113.5283817  71.7256992
  73.9992632 114.3611808  71.6517295  73.9839681 113.0628798  72.4302251
  63.4754015 121.5309688  80.4395237  64.1763475 122.1646171  80.5924632
  63.0049130 121.8724420  79.6790877  71.6008411 119.8727638  68.7243144
  71.8768255 119.7584232  69.6337018  70.7312910 119.4745123  68.6855318
  71.5048843 105.8964404  75.7647894  70.5911923 106.1268630  75.9330101
  71.9341944 105.9802848  76.6161926  71.2755301 114.0854296  78.2647788
  70.6226752 114.3330203  77.6100241  71.6535681 113.2718434  77.9310265
  68.2362475 124.1213989  72.3675958  68.4184870 123.3035645  72.8303710
  69.0595461 124.3381681  71.9300848  68.5704641 123.0482174  69.6291007
  69.0992407 122.5374628  69.0161169  68.8332860 122.7324704  70.4936540
  67.3242874 114.8274107  84.7513825  66.6483511 114.7268236  85.4216200
  68.1470508 114.6713320  85.2149822  59.0721734 121.0646043  77.3726340
  59.6575170 120.3189731  77.5054244  58.8746572 121.3750000  78.2563004
  61.9260389 124.0997290  72.3888782  61.2570764 124.5843418  71.9052823
  61.7873258 124.3466511  73.3032161  53.6639388 113.6351643  76.0930783
  53.7023488 113.1015234  76.8867901  53.1579681 113.1086849  75.4741760
  66.0665657 126.1341034  78.9871441  66.6183965 126.2972656  79.7520526
  66.4071851 126.7245472  78.3151466  61.0430151 108.4816184  79.5893326
  61.1071477 109.3431015  79.1770723  60.9797271 107.8690185  78.8565684
  60.5182423 110.5539316  83.2366360  61.1454462 110.1716394  83.8503884
  59.6610342 110.3353518  83.6022052  70.9176532 120.9602292  84.8420095
  71.4616436 121.5732250  84.3475050  70.3363377 121.5181870  85.3587108
  57.2947966 112.3615745  69.1684715  57.5901407 111.4526424  69.1151768
  56.3936002 112.3403485  68.8465717  69.2034045 124.0823010  75.9735123
  69.0785184 123.2812749  75.4646068  69.8613136 124.5769203  75.4849093
  60.8242213 110.4371742  75.1512263  60.1028799 111.0507710  75.0119737
  61.6135469 110.9729507  75.0728909  71.2668953 121.8832030  77.6014673
  70.3199289 121.7637381  77.5293000  71.6151726 120.9954528  77.6840935
  63.6268526 107.7726169  81.4252915  64.1502928 108.0188465  82.1879224
  63.4080860 108.6046203  81.0056052  59.0235807 110.0429843  69.2924040
  58.6948514 109.1627222  69.1099146  59.3775178 109.9877512  70.1800429
  68.2715386 121.6784746  73.8019025  68.1240349 120.7501453  73.9826595
  69.0968880 121.7004837  73.3176101  62.1377631 110.3302813  69.6599517
  62.4773703 110.8588734  68.9378126  62.5849751 110.6683219  70.4358084
  71.8749508 122.5013305  74.8883898  72.7996056 122.2956166  74.7508349
  71.7064812 122.2529706  75.7973240  64.8321071 108.7139864  79.1102585
  64.4917892 107.9147677  79.5123265  64.1260078 109.0141574  78.5379419
  65.4837543 105.7989176  77.5629909  66.3063613 105.3249654  77.4408799
  65.7275607 106.5779660  78.0628595  64.1245778 108.8277435  67.8592810
  64.8454140 109.2058687  67.3556527  63.5011082 109.5466311  67.9627788
  68.2676901 109.5322583  68.7951143  68.4840515 110.4147221  68.4939971
  67.7870968 109.1408797  68.0656785  63.0076122 112.4908297  75.3721887
  62.8620703 112.8048600  76.2646169  62.5301326 113.1093197  74.8192786
  64.8672505 109.4810845  75.4202777  64.8534074 108.5851938  75.0835075
  65.5844933 109.4881508  76.0541063  66.7198636 109.9148185  77.4655904
  66.4616413 110.8365256  77.4640235  66.1883676 109.5178619  78.1556368
  71.6644824 123.0198972  70.2445990  71.8381702 122.4545395  69.4919842
  72.1573716 123.8199867  70.0625479  57.4821784 115.0313641  78.3109548
  56.9375252 115.8073449  78.4429823  58.3601134 115.3784446  78.1528670
  64.2709401 108.3625225  70.6890347  64.3925312 107.4341871  70.8881234
  63.9811443 108.3763911  69.7768662  67.1400591 106.0480135  73.8257067
  67.1622288 106.1119469  72.8709046  67.5568650 105.2084644  74.0197573
  77.5184216 115.7835395  71.8636289  77.9615362 115.0342720  71.4655413
  76.6410726 115.7745531  71.4810021  72.6519997 122.3365736  67.3442888
  73.3470901 122.9572429  67.5630202  72.9943147 121.4861088  67.6195266
  58.2687806 114.1583537  81.2039705  57.5269542 114.3066173  81.7904336
  57.9480550 114.4191803  80.3406455  74.5511420 119.7865442  68.8730219
  75.0762744 120.1252715  68.1479539  74.4633773 118.8512457  68.6893353
  66.2131469 123.6999516  81.0020095  66.5218595 123.4548662  81.8742795
  67.0106951 123.9046154  80.5138965  66.2352081 125.8537425  73.2325472
  65.7957071 125.3613804  73.9258328  66.9860198 125.3110393  72.9917547
  58.7144420 122.0448966  73.2350100  59.5402440 121.7452738  72.8548743
  58.3638472 121.2756589  73.6839888  63.6825953 121.3975434  75.3047773
  63.0605962 120.7346139  75.0050001  64.3530820 121.4236566  74.6221421
  56.9153025 119.9635293  74.1939033  56.0784933 119.5357467  74.0123035
  56.8876670 120.1567736  75.1309825  63.7550480 109.8757222  84.8980279
  63.8038636 110.7519345  84.5158049  64.2972995 109.3334615  84.3251923
  74.2405326 120.4198346  84.1781417  73.4500870 120.4022484  83.6385916
  74.0038681 120.9586639  84.9330453  74.3603201 117.2690812  81.4914145
  74.4101206 117.1040819  82.4329668  74.2517124 116.4018071  81.1012026
  63.2439460 119.9479358  68.7806234  63.3927580 120.6314822  68.1272907
  64.0505903 119.9284448  69.2955690  71.6506963 113.2521740  82.8073452
  72.5516826 113.1128205  82.5157450  71.7254938 113.4176195  83.7471629
  65.9849769 110.6288595  81.6526638  65.1153078 110.9222161  81.3809227
  66.2209249 111.2129040  82.3733902  75.8621398 119.6887753  81.7356167
  75.5706206 120.0517734  82.5719628  75.2493529 118.9754762  81.5569499
  77.0617080 117.2540633  74.2558737  77.8963972 117.6930437  74.4196297
  77.1976209 116.7779286  73.4366983  74.1108586 114.8120368  80.2036225
  74.5862708 115.0048014  79.3955076  73.1874152 114.8679554  79.9579608
  60.9992093 115.9744535  69.7867303  60.7538135 115.0706865  69.9847513
  61.1688007 115.9761686  68.8446781  68.6888803 106.8468212  79.1692058
  69.2070747 107.5829239  78.8438547  68.3343935 107.1532205  80.0038818
  60.2687740 111.7072893  67.2853464  59.5756985 111.7817248  66.6293500
  60.0239492 110.9433237  67.8074981  68.9401397 103.2668494  74.6892955
  69.2203151 102.5991683  75.3153382  69.7252004 103.4597590  74.1767619
  66.7434865 122.4427488  66.2517981  66.1708832 123.0617675  65.7988453
  67.3167659 122.9926850  66.7857903  72.8110255 111.6886128  78.4364530
  73.7627678 111.7884226  78.4576754  72.6413706 110.8964397  78.9462615
  70.8324635 108.7741711  78.6223931  70.2374567 109.0546724  77.9270420
  70.5474331 109.2635612  79.3940672  69.9632125 122.7264638  67.3826564
  70.8962798 122.6610200  67.5859439  69.8755338 123.5620905  66.9241096
  72.5920142 122.0430509  64.3430511  72.5133773 121.7090372  65.2366269
  73.4129809 122.5352276  64.3421984  75.2898333 114.9092248  77.5506830
  75.2574653 113.9708249  77.7366514  75.8998957 114.9876285  76.8172655
  67.1281664 113.7788301  63.5934034  68.0740769 113.6494509  63.6622452
  66.7495909 113.0402963  64.0703462  75.4392821 111.7003291  77.5965113
  74.9231870 110.9161748  77.4095042  76.3232770 111.3722008  77.7611632
  73.1003548 105.4444307  73.5560926  72.9028369 105.1359395  74.4404258
  73.7103254 106.1705946  73.6858856  81.1074883 115.9708255  76.6912867
  81.8378271 115.7093543  77.2520570  80.4981828 115.2336977  76.7314935
  79.1890180 114.1116117  77.2887318  78.4623343 113.9772082  76.6803809
  78.7737467 114.4192946  78.0944036  67.0120356 117.8306047  85.0534691
  67.9323366 118.0084646  85.2474737  66.9769939 116.8862092  84.9014390
  65.3124581 111.7038277  63.5288919  64.4056036 111.4071390  63.6051633
  65.5900562 111.4068095  62.6623205  56.2302521 113.0244641  73.9787965
  55.9105306 112.1709949  73.6862339  55.6835950 113.2393219  74.7345933
  60.0082429 115.7407082  77.6957472  60.2268439 116.6724189  77.7145506
  60.4208203 115.3815056  78.4812276  66.9286647 106.2475167  69.6833160
  66.1187375 105.9022252  70.0588406  67.6171064 105.9382711  70.2720772
  68.8577195 105.3253214  71.3057457  69.4108234 105.7448667  71.9647480
  69.0947281 104.3988962  71.3480413  64.8810294 111.3140287  87.0860221
  64.7807021 112.2634644  87.0172312  64.6631836 110.9858526  86.2136291
  64.0823366 108.5625212  63.6700898  64.9442530 108.8880111  63.9296716
  64.2673710 107.7756708  63.1573964  56.0990781 116.6447552  75.9481087
  55.4054253 116.2301505  75.4351041  56.8463772 116.6868089  75.3514506
  72.2356002 107.4353739  70.8136121  71.6554671 108.0938543  70.4314174
  71.9691935 106.6131084  70.4023539  70.6859568 106.8358797  73.0157442
  71.1859347 106.9475331  72.2071760  71.3295176 106.5319849  73.6558250
  64.7441564 114.7437426  85.9025283  64.2608646 115.5437786  86.1089172
  64.8302503 114.7545371  84.9492727  58.0127524 116.5765806  73.8247102
  57.9898212 116.6753493  72.8728985  58.3228160 117.4230957  74.1464268
  60.6714902 118.6341961  77.9393716  61.6258155 118.6025903  77.8723648
  60.4727425 118.1732585  78.7543942  61.2614284 117.2043077  80.5064514
  62.0807173 117.6987156  80.5299351  61.5351092 116.2875045  80.4782082
  71.0180880 109.5953829  69.8692470  70.1306735 109.8803480  69.6512664
  71.4334869 109.4347593  69.0219746  74.3695416 109.6200350  73.5846809
  75.1455806 110.1096803  73.8571426  73.6443550 110.0458404  74.0418678
  76.8067975 110.3327970  74.6420749  77.4012466 110.0923705  73.9314058
  76.8794559 109.6135100  75.2694286  59.0265131 124.1761580  74.9563914
  58.8919598 123.4161981  74.3901912  58.6097193 124.9002480  74.4892703
  70.1624094 119.3598504  63.9640490  70.8659944 119.5648506  64.5798145
  69.4386742 119.9275266  64.2289573  70.9921904 115.1108365  70.0842760
  70.9357105 115.5676917  69.2450392  71.5450246 114.3499050  69.9065602
  74.8026710 110.8998097  70.9092879  74.5463644 110.4994733  71.7401087
  74.1779578 111.6141891  70.7843018  79.1139048 113.6394170  73.4164171
  78.5538606 113.7087360  74.1895733  78.5082551 113.4635155  72.6963667
  62.1834256 125.0730897  75.1682357  62.0666641 126.0176330  75.0661047
  61.3626703 124.7704459  75.5568156  72.0710791 119.7981033  66.0138950
  72.9056395 119.3662232  65.8316424  71.9095134 119.6263047  66.9415844
  71.7256683 116.3013146  67.3795289  71.6705487 116.1357418  66.4383733
  71.1002738 117.0089179  67.5357479  56.5149198 111.5381211  81.2056711
  57.1608062 111.0280165  81.6943936  56.3066349 112.2749893  81.7800136
  69.0402590 118.6062058  86.7048852  69.9093750 118.7802711  86.3435487
  68.5609342 119.4256475  86.5824581  65.0352809 105.8021256  66.9580607
  65.0231478 106.7463095  67.1148878  65.9276230 105.6191401  66.6640068
  63.2088771 125.7259159  78.3838285  64.1116017 125.7582770  78.7004780
  62.9826141 124.7959610  78.3984621  64.9642373 124.4790146  75.0448364
  64.0138004 124.4792008  74.9312736  65.2674859 123.7322880  74.5284399
  68.8504928 102.3964032  71.2126544  68.0837324 101.8422519  71.3583226
  69.2615633 102.4685901  72.0740696  60.8546689 108.6848828  85.3031725
  61.7178151 108.3285633  85.5135050  60.2812100 108.3462723  85.9907130
  80.6995066 130.3150684  76.1094126  81.3373476 130.1957432  75.4057466
  80.5815909 131.2631528  76.1682078  77.5084772 130.2678112  76.0455651
  77.1703284 130.1519177  75.1576186  78.3774541 129.8669277  76.0256657
  77.9904555 131.4212964  82.0041857  77.9793196 131.0265762  81.1322360
  78.1525195 130.6879037  82.5975628  75.2093052 129.0366360  65.3772591
  75.4618572 128.5147881  64.6156054  74.2717611 128.8732505  65.4799275
  80.2536335 128.0402138  73.1847334  81.0399424 127.6221561  72.8337751
  80.5175039 128.9448230  73.3528983  85.6544762 127.9777371  74.0880313
  86.3869934 127.4076588  74.3218142  84.8984117 127.5898972  74.5286818
  77.2720881 130.4004613  71.2843655  76.9079089 129.8735234  71.9956577
  78.1287997 130.0103082  71.1110141  83.1770182 121.6898945  78.5474921
  82.8453507 122.5594356  78.3236136  82.5815795 121.3735229  79.2268952
  76.9126368 125.4294513  66.2805004  77.0800771 126.2974749  66.6475475
  76.7223537 125.5921794  65.3566293  83.0698845 126.4094032  75.6268272
  82.1615723 126.3409440  75.3327033  83.0186441 126.8865977  76.4550097
  76.8915589 127.8852170  67.2651671  76.7715214 128.3309221  68.1037151
  76.1968178 128.2337488  66.7065209  77.1439711 127.8283677  83.5703169
  76.3673045 128.3877597  83.5606033  77.7830274 128.3140460  84.0918039
  84.9360492 124.6110470  77.4046145  84.2934872 124.9043003  76.7585940
  84.4315420 124.4963390  78.2099342  82.5900655 128.3573643  68.0932005
  83.5018511 128.5901030  67.9179702  82.0810302 128.9410687  67.5307083
  80.8741423 132.7798271  81.7293297  81.2824779 132.3380682  80.9847930
  80.1518685 132.2050899  81.9827490  77.2272493 127.7170878  79.1026854
  78.0733688 128.1410291  79.2461503  77.1671131 127.0604502  79.7965417
  80.3771938 125.3775246  80.7608028  80.1332870 126.1317307  80.2242304
  80.6531869 125.7560594  81.5955275  82.3310401 131.9213859  79.4385293
  82.5427296 132.5645618  78.7619675  82.2840149 131.0876175  78.9707224
  79.9336630 124.5331679  76.3421866  79.0721109 124.8312933  76.6338603
  79.9599065 124.7502078  75.4102898  75.6867086 129.1997022  69.5585236
  76.3891129 129.6518066  70.0259163  75.3547714 128.5580841  70.1865130
  74.1347447 127.7908779  83.9336446  73.5046108 128.4725060  84.1671843
  74.0283535 127.6791860  82.9889584  69.4292420 127.4580575  74.8602370
  68.6391474 127.7138103  74.3842481  69.9203667 128.2728913  74.9654411
  71.3807165 127.8225154  71.8185847  70.5838328 127.9343848  72.3369342
  71.1532757 128.1611806  70.9526737  73.4128190 122.0929545  86.2961697
  73.0195135 121.5395743  86.9709341  74.2294330 122.4040123  86.6868214
  76.3296151 123.5087424  83.8881953  77.0705864 124.1094577  83.8086416
  76.5614074 122.7665061  83.3299996  71.4737489 128.6943791  82.1660183
  71.3591004 127.7929048  82.4667282  70.6182007 128.9407488  81.8145000
  80.2753314 119.5368527  78.1646235  79.9317583 120.4270168  78.0885346
  80.6432276 119.3470184  77.3015820  80.2403597 129.5277138  66.6718670
  79.7250220 130.2981742  66.9107058  79.9680905 128.8542274  67.2951732
  77.8250708 124.3726839  71.7303909  76.9692304 123.9833689  71.5509547
  78.2377659 124.4518799  70.8703694  79.3549854 121.9073182  76.1295468
  78.8514650 121.8703317  75.3163274  79.6480461 122.8165925  76.1892125
  75.5992740 121.9911912  75.1361650  76.4645737 121.7954720  74.7767540
  75.6670249 121.7622263  76.0631007  80.0289900 127.4004230  68.4978451
  79.7240035 127.7150379  69.3488595  80.9820342 127.4785650  68.5405784
  73.2055059 124.2214119  72.5078017  73.7798811 123.9989301  71.7751210
  73.7926042 124.2902814  73.2606618  82.2634636 130.1087846  73.3142393
  82.7766518 130.7417838  73.8164103  82.9135860 129.5089042  72.9485753
  73.5324646 126.2518580  66.5273902  72.6961959 126.5893267  66.8483177
  73.3929416 126.1167560  65.5901039  75.5077727 121.0955368  71.2353086
  74.8542139 120.7804386  70.6109701  75.4658201 120.4731109  71.9612909
  76.6188932 131.3774663  63.1506378  75.7115993 131.1463917  63.3497527
  77.1159964 130.5812283  63.3380360  78.7415467 127.5837302  75.5600734
  77.8238029 127.8052249  75.4022422  79.1575611 127.6583612  74.7012441
  79.5250515 128.9828718  70.6903414  80.2722334 129.4950115  70.3810536
  79.7942105 128.6612770  71.5507808  77.7977165 131.4787258  67.6730369
  76.8888384 131.1946291  67.7702838  77.8272249 131.8986337  66.8133675
  81.9729352 126.0185834  72.6722204  81.2352109 125.5063220  73.0032446
  82.2256126 125.5786215  71.8605480  82.0740979 118.7962086  73.2663973
  82.3799856 117.9359449  72.9789888  82.7993584 119.3879706  73.0662967
  76.3462059 129.0915879  73.7740164  76.4010669 128.1389715  73.6982640
  75.5353261 129.2475318  74.2581462  74.2854419 127.7092939  71.5330543
  73.4722285 128.0087109  71.9395735  74.7813413 127.3148627  72.2505025
  79.8828631 128.1734763  80.3645437  80.2378019 128.4006236  81.2239902
  80.5300762 128.5053140  79.7422692  73.7768494 125.2811294  77.1491778
  74.4167873 125.1400053  76.4514741  72.9446024 124.9945808  76.7730380
  70.8611561 128.7256806  69.3386523  69.9309149 128.6641262  69.5556485
  70.9569033 128.2032759  68.5423164  70.7797110 125.2511619  71.9264764
  71.0403928 126.1656952  71.8173925  71.6014283 124.7836062  72.0761377
  72.2522036 126.6649376  79.0963589  72.9245089 126.4566738  78.4476238
  71.4251822 126.4671462  78.6568821  78.1547608 123.2911317  81.1129250
  77.5075523 123.9901267  81.0193726  78.9248623 123.7247461  81.4805498
  78.3311742 131.1292082  79.1726070  79.2603802 131.2803242  78.9995037
  77.9102772 131.2176103  78.3174716  72.6549533 129.9391979  79.8566026
  72.5169331 129.2072218  80.4577565  73.5654456 129.8500879  79.5750214
  81.6164481 131.8780384  64.6050505  80.9993651 131.1527212  64.5083557
  81.1480969 132.6389744  64.2617579  75.2831834 129.6511939  79.3449706
  75.9931452 129.0105131  79.3036324  75.2401142 129.9024833  80.2675887
  73.9960768 126.6377156  81.1645345  73.4598125 126.1867895  81.8166942
  73.4077476 126.7723065  80.4215810  73.4063027 126.0965808  63.7271809
  72.5292493 125.9754609  63.3634056  73.8820780 125.3051886  63.4750698
  69.7299889 125.7733164  78.2498340  69.6458078 125.1658834  77.5148750
  68.9082595 126.2642183  78.2507836  79.9023603 124.2586728  73.6168535
  80.3992302 123.5056690  73.2969605  79.1310584 124.2951044  73.0511744
  76.4858571 126.4004111  73.3440219  76.1156359 125.8475151  74.0321125
  76.9817664 125.7962244  72.7915219  84.3725935 128.8575734  71.7256992
  84.8386387 129.6903726  71.6517295  84.8233435 128.3920716  72.4302251
  82.3442597 121.2256321  75.7647894  81.4305677 121.4560548  75.9330101
  82.7735699 121.3094765  76.6161926  82.1149056 129.4146213  78.2647788
  81.4620506 129.6622121  77.6100241  82.4929436 128.6010351  77.9310265
  78.1636629 130.1566024  84.7513825  77.4877266 130.0560154  85.4216200
  78.9864263 130.0005238  85.2149822  71.8823905 123.8108101  79.5893326
  71.9465232 124.6722932  79.1770723  71.8191025 123.1982103  78.8565684
  71.3576178 125.8831234  83.2366360  71.9848216 125.5008311  83.8503884
  70.5004096 125.6645436  83.6022052  68.1341720 127.6907663  69.1684715
  68.4295161 126.7818342  69.1151768  67.2329756 127.6695403  68.8465717
  71.6635967 125.7663660  75.1512263  70.9422553 126.3799627  75.0119737
  72.4529223 126.3021425  75.0728909  74.4662281 123.1018086  81.4252915
  74.9896683 123.3480383  82.1879224  74.2474614 123.9338121  81.0056052
  69.8629562 125.3721761  69.2924040  69.5342268 124.4919140  69.1099146
  70.2168933 125.3169430  70.1800429  72.9771385 125.6594731  69.6599517
  73.3167458 126.1880652  68.9378126  73.4243506 125.9975137  70.4358084
  75.6714826 124.0431781  79.1102585  75.3311646 123.2439594  79.5123265
  74.9653832 124.3433492  78.5379419  76.3231298 121.1281094  77.5629909
  77.1457367 120.6541572  77.4408799  76.5669361 121.9071578  78.0628595
  74.9639532 124.1569352  67.8592810  75.6847895 124.5350605  67.3556527
  74.3404836 124.8758229  67.9627788  79.1070655 124.8614501  68.7951143
  79.3234270 125.7439139  68.4939971  78.6264722 124.4700715  68.0656785
  73.8469876 127.8200214  75.3721887  73.7014457 128.1340517  76.2646169
  73.3695080 128.4385115  74.8192786  75.7066259 124.8102762  75.4202777
  75.6927828 123.9143856  75.0835075  76.4238687 124.8173426  76.0541063
  77.5592390 125.2440103  77.4655904  77.3010168 126.1657173  77.4640235
  77.0277430 124.8470537  78.1556368  75.1103155 123.6917143  70.6890347
  75.2319067 122.7633789  70.8881234  74.8205198 123.7055829  69.7768662
  77.9794346 121.3772053  73.8257067  78.0016043 121.4411386  72.8709046
  78.3962405 120.5376562  74.0197573  74.5944235 125.2049140  84.8980279
  74.6432390 126.0811263  84.5158049  75.1366749 124.6626533  84.3251923
  82.4900718 128.5813658  82.8073452  83.3910581 128.4420123  82.5157450
  82.5648692 128.7468113  83.7471629  76.8243523 125.9580512  81.6526638
  75.9546833 126.2514078  81.3809227  77.0603004 126.5420957  82.3733902
  84.9502341 130.1412286  80.2036225  85.4256462 130.3339932  79.3955076
  84.0267906 130.1971472  79.9579608  79.5282557 122.1760129  79.1692058
  80.0464501 122.9121156  78.8438547  79.1737690 122.4824123  80.0038818
  71.1081495 127.0364811  67.2853464  70.4150740 127.1109166  66.6293500
  70.8633247 126.2725154  67.8074981  79.7795151 118.5960412  74.6892955
  80.0596905 117.9283601  75.3153382  80.5645758 118.7889508  74.1767619
  83.6504010 127.0178046  78.4364530  84.6021433 127.1176144  78.4576754
  83.4807460 126.2256314  78.9462615  81.6718389 124.1033629  78.6223931
  81.0768321 124.3838642  77.9270420  81.3868086 124.5927530  79.3940672
  77.9675418 129.1080219  63.5934034  78.9134523 128.9786427  63.6622452
  77.5889663 128.3694880  64.0703462  86.2786576 127.0295209  77.5965113
  85.7625625 126.2453666  77.4095042  87.1626524 126.7013926  77.7611632
  83.9397303 120.7736225  73.5560926  83.7422124 120.4651313  74.4404258
  84.5497008 121.4997863  73.6858856  76.1518335 127.0330195  63.5288919
  75.2449791 126.7363308  63.6051633  76.4294316 126.7360013  62.6623205
  77.7680401 121.5767085  69.6833160  76.9581129 121.2314170  70.0588406
  78.4564818 121.2674628  70.2720772  79.6970949 120.6545131  71.3057457
  80.2501988 121.0740585  71.9647480  79.9341036 119.7280880  71.3480413
  75.7204049 126.6432205  87.0860221  75.6200776 127.5926562  87.0172312
  75.5025591 126.3150444  86.2136291  74.9217120 123.8917130  63.6700898
  75.7836284 124.2172028  63.9296716  75.1067464 123.1048626  63.1573964
  83.0749757 122.7645657  70.8136121  82.4948426 123.4230461  70.4314174
  82.8085689 121.9423001  70.4023539  81.5253323 122.1650714  73.0157442
  82.0253101 122.2767249  72.2071760  82.1688931 121.8611767  73.6558250
  75.5835319 130.0729344  85.9025283  75.1002400 130.8729704  86.1089172
  75.6696258 130.0837289  84.9492727  81.8574635 124.9245747  69.8692470
  80.9700490 125.2095398  69.6512664  82.2728624 124.7639510  69.0219746
  85.2089171 124.9492268  73.5846809  85.9849561 125.4388720  73.8571426
  84.4837305 125.3750322  74.0418678  87.6461729 125.6619887  74.6420749
  88.2406220 125.4215623  73.9314058  87.7188313 124.9427018  75.2694286
  81.8315658 130.4400283  70.0842760  81.7750860 130.8968834  69.2450392
  82.3844001 129.6790968  69.9065602  85.6420464 126.2290015  70.9092879
  85.3857398 125.8286650  71.7401087  85.0173332 126.9433809  70.7843018
  82.5650438 131.6305064  67.3795289  82.5099241 131.4649336  66.4383733
  81.9396493 132.3381097  67.5357479  67.3542953 126.8673129  81.2056711
  68.0001816 126.3572083  81.6943936  67.1460104 127.6041810  81.7800136
  75.8746563 121.1313173  66.9580607  75.8625233 122.0755013  67.1148878
  76.7669985 120.9483319  66.6640068  79.6898683 117.7255950  71.2126544
  78.9231078 117.1714437  71.3583226  80.1009388 117.7977819  72.0740696
  71.6940444 124.0140746  85.3031725  72.5571905 123.6577550  85.5135050
  71.1205854 123.6754640  85.9907130  15.6632540  15.3461301  62.8339433
  16.3010950  15.2268048  62.1302773  15.5453383  16.2942145  62.8927385
  12.4722247  15.2988729  62.7700958  12.1340758  15.1829794  61.8821493
  13.3412015  14.8979894  62.7501964   8.3309062  17.1524205  58.7597849
   7.7673927  17.0614142  57.9914136   8.2161457  16.3324110  59.2400341
  12.9542030  16.4523581  68.7287163  12.9430670  16.0576379  67.8567667
  13.1162669  15.7189653  69.3220935   5.8773494  18.6475397  61.5982069
   6.6694786  18.3066222  61.1828368   6.1170144  18.7570372  62.5184222
  13.9108621  20.8195173  54.0712314  13.2596601  21.4049253  53.6846327
  14.7052984  21.3501368  54.1307351   7.8364248  17.9084310  54.4699448
   8.6095124  17.3613297  54.3312324   8.1889647  18.7728560  54.6813909
   9.6749291  19.2360692  67.6766347   9.3839157  20.1406323  67.5613013
  10.3106275  19.2777220  68.3910417  10.6005498  16.6137541  64.2667707
  11.1969070  16.3893563  63.5524670  10.6580469  15.8722286  64.8693155
  10.1730526  14.0676976  52.1017898  10.4256047  13.5458498  51.3401361
   9.2355085  13.9043122  52.2044581  15.2173809  13.0712755  59.9092641
  16.0036898  12.6532178  59.5583058  15.4812513  13.9758847  60.0774289
  15.3883886  18.5085605  54.6081298  14.7529719  18.5820232  55.3202202
  15.0581293  19.0979204  53.9300377  20.6182236  13.0087988  60.8125620
  21.3507408  12.4387205  61.0463449  19.8621592  12.6209588  61.2532125
   9.8926815  15.9705082  54.3042273   9.7763073  15.2949986  54.9723357
  10.0029075  15.4837456  53.4874426  12.2358356  15.4315229  58.0088962
  11.8716563  14.9045850  58.7201883  13.0925472  15.0413698  57.8355447
  18.1407656   6.7209562  65.2720228  17.8090981   7.5904973  65.0481443
  17.5453270   6.4045846  65.9514259  11.8763843  10.4605129  53.0050311
  12.0438245  11.3285365  53.3720782  11.6861012  10.6232411  52.0811600
  14.6339176  18.9222108  64.6716141  14.3339899  19.8247147  64.5631948
  14.2890235  18.6554291  65.5237294   8.0851657  15.3735905  60.7052845
   7.1602154  15.2412119  60.9130537   8.3336071  16.1530124  61.2022788
  18.0336320  11.4404648  62.3513578  17.1253197  11.3720057  62.0572339
  17.9823915  11.9176593  63.1795404  11.8553064  12.9162787  53.9896977
  11.7352689  13.3619837  54.8282458  11.1605652  13.2648104  53.4310515
   5.4460468  15.0169178  61.5396634   5.5752850  15.2703657  62.4536046
   4.7657920  15.6096886  61.2201289   9.6159956  25.6866428  57.6387109
   9.5383985  26.6374253  57.7175589   9.0121599  25.3412301  58.2962035
  12.1077185  12.8594294  70.2948475  11.3310519  13.4188214  70.2851340
  12.7467748  13.3451077  70.8163346  19.8997966   9.6421087  64.1291452
  19.2572346   9.9353620  63.4831247  19.3952895   9.5274007  64.9344649
  17.5538130  13.3884260  54.8177311  18.4655986  13.6211647  54.6425009
  17.0447777  13.9721304  54.2552390  10.3623558  15.6679747  69.8566442
  11.1038242  16.2064791  69.5801266   9.6560543  16.2946036  70.0137994
  15.8378897  17.8108888  68.4538604  16.2462253  17.3691298  67.7093236
  15.1156159  17.2361515  68.7072797  12.1909967  12.7481494  65.8272161
  13.0371163  13.1720908  65.9706810  12.1308605  12.0915119  66.5210724
  16.1607712  18.3710078  62.2090893  15.5316574  18.5355792  61.5066961
  15.7733374  18.7851688  62.9801857  20.0396944  19.3064516  59.5635257
  19.3547982  19.6863417  59.0132290  20.1240793  19.9159843  60.2967204
  15.3409413  10.4085863  67.4853335  15.0970345  11.1627923  66.9487610
  15.6169343  10.7871210  68.3200582  17.2947876  16.9524475  66.1630600
  17.5064771  17.5956235  65.4864981  17.2477624  16.1186792  65.6952530
  14.8974104   9.5642296  63.0667172  14.0358584   9.8623549  63.3583910
  14.9236539   9.7812695  62.1348205  11.7135674  18.1084486  59.4740978
  12.1774019  18.3872189  58.6845600  11.4492472  17.2067931  59.2914069
   8.6059755  17.6555968  62.4120741   9.1761112  18.0843236  61.7738226
   9.1967867  17.3738553  63.1104927  10.6504560  14.2307639  56.2830543
  11.3528603  14.6828682  56.7504469  10.3185188  13.5891458  56.9110436
   9.0984921  12.8219395  70.6581752   8.4683582  13.5035676  70.8917149
   8.9921009  12.7102477  69.7134891  18.4093703  19.8296431  64.3352957
  19.2311147  19.4276618  64.0535639  18.4056106  19.7264665  65.2869073
  12.1750307  19.3780474  66.4913668  12.2394739  19.8400881  67.3271840
  11.4661231  18.7477839  66.6195978  26.4999697  16.1735179  60.6837929
  25.7463405  15.6042577  60.5281933  26.6347238  16.1397843  61.6308564
  11.8898325  21.0448581  56.3592648  11.7543999  21.8900117  56.7877496
  12.4308137  21.2467859  55.5958582   5.3427722  18.5624019  56.9320573
   5.8552243  19.3567270  57.0826138   5.9950435  17.8650310  56.8654175
   7.1522607  21.6789776  59.0143327   7.3289235  22.6007740  58.8264310
   7.9479440  21.3648195  59.4437706  13.5166801  21.6672148  70.4892990
  13.0730655  20.8808526  70.1713895  14.1784015  21.8551298  69.8236881
   8.2753922  23.1967949  65.0153669   8.8261347  23.0685013  64.2430663
   7.4365398  23.4962838  64.6648562  15.6148039  21.9474948  68.5174392
  15.5966514  22.7683829  68.0254661  16.5367959  21.8229023  68.7424533
  12.0721093  19.4619077  69.3597900  12.6049430  18.7007365  69.1297208
  11.5435174  19.1692729  70.1022054  15.2041071  14.5587754  53.3963977
  14.6887694  15.3292359  53.6352364  14.9318379  13.8852890  54.0197038
  20.1775345  17.3120109  55.3317150  19.4004788  16.9731268  54.8872312
  20.8566826  17.3172732  54.6572115  14.9927374  12.4314846  55.2223758
  14.6877510  12.7460996  56.0733901  15.9457816  12.5096266  55.2651091
  13.4373806  18.5905070  56.8716712  12.9095167  17.8557829  56.5589949
  12.9361309  19.3679746  56.6256680  18.4166652  16.7854090  61.9883758
  17.7590326  17.4753352  62.0763887  19.2207051  17.1750522  62.3317745
  17.2272111  15.1398463  60.0387700  17.7403992  15.7728455  60.5409410
  17.8773335  14.5399658  59.6731060  11.5826406  16.4085280  49.8751685
  10.6753468  16.1774533  50.0742834  12.0797438  15.6122899  50.0625667
  14.4894485  25.1182787  52.7948371  13.8156184  25.4214484  53.4033329
  14.8760307  25.9211867  52.4453828  13.7052942  12.6147918  62.2846041
  12.7875503  12.8362865  62.1267729  14.1213085  12.6894229  61.4257748
  14.4887989  14.0139334  57.4148721  15.2359808  14.5260731  57.1055843
  14.7579579  13.6923387  58.2753114  12.7614639  16.5097875  54.3975675
  11.8525859  16.2256908  54.4948145  12.7909723  16.9296953  53.5378982
  17.9933907  20.1204464  58.1666843  17.5396234  19.2795374  58.2232033
  17.3627874  20.7565863  58.5041623  16.9366826  11.0496450  59.3967510
  16.1989583  10.5373837  59.7277753  17.1893600  10.6096832  58.5850787
  16.4366846  21.9580961  59.1016661  16.7289821  22.5186018  58.3829026
  16.9465467  22.2509522  59.8569820  11.3099534  14.1226495  60.4985471
  11.3648143  13.1700332  60.4227947  10.4990736  14.2785935  60.9826769
  12.4590727  18.0506618  51.7363754  12.0210157  17.3342477  51.2769391
  13.2001168  18.2782733  51.1748845   9.2491893  12.7403555  58.2575849
   8.4359759  13.0397726  58.6641042   9.7450888  12.3459244  58.9750332
  11.4000471  22.7361312  60.1910114  11.3576650  22.9622158  59.2618646
  12.3163170  22.5024687  60.3395915  14.8466105  13.2045380  67.0890743
  15.2015493  13.4316853  67.9485209  15.4938236  13.5363756  66.4667999
  20.5763842  16.3263816  57.7940072  20.4381741  16.5165412  56.8661262
  20.2200061  17.0883198  58.2508123  20.6033222  18.3940343  62.8051344
  21.0369728  18.3015632  63.6534398  21.3164802  18.3697843  62.1671360
   9.5166272  19.6124341  59.9872077  10.3106871  19.1174661  59.7854652
   8.8057965  19.0842204  59.6239782  14.3361117  21.9942437  64.3384444
  14.3898139  22.5633373  65.1062160  13.4675898  22.1644322  63.9738482
  21.4648771  18.4364043  65.3384229  21.6584661  19.3409854  65.5843504
  21.3649389  17.9771462  66.1722814  16.5263880  18.5870786  70.9125110
  16.3749386  18.3581338  69.9955194  16.5168559  19.5441387  70.9256455
  13.2949216  16.1602699  65.8971376  14.2241276  16.3113858  65.7240344
  12.8740246  16.2486719  65.0420023  12.0937548  20.1853363  63.6669914
  11.9548634  19.8172148  64.5395852  11.3052144  20.7001003  63.4953872
  12.6885700  25.2862460  55.0095450  12.8637456  24.8150503  55.8241073
  12.0018488  25.9128226  55.2376711  13.6442763  19.5634966  61.0558752
  13.3092596  19.5235736  61.9516402  13.1446709  18.8979682  60.5829162
   7.6187007  14.9702596  66.5811333   7.4806805  14.2382835  67.1822872
   8.5291931  14.8811496  66.2995521  16.5801955  16.9091000  51.3295811
  15.9631126  16.1837828  51.2328864  16.1118443  17.6700360  50.9862886
  10.2469308  14.6822555  66.0695012  10.9568926  14.0415747  66.0281631
  10.2038616  14.9335450  66.9921193  18.2356087  21.6189908  68.9901592
  18.1768633  20.9349129  68.3232175  18.6375605  22.3608898  68.5382218
   7.2546785  28.4351822  61.7835311   7.4943384  29.0670346  62.4614329
   6.4115982  28.0839862  62.0700670  18.2373494  19.5829492  67.2215571
  17.3500273  19.2455414  67.3441970  18.8072045  18.8512524  67.4584337
  11.7674647  24.2430945  64.1876815  11.6944819  25.0485916  64.6996119
  11.3252040  24.4422911  63.3624836  11.5564427  23.4802715  57.6979636
  10.7731949  24.0224395  57.7917861  12.2557172  23.9976694  58.0973877
  14.8661077   9.2897344  60.3413841  15.3629777   8.5367307  60.0214912
  14.0948058   9.3261661  59.7757051  22.7190834  14.9937710  61.9832133
  22.7080711  15.8762425  61.6126066  21.8508214  14.6409261  61.7886670
  14.2273331  24.1417779  66.3434973  14.9401303  24.7765244  66.2710875
  13.7363359  24.2381645  65.5274975  15.9490858  18.0469031  57.9152265
  15.0147136  18.1670494  57.7456969  16.1267526  17.1441498  57.6512275
  11.4496046  11.4314727  60.0685526  11.0793833  10.8785768  60.7566432
  11.9455138  10.8272861  59.5160526  19.3363409  13.8886351  58.4502299
  19.8023861  14.7214342  58.3762602  19.7870910  13.4231332  59.1547558
   9.2785244  21.8912222  67.1640544   9.9794704  22.5248705  67.3169938
   8.8080359  22.2326954  66.4036183  17.4039640  20.2330172  55.4488451
  17.6799484  20.1186767  56.3582325  16.5344139  19.8347657  55.4100624
  17.0786530  14.4456830  64.9893094  16.4257980  14.6932737  64.3345547
  17.4566910  13.6320968  64.6555572  14.0393704  24.4816523  59.0921265
  14.2216099  23.6638179  59.5549017  14.8626690  24.6984215  58.6546155
  14.3735870  23.4084708  56.3536313  14.9023636  22.8977163  55.7406475
  14.6364089  23.0927238  57.2181846  13.1274103  15.1876641  71.4759131
  12.4514740  15.0870770  72.1461507  13.9501737  15.0315855  71.9395129
   4.8752962  21.4248577  64.0971647   5.4606399  20.6792265  64.2299551
   4.6777801  21.7352534  64.9808311   7.7291618  24.4599825  59.1134089
   7.0601993  24.9445952  58.6298129   7.5904487  24.7069045  60.0277468
  11.8696886  26.4943568  65.7116747  12.4215194  26.6575190  66.4765833
  12.2103080  27.0848006  65.0396772  16.7207760  21.3204826  71.5665402
  17.2647664  21.9334784  71.0720357  16.1394605  21.8784404  72.0832415
  15.0065273  24.4425544  62.6980430  14.8816413  23.6415284  62.1891375
  15.6644365  24.9371737  62.2094400  17.0700182  22.2434564  64.3259980
  16.1230517  22.1239915  64.2538306  17.4182955  21.3557062  64.4086241
  14.0746615  22.0387280  60.5264332  13.9271578  21.1103987  60.7071902
  14.9000109  22.0607371  60.0421407  17.6780737  22.8615839  61.6129205
  18.6027284  22.6558700  61.4753656  17.5096040  22.6132240  62.5218546
  14.0708129   9.8925118  55.5196449  14.2871744  10.7749756  55.2185277
  13.5902197   9.5011331  54.7902091   8.8107351  12.8510831  62.0967194
   8.6651932  13.1651134  62.9891475   8.3332554  13.4695731  61.5438092
  17.4676053  23.3801506  56.9691296  17.6412931  22.8147929  56.2165149
  17.9604944  24.1802401  56.7870786  23.3215444  16.1437929  58.5881596
  23.7646590  15.3945254  58.1900719  22.4441955  16.1348066  58.2055328
  18.4551226  22.6968271  54.0688194  19.1502130  23.3174963  54.2875509
  18.7974376  21.8463622  54.3440572  20.3542649  20.1467976  55.5975525
  20.8793973  20.4855249  54.8724845  20.2665001  19.2114991  55.4138660
  12.0162697  24.0602050  67.7265402  12.3249824  23.8151197  68.5988101
  12.8138180  24.2648688  67.2384272  12.0383310  26.2139959  59.9570778
  11.5988300  25.7216338  60.6503635  12.7891426  25.6712927  59.7162854
   4.5175649  22.4051500  59.9595406   5.3433668  22.1055272  59.5794050
   4.1669701  21.6359123  60.4085195   9.4857182  21.7577969  62.0293080
   8.8637191  21.0948674  61.7295308  10.1562049  21.7839100  61.3466728
   2.7184254  20.3237827  60.9184340   1.8816162  19.8960001  60.7368341
   2.6907899  20.5170270  61.8555131  20.0436555  20.7800880  70.9026723
  19.2532099  20.7625019  70.3631223  19.8069909  21.3189174  71.6575760
  20.1634430  17.6293346  68.2159452  20.2132435  17.4643354  69.1574974
  20.0548353  16.7620605  67.8257332   9.0470689  20.3081892  55.5051541
   9.1958809  20.9917356  54.8518213   9.8537132  20.2886982  56.0200996
  17.4538192  13.6124274  69.5318758  18.3548055  13.4730739  69.2402756
  17.5286167  13.7778729  70.4716936  11.7880998  10.9891129  68.3771945
  10.9184307  11.2824695  68.1054533  12.0240478  11.5731574  69.0979208
  21.6652627  20.0490288  68.4601473  21.3737435  20.4120268  69.2964934
  21.0524758  19.3357296  68.2814805  22.8648309  17.6143167  60.9804043
  23.6995200  18.0532972  61.1441604  23.0007438  17.1381821  60.1612289
  19.9139815  15.1722902  66.9281531  20.3893937  15.3650549  66.1200383
  18.9905380  15.2282088  66.6824915   6.8023322  16.3347070  56.5112609
   6.5569364  15.4309400  56.7092820   6.9719236  16.3364220  55.5692087
  12.5466094  22.8030022  52.9763288  11.9740061  23.4220209  52.5233760
  13.1198888  23.3529384  53.5103210  18.6141484  12.0488662  65.1609837
  19.5658907  12.1486760  65.1822061  18.4444934  11.2566931  65.6707921
  16.6355863   9.1344246  65.3469238  16.0405796   9.4149258  64.6515726
  16.3505560   9.6238147  66.1185979  15.7663354  23.0867172  54.1071870
  16.6994027  23.0212734  54.3104746  15.6786567  23.9223439  53.6486403
  18.3951371  22.4033043  51.0675818  18.3165002  22.0692906  51.9611576
  19.2161037  22.8954811  51.0667290  21.0929562  15.2694782  64.2752136
  21.0605882  14.3310783  64.4611820  21.7030185  15.3478819  63.5417961
  12.9312893  14.1390835  50.3179341  13.8771997  14.0097043  50.3867759
  12.5527138  13.4005497  50.7948769  21.2424050  12.0605826  64.3210420
  20.7263099  11.2764282  64.1340349  22.1263999  11.7324542  64.4856939
  18.9034777   5.8046841  60.2806232  18.7059598   5.4961929  61.1649564
  19.5134483   6.5308480  60.4104162  26.9106112  16.3310789  63.4158173
  27.6409500  16.0696077  63.9765877  26.3013057  15.5939511  63.4560241
  24.9921409  14.4718652  64.0132624  24.2654572  14.3374616  63.4049116
  24.5768696  14.7795480  64.8189342  12.8151585  18.1908581  71.7779997
  13.7354595  18.3687180  71.9720044  12.7801168  17.2464627  71.6259697
  11.1155810  12.0640811  50.2534226  10.2087265  11.7673924  50.3296939
  11.3931791  11.7670630  49.3868512   5.8113658  16.1009616  64.4202779
   6.0299667  17.0326724  64.4390812   6.2239432  15.7417590  65.2057582
  10.6841523  11.6742822  73.8105528  10.5838250  12.6237179  73.7417619
  10.4663065  11.3461061  72.9381598  18.0387231   7.7956273  57.5381428
  17.4585900   8.4541077  57.1559480  17.7723164   6.9733618  57.1268845
  16.4890797   7.1961331  59.7402748  16.9890576   7.3077865  58.9317067
  17.1326405   6.8922384  60.3803557  10.5472793  15.1039960  72.6270589
  10.0639875  15.9040321  72.8334478  10.6333732  15.1147905  71.6738033
   3.8158753  16.9368340  60.5492409   3.7929441  17.0356027  59.5974292
   4.1259389  17.7833491  60.8709575   6.4746131  18.9944495  64.6639023
   7.4289384  18.9628438  64.5968955   6.2758654  18.5335119  65.4789249
   7.0645513  17.5645611  67.2309821   7.8838402  18.0589690  67.2544658
   7.3382320  16.6477579  67.2027388  16.8212109   9.9556364  56.5937776
  15.9337964  10.2406014  56.3757971  17.2366098   9.7950127  55.7465053
  20.1726645   9.9802885  60.3092115  20.9487035  10.4699337  60.5816732
  19.4474779  10.4060939  60.7663985  22.6099204  10.6930504  61.3666056
  23.2043694  10.4526240  60.6559364  22.6825787   9.9737634  61.9939592
   4.8296359  24.5364115  61.6809221   4.6950827  23.7764516  61.1147219
   4.4128422  25.2605015  61.2138010  15.9655322  19.7201038  50.6885796
  16.6691172  19.9251041  51.3043452  15.2417971  20.2877800  50.9534880
  16.7953133  15.4710899  56.8088066  16.7388334  15.9279451  55.9695699
  17.3481475  14.7101584  56.6310909  20.6057939  11.2600631  57.6338186
  20.3494873  10.8597267  58.4646394  19.9810807  11.9744425  57.5088325
  24.9170276  13.9996705  60.1409477  24.3569834  14.0689894  60.9141039
  24.3113780  13.8237689  59.4208973   7.9865485  25.4333432  61.8927664
   7.8697869  26.3778864  61.7906354   7.1657931  25.1306993  62.2813463
  17.8742020  20.1583567  52.7384256  18.7087624  19.7264766  52.5561731
  17.7126363  19.9865581  53.6661151  17.5287912  16.6615681  54.1040596
  17.4736716  16.4959952  53.1629040  16.9033967  17.3691714  54.2602785
  14.8433819  18.9664593  73.4294158  15.7124979  19.1405245  73.0680793
  14.3640571  19.7859009  73.3069888   9.0119999  26.0861694  65.1083592
   9.9147246  26.1185304  65.4250087   8.7857369  25.1562145  65.1229928
  10.7673601  24.8392680  61.7693671   9.8169232  24.8394542  61.6558043
  11.0706088  24.0925415  61.2529705  26.5026295  30.6753219  62.8339433
  27.1404705  30.5559966  62.1302773  26.3847138  31.6234062  62.8927385
  23.3116001  30.6280647  62.7700958  22.9734513  30.5121711  61.8821493
  24.1805769  30.2271812  62.7501964  19.1702817  32.4816123  58.7597849
  18.6067682  32.3906060  57.9914136  19.0555212  31.6616027  59.2400341
  23.7935784  31.7815498  68.7287163  23.7824425  31.3868297  67.8567667
  23.9556424  31.0481571  69.3220935  16.7167249  33.9767315  61.5982069
  17.5088541  33.6358139  61.1828368  16.9563899  34.0862290  62.5184222
  24.7502376  36.1487091  54.0712314  24.0990355  36.7341171  53.6846327
  25.5446738  36.6793286  54.1307351  18.6758003  33.2376228  54.4699448
  19.4488879  32.6905215  54.3312324  19.0283402  34.1020477  54.6813909
  20.5143045  34.5652610  67.6766347  20.2232911  35.4698241  67.5613013
  21.1500030  34.6069138  68.3910417  21.4399252  31.9429459  64.2667707
  22.0362824  31.7185481  63.5524670  21.4974224  31.2014204  64.8693155
  21.0124281  29.3968894  52.1017898  21.2649801  28.8750415  51.3401361
  20.0748840  29.2335039  52.2044581  26.0567563  28.4004672  59.9092641
  26.8430653  27.9824096  59.5583058  26.3206268  29.3050765  60.0774289
  26.2277641  33.8377523  54.6081298  25.5923474  33.9112149  55.3202202
  25.8975047  34.4271122  53.9300377  31.4575990  28.3379906  60.8125620
  32.1901162  27.7679122  61.0463449  30.7015346  27.9501506  61.2532125
  20.7320569  31.2997000  54.3042273  20.6156827  30.6241903  54.9723357
  20.8422829  30.8129374  53.4874426  23.0752110  30.7607147  58.0088962
  22.7110317  30.2337768  58.7201883  23.9319226  30.3705616  57.8355447
  28.9801411  22.0501480  65.2720228  28.6484736  22.9196891  65.0481443
  28.3847024  21.7337764  65.9514259  22.7157597  25.7897047  53.0050311
  22.8832000  26.6577283  53.3720782  22.5254766  25.9524328  52.0811600
  25.4732930  34.2514026  64.6716141  25.1733653  35.1539064  64.5631948
  25.1283990  33.9846209  65.5237294  18.9245412  30.7027823  60.7052845
  17.9995908  30.5704037  60.9130537  19.1729825  31.4822042  61.2022788
  28.8730074  26.7696566  62.3513578  27.9646951  26.7011974  62.0572339
  28.8217670  27.2468511  63.1795404  22.6946818  28.2454704  53.9896977
  22.5746443  28.6911755  54.8282458  21.9999406  28.5940022  53.4310515
  16.2854223  30.3461096  61.5396634  16.4146604  30.5995575  62.4536046
  15.6051674  30.9388804  61.2201289  20.4553710  41.0158346  57.6387109
  20.3777740  41.9666171  57.7175589  19.8515354  40.6704219  58.2962035
  22.9470940  28.1886211  70.2948475  22.1704274  28.7480132  70.2851340
  23.5861503  28.6742994  70.8163346  30.7391721  24.9713004  64.1291452
  30.0966101  25.2645537  63.4831247  30.2346649  24.8565925  64.9344649
  28.3931884  28.7176177  54.8177311  29.3049740  28.9503564  54.6425009
  27.8841531  29.3013222  54.2552390  21.2017312  30.9971665  69.8566442
  21.9431997  31.5356709  69.5801266  20.4954298  31.6237954  70.0137994
  26.6772652  33.1400805  68.4538604  27.0856008  32.6983216  67.7093236
  25.9549913  32.5653433  68.7072797  23.0303722  28.0773412  65.8272161
  23.8764917  28.5012826  65.9706810  22.9702360  27.4207036  66.5210724
  27.0001467  33.7001996  62.2090893  26.3710329  33.8647710  61.5066961
  26.6127129  34.1143605  62.9801857  30.8790698  34.6356434  59.5635257
  30.1941737  35.0155335  59.0132290  30.9634548  35.2451760  60.2967204
  26.1803167  25.7377780  67.4853335  25.9364099  26.4919841  66.9487610
  26.4563098  26.1163128  68.3200582  28.1341630  32.2816393  66.1630600
  28.3458525  32.9248153  65.4864981  28.0871378  31.4478709  65.6952530
  25.7367859  24.8934213  63.0667172  24.8752338  25.1915467  63.3583910
  25.7630294  25.1104612  62.1348205  22.5529428  33.4376404  59.4740978
  23.0167774  33.7164107  58.6845600  22.2886226  32.5359849  59.2914069
  19.4453509  32.9847886  62.4120741  20.0154867  33.4135154  61.7738226
  20.0361621  32.7030470  63.1104927  21.4898314  29.5599556  56.2830543
  22.1922358  30.0120600  56.7504469  21.1578943  28.9183375  56.9110436
  19.9378676  28.1511313  70.6581752  19.3077337  28.8327594  70.8917149
  19.8314764  28.0394395  69.7134891  15.2323648  27.8183109  61.5847677
  14.4422702  28.0740638  61.1087787  15.7234896  28.6331447  61.6899717
  29.2487458  35.1588348  64.3352957  30.0704902  34.7568535  64.0535639
  29.2449861  35.0556582  65.2869073  17.1838394  28.1827688  58.5431153
  16.3869557  28.2946383  59.0614649  16.9563986  28.5214340  57.6772044
  23.0144061  34.7072391  66.4913668  23.0788494  35.1692799  67.3271840
  22.3054985  34.0769756  66.6195978  13.5161351  28.0713599  64.0162667
  13.7669390  28.9560609  64.2820243  14.0520900  27.8918201  63.2437759
  37.3393451  31.5027097  60.6837929  36.5857159  30.9334495  60.5281933
  37.4740992  31.4689761  61.6308564  22.7292079  36.3740499  56.3592648
  22.5937754  37.2192035  56.7877496  23.2701892  36.5759777  55.5958582
  19.2159419  22.4532079  73.0207004  18.8226364  21.8998277  73.6954648
  20.0325559  22.7642657  73.4113521  16.1821476  33.8915937  56.9320573
  16.6945997  34.6859187  57.0826138  16.8344189  33.1942227  56.8654175
  17.9916361  37.0081693  59.0143327  18.1682989  37.9299658  58.8264310
  18.7873195  36.6940112  59.4437706  22.1327380  23.8689958  70.6127260
  22.8737093  24.4697111  70.5331723  22.3645303  23.1267596  70.0545303
  17.2768718  29.0546325  68.8905490  17.1622233  28.1531582  69.1912589
  16.4213235  29.3010022  68.5390306  24.3560555  36.9964065  70.4892990
  23.9124410  36.2100444  70.1713895  25.0177769  37.1843216  69.8236881
  19.1147677  38.5259867  65.0153669  19.6655102  38.3976930  64.2430663
  18.2759153  38.8254756  64.6648562  26.4541794  37.2766865  68.5174392
  26.4360269  38.0975746  68.0254661  27.3761714  37.1520941  68.7424533
  22.9114848  34.7910995  69.3597900  23.4443184  34.0299283  69.1297208
  22.3828929  34.4984647  70.1022054  26.0784543  19.8971061  64.8891542
  25.7348812  20.7872703  64.8130652  26.4463505  19.7072718  64.0261127
  14.1470393  32.2204591  57.7080144  14.9845615  32.6301600  57.4913852
  14.3248661  31.2804033  57.6780338  26.0434825  29.8879672  53.3963977
  25.5281449  30.6584277  53.6352364  25.7712134  29.2144808  54.0197038
  23.6281936  24.7329373  58.4549215  22.7723533  24.3436223  58.2754854
  24.0408888  24.8121334  57.5949001  25.1581083  22.2675716  62.8540775
  24.6545879  22.2305851  62.0408580  25.4511690  23.1768459  62.9137432
  21.4023969  22.3514446  61.8606957  22.2676966  22.1557254  61.5012846
  21.4701478  22.1224797  62.7876313  31.0169099  32.6412027  55.3317150
  30.2398542  32.3023186  54.8872312  31.6960580  32.6464650  54.6572115
  25.8321129  27.7606764  55.2223758  25.5271264  28.0752913  56.0733901
  26.7851571  27.8388184  55.2651091  24.2767560  33.9196987  56.8716712
  23.7488922  33.1849747  56.5589949  23.7755063  34.6971664  56.6256680
  29.2560406  32.1146008  61.9883758  28.5984081  32.8045269  62.0763887
  30.0600806  32.5042440  62.3317745  19.0086288  24.5816654  59.2323324
  19.5830040  24.3591835  58.4996516  19.5957270  24.6505348  59.9851925
  28.0665865  30.4690381  60.0387700  28.5797747  31.1020372  60.5409410
  28.7167089  29.8691576  59.6731060  19.3355875  26.6121115  53.2519209
  18.4993187  26.9495801  53.5728484  19.1960645  26.4770094  52.3146346
  21.3108956  21.4557903  57.9598393  20.6573368  21.1406920  57.3355008
  21.2689430  20.8333643  58.6858216  22.4220161  31.7377198  49.8751685
  21.5147222  31.5066451  50.0742834  22.9191193  30.9414817  50.0625667
  25.3288239  40.4474705  52.7948371  24.6549938  40.7506402  53.4033329
  25.7154061  41.2503785  52.4453828  24.5446696  27.9439836  62.2846041
  23.6269257  28.1654783  62.1267729  24.9606840  28.0186147  61.4257748
  25.3281744  29.3431252  57.4148721  26.0753563  29.8552649  57.1055843
  25.5973333  29.0215305  58.2753114  23.6008394  31.8389793  54.3975675
  22.6919613  31.5548825  54.4948145  23.6303478  32.2588871  53.5378982
  28.8327661  35.4496382  58.1666843  28.3789989  34.6087292  58.2232033
  28.2021628  36.0857780  58.5041623  27.7760581  26.3788368  59.3967510
  27.0383338  25.8665754  59.7277753  28.0287354  25.9388750  58.5850787
  27.2760601  37.2872879  59.1016661  27.5683575  37.8477936  58.3829026
  27.7859221  37.5801440  59.8569820  27.8772208  19.1564620  59.9909279
  28.1831085  18.2961983  59.7035195  28.6024813  19.7482240  59.7908273
  14.1696564  29.5595307  58.3790877  13.9720964  28.9664667  57.6541944
  13.6143228  29.2547517  59.0966816  22.1493288  29.4518413  60.4985471
  22.2041898  28.4992250  60.4227947  21.3384490  29.6077852  60.9826769
  23.2984482  33.3798536  51.7363754  22.8603912  32.6634395  51.2769391
  24.0394923  33.6074651  51.1748845  20.0885648  28.0695473  58.2575849
  19.2753513  28.3689643  58.6641042  20.5844642  27.6751162  58.9750332
  22.2394226  38.0653230  60.1910114  22.1970405  38.2914076  59.2618646
  23.1556925  37.8316604  60.3395915  25.6859860  28.5337297  67.0890743
  26.0409247  28.7608770  67.9485209  26.3331991  28.8655674  66.4667999
  31.4157597  31.6555733  57.7940072  31.2775495  31.8457329  56.8661262
  31.0593815  32.4175116  58.2508123  19.5799723  25.6413828  63.8737084
  20.2199102  25.5002587  63.1760048  18.7477253  25.3548342  63.4975686
  31.4426976  33.7232260  62.8051344  31.8763483  33.6307549  63.6534398
  32.1558557  33.6989761  62.1671360  20.3560027  34.9416259  59.9872077
  21.1500625  34.4466579  59.7854652  19.6451719  34.4134122  59.6239782
  25.1754871  37.3234354  64.3384444  25.2291893  37.8925291  65.1062160
  24.3069652  37.4936239  63.9738482  16.6642790  29.0859341  56.0631829
  15.7340378  29.0243796  56.2801792  16.7600262  28.5635293  55.2668471
  16.5828339  25.6114153  58.6510071  16.8435156  26.5259487  58.5419232
  17.4045511  25.1438596  58.8006684  18.0553264  27.0251911  65.8208896
  18.7276318  26.8169273  65.1721545  17.2283051  26.8273997  65.3814128
  32.3042526  33.7655961  65.3384229  32.4978416  34.6701771  65.5843504
  32.2043144  33.3063380  66.1722814  23.9578836  23.6513851  67.8374557
  23.3106752  24.3503801  67.7439033  24.7279852  24.0849995  68.2050805
  27.3657634  33.9162704  70.9125110  27.2143141  33.6873255  69.9955194
  27.3562314  34.8733305  70.9256455  24.1342971  31.4894616  65.8971376
  25.0635031  31.6405776  65.7240344  23.7134001  31.5778637  65.0420023
  22.9331303  35.5145281  63.6669914  22.7942388  35.1464065  64.5395852
  22.1445899  36.0292920  63.4953872  23.5279455  40.6154377  55.0095450
  23.7031210  40.1442420  55.8241073  22.8412243  41.2420143  55.2376711
  24.4836518  34.8926883  61.0558752  24.1486350  34.8527653  61.9516402
  23.9840463  34.2271599  60.5829162  18.4580762  30.2994514  66.5811333
  18.3200560  29.5674752  67.1822872  19.3685685  30.2103414  66.2995521
  27.4195709  32.2382918  51.3295811  26.8024880  31.5129746  51.2328864
  26.9512198  32.9992278  50.9862886  21.0863062  30.0114473  66.0695012
  21.7962681  29.3707665  66.0281631  21.0432371  30.2627368  66.9921193
  29.0749841  36.9481826  68.9901592  29.0162387  36.2641046  68.3232175
  29.4769359  37.6900816  68.5382218  19.7991996  26.9979691  67.8890652
  19.2629353  26.5470429  68.5412248  19.2108705  27.1325600  67.1461116
  18.0940540  43.7643740  61.7835311  18.3337138  44.3962264  62.4614329
  17.2509736  43.4131780  62.0700670  19.2094255  26.4568342  50.4517116
  18.3323722  26.3357143  50.0879362  19.6852008  25.6654420  50.1996004
  29.0767248  34.9121410  67.2215571  28.1894027  34.5747332  67.3441970
  29.6465799  34.1804441  67.4584337  10.7296395  31.2445502  60.5458623
  11.4167435  30.9307232  59.9579638  10.5744524  32.1486866  60.2725874
  15.5331118  26.1335698  64.9743646  15.4489306  25.5261368  64.2394056
  14.7113824  26.6244717  64.9753143  22.6068402  39.5722862  64.1876815
  22.5338573  40.3777834  64.6996119  22.1645795  39.7714828  63.3624836
  22.3958181  38.8094632  57.6979636  21.6125703  39.3516313  57.7917861
  23.0950927  39.3268612  58.0973877  25.7054831  24.6189262  60.3413841
  26.2023531  23.8659224  60.0214912  24.9341813  24.6553579  59.7757051
  33.5584589  30.3229627  61.9832133  33.5474465  31.2054343  61.6126066
  32.6901968  29.9701178  61.7886670  25.0667085  39.4709696  66.3434973
  25.7795057  40.1057161  66.2710875  24.5757114  39.5673562  65.5274975
  26.7884612  33.3760949  57.9152265  25.8540891  33.4962412  57.7456969
  26.9661281  32.4733416  57.6512275  22.2889800  26.7606645  60.0685526
  21.9187588  26.2077685  60.7566432  22.7848893  26.1564778  59.5160526
  30.1757164  29.2178268  58.4502299  30.6417616  30.0506260  58.3762602
  30.6264664  28.7523250  59.1547558  20.1178999  37.2204140  67.1640544
  20.8188458  37.8540623  67.3169938  19.6474114  37.5618871  66.4036183
  28.2433395  35.5622090  55.4488451  28.5193239  35.4478684  56.3582325
  27.3737893  35.1639575  55.4100624  28.1473826  21.5858855  62.4893200
  27.2336906  21.8163082  62.6575407  28.5766928  21.6697299  63.3407233
  27.9180285  29.7748747  64.9893094  27.2651735  30.0224655  64.3345547
  28.2960665  28.9612886  64.6555572  24.8787459  39.8108441  59.0921265
  25.0609853  38.9930097  59.5549017  25.7020445  40.0276133  58.6546155
  25.2129624  38.7376626  56.3536313  25.7417391  38.2269080  55.7406475
  25.4757844  38.4219156  57.2181846  23.9667858  30.5168558  71.4759131
  23.2908495  30.4162688  72.1461507  24.7895492  30.3607772  71.9395129
  15.7146717  36.7540495  64.0971647  16.3000154  36.0084183  64.2299551
  15.5171555  37.0644452  64.9808311  18.5685372  39.7891742  59.1134089
  17.8995747  40.2737870  58.6298129  18.4298242  40.0360963  60.0277468
  10.3064372  29.3246095  62.8176090  10.3448471  28.7909686  63.6113208
   9.8004664  28.7981301  62.1987067  22.7090641  41.8235486  65.7116747
  23.2608949  41.9867107  66.4765833  23.0496834  42.4139924  65.0396772
  17.6855134  24.1710636  66.3138632  17.7496460  25.0325467  65.9016030
  17.6222254  23.5584637  65.5810991  17.1607406  26.2433768  69.9611666
  17.7879445  25.8610846  70.5749191  16.3035325  26.0247970  70.3267359
  27.5601515  36.6496743  71.5665402  28.1041419  37.2626702  71.0720357
  26.9788360  37.2076322  72.0832415  13.9372949  28.0510197  55.8930021
  14.2326390  27.1420876  55.8397075  13.0360985  28.0297937  55.5711024
  25.8459028  39.7717461  62.6980430  25.7210167  38.9707201  62.1891375
  26.5038119  40.2663655  62.2094400  17.4667196  26.1266194  61.8757570
  16.7453782  26.7402162  61.7365043  18.2560452  26.6623959  61.7974216
  27.9093936  37.5726482  64.3259980  26.9624272  37.4531833  64.2538306
  28.2576709  36.6848980  64.4086241  20.2693510  23.4620620  68.1498222
  20.7927911  23.7082917  68.9124531  20.0505843  24.2940655  67.7301359
  15.6660791  25.7324295  56.0169346  15.3373497  24.8521674  55.8344452
  16.0200161  25.6771964  56.9045736  24.9140370  37.3679198  60.5264332
  24.7665332  36.4395905  60.7071902  25.7393863  37.3899288  60.0421407
  18.7802614  26.0197265  56.3844824  19.1198686  26.5483186  55.6623432
  19.2274734  26.3577671  57.1603391  28.5174491  38.1907756  61.6129205
  29.4421039  37.9850618  61.4753656  28.3489795  37.9424158  62.5218546
  21.4746055  24.4034316  65.8347892  21.1342875  23.6042129  66.2368572
  20.7685061  24.7036026  65.2624725  22.1262527  21.4883628  64.2875215
  22.9488596  21.0144106  64.1654105  22.3700590  22.2674112  64.7873901
  20.7670761  24.5171886  54.5838117  21.4879124  24.8953139  54.0801834
  20.1436065  25.2360763  54.6873095  24.9101884  25.2217035  55.5196449
  25.1265498  26.1041673  55.2185277  24.4295951  24.8303249  54.7902091
  19.6501105  28.1802749  62.0967194  19.5045686  28.4943052  62.9891475
  19.1726309  28.7987649  61.5438092  21.5097488  25.1705297  62.1448083
  21.4959057  24.2746390  61.8080381  22.2269916  25.1775960  62.7786369
  23.3623619  25.6042637  64.1901211  23.1041397  26.5259707  64.1885541
  22.8308659  25.2073071  64.8801675  28.3069808  38.7093424  56.9691296
  28.4806685  38.1439846  56.2165149  28.7998699  39.5094319  56.7870786
  14.1246767  30.7208093  65.0354855  13.5800236  31.4967901  65.1675129
  15.0026117  31.0678897  64.8773976  20.9134384  24.0519677  57.4135653
  21.0350295  23.1236323  57.6126541  20.6236426  24.0658363  56.5013969
  23.7825575  21.7374587  60.5502373  23.8047271  21.8013920  59.5954353
  24.1993634  20.8979096  60.7442879  34.1609199  31.4729847  58.5881596
  34.6040345  30.7237172  58.1900719  33.2835709  31.4639983  58.2055328
  29.2944980  38.0260188  54.0688194  29.9895885  38.6466881  54.2875509
  29.6368130  37.1755540  54.3440572  14.9112789  29.8477989  67.9285012
  14.1694525  29.9960625  68.5149642  14.5905534  30.1086255  67.0651761
  31.1936403  35.4759894  55.5975525  31.7187727  35.8147167  54.8724845
  31.1058756  34.5406909  55.4138660  22.8556452  39.3893967  67.7265402
  23.1643578  39.1443114  68.5988101  23.6531934  39.5940606  67.2384272
  22.8777064  41.5431877  59.9570778  22.4382054  41.0508256  60.6503635
  23.6285181  41.0004845  59.7162854  15.3569403  37.7343418  59.9595406
  16.1827423  37.4347190  59.5794050  15.0063455  36.9651040  60.4085195
  20.3250936  37.0869886  62.0293080  19.7030945  36.4240591  61.7295308
  20.9955803  37.1131018  61.3466728  13.5578008  35.6529744  60.9184340
  12.7209916  35.2251919  60.7368341  13.5301653  35.8462188  61.8555131
  20.3975464  25.5651674  71.6225586  20.4463619  26.4413797  71.2403356
  20.9397978  25.0229067  71.0497229  30.8830309  36.1092797  70.9026723
  30.0925853  36.0916936  70.3631223  30.6463664  36.6481091  71.6575760
  31.0028184  32.9585264  68.2159452  31.0526189  32.7935271  69.1574974
  30.8942108  32.0912523  67.8257332  19.8864443  35.6373810  55.5051541
  20.0352563  36.3209274  54.8518213  20.6930887  35.6178900  56.0200996
  28.2931947  28.9416192  69.5318758  29.1941810  28.8022657  69.2402756
  28.3679921  29.1070647  70.4716936  22.6274752  26.3183047  68.3771945
  21.7578062  26.6116613  68.1054533  22.8634232  26.9023492  69.0979208
  32.5046381  35.3782205  68.4601473  32.2131190  35.7412186  69.2964934
  31.8918512  34.6649214  68.2814805  33.7042064  32.9435085  60.9804043
  34.5388955  33.3824889  61.1441604  33.8401192  32.4673738  60.1612289
  30.7533569  30.5014820  66.9281531  31.2287691  30.6942466  66.1200383
  29.8299135  30.5574006  66.6824915  17.6417076  31.6638987  56.5112609
  17.3963118  30.7601317  56.7092820  17.8112991  31.6656138  55.5692087
  25.3313786  22.5362664  65.8937365  25.8495730  23.2723690  65.5683854
  24.9768919  22.8426657  66.7284124  16.9112724  27.3967345  54.0098771
  16.2181969  27.4711700  53.3538807  16.6664475  26.6327688  54.5320288
  25.5826380  18.9562946  61.4138262  25.8628134  18.2886135  62.0398688
  26.3676987  19.1492042  60.9012926  23.3859849  38.1321940  52.9763288
  22.8133816  38.7512127  52.5233760  23.9592642  38.6821302  53.5103210
  29.4535238  27.3780580  65.1609837  30.4052661  27.4778678  65.1822061
  29.2838689  26.5858849  65.6707921  27.4749618  24.4636163  65.3469238
  26.8799550  24.7441176  64.6515726  27.1899315  24.9530064  66.1185979
  26.6057108  38.4159090  54.1071870  27.5387782  38.3504652  54.3104746
  26.5180321  39.2515357  53.6486403  29.2345125  37.7324960  51.0675818
  29.1558757  37.3984824  51.9611576  30.0554792  38.2246728  51.0667290
  31.9323316  30.5986700  64.2752136  31.8999636  29.6602701  64.4611820
  32.5423940  30.6770737  63.5417961  23.7706647  29.4682753  50.3179341
  24.7165752  29.3388961  50.3867759  23.3920892  28.7297415  50.7948769
  32.0817805  27.3897743  64.3210420  31.5656853  26.6056200  64.1340349
  32.9657753  27.0616460  64.4856939  29.7428532  21.1338759  60.2806232
  29.5453353  20.8253847  61.1649564  30.3528237  21.8600398  60.4104162
  37.7499866  31.6602707  63.4158173  38.4803255  31.3987995  63.9765877
  37.1406812  30.9231429  63.4560241  35.8315163  29.8010569  64.0132624
  35.1048327  29.6666534  63.4049116  35.4162450  30.1087398  64.8189342
  23.6545340  33.5200499  71.7779997  24.5748349  33.6979098  71.9720044
  23.6194923  32.5756544  71.6259697  21.9549564  27.3932729  50.2534226
  21.0481020  27.0965842  50.3296939  22.2325545  27.0962547  49.3868512
  12.8727505  28.7139093  60.7033272  12.5530289  27.8604401  60.4107646
  12.3260933  28.9287671  61.4591239  16.6507412  31.4301534  64.4202779
  16.8693422  32.3618641  64.4390812  17.0633186  31.0709508  65.2057582
  23.5711630  21.9369619  56.4078467  22.7612358  21.5916704  56.7833713
  24.2596047  21.6277163  56.9966079  25.5002178  21.0147666  58.0302764
  26.0533217  21.4343119  58.6892787  25.7372265  20.0883414  58.0725720
  21.5235278  27.0034739  73.8105528  21.4232004  27.9529096  73.7417619
  21.3056820  26.6752978  72.9381598  20.7248349  24.2519664  50.3946205
  21.5867513  24.5774563  50.6542022  20.9098693  23.4651160  49.8819271
  12.7415765  32.3342004  62.6726394  12.0479236  31.9195957  62.1596348
  13.4888756  32.3762541  62.0759813  28.8780985  23.1248191  57.5381428
  28.2979654  23.7832995  57.1559480  28.6116918  22.3025535  57.1268845
  27.3284552  22.5253249  59.7402748  27.8284330  22.6369783  58.9317067
  27.9720160  22.2214301  60.3803557  21.3866548  30.4331878  72.6270589
  20.9033629  31.2332238  72.8334478  21.4727487  30.4439823  71.6738033
  14.6552507  32.2660258  60.5492409  14.6323195  32.3647945  59.5974292
  14.9653144  33.1125409  60.8709575  17.3139885  34.3236413  64.6639023
  18.2683139  34.2920355  64.5968955  17.1152409  33.8627037  65.4789249
  17.9039267  32.8937529  67.2309821  18.7232156  33.3881608  67.2544658
  18.1776075  31.9769497  67.2027388  27.6605863  25.2848281  56.5937776
  26.7731718  25.5697932  56.3757971  28.0759852  25.1242045  55.7465053
  31.0120400  25.3094802  60.3092115  31.7880790  25.7991255  60.5816732
  30.2868534  25.7352856  60.7663985  33.4492958  26.0222421  61.3666056
  34.0437449  25.7818157  60.6559364  33.5219542  25.3029552  61.9939592
  15.6690114  39.8656032  61.6809221  15.5344582  39.1056433  61.1147219
  15.2522176  40.5896932  61.2138010  26.8049077  35.0492956  50.6885796
  27.5084927  35.2542958  51.3043452  26.0811726  35.6169718  50.9534880
  27.6346887  30.8002817  56.8088066  27.5782089  31.2571369  55.9695699
  28.1875230  30.0393502  56.6310909  31.4451693  26.5892549  57.6338186
  31.1888627  26.1889185  58.4646394  30.8204561  27.3036343  57.5088325
  35.7564031  29.3288622  60.1409477  35.1963589  29.3981812  60.9141039
  35.1507534  29.1529607  59.4208973  18.8259240  40.7625349  61.8927664
  18.7091624  41.7070782  61.7906354  18.0051686  40.4598911  62.2813463
  28.7135774  35.4875485  52.7384256  29.5481378  35.0556684  52.5561731
  28.5520117  35.3157499  53.6661151  28.3681666  31.9907598  54.1040596
  28.3130470  31.8251870  53.1629040  27.7427722  32.6983631  54.2602785
  13.1574181  27.2275663  67.9302018  13.8033045  26.7174617  68.4189243
  12.9491333  27.9644344  68.5045443  25.6827574  34.2956510  73.4294158
  26.5518733  34.4697163  73.0680793  25.2034325  35.1150927  73.3069888
  21.6777792  21.4915707  53.6825914  21.6656462  22.4357547  53.8394185
  22.5701214  21.3085853  53.3885375  19.8513754  41.4153611  65.1083592
  20.7541001  41.4477222  65.4250087  19.6251124  40.4854062  65.1229928
  21.6067356  40.1684598  61.7693671  20.6562987  40.1686459  61.6558043
  21.9099842  39.4217332  61.2529705  25.4929911  18.0858484  57.9371851
  24.7262307  17.5316971  58.0828533  25.9040616  18.1580353  58.7986002
  17.4971672  24.3743280  72.0277032  18.3603134  24.0180085  72.2380357
  16.9237083  24.0357175  72.7152436  37.3420049  46.0045136  62.8339433
  37.9798459  45.8851884  62.1302773  37.2240892  46.9525980  62.8927385
  34.1509756  45.9572564  62.7700958  33.8128267  45.8413629  61.8821493
  35.0199524  45.5563729  62.7501964  30.0096571  47.8108041  58.7597849
  29.4461436  47.7197978  57.9914136  29.8948966  46.9907945  59.2400341
  34.6329539  47.1107416  68.7287163  34.6218179  46.7160214  67.8567667
  34.7950178  46.3773489  69.3220935  27.5561003  49.3059232  61.5982069
  28.3482295  48.9650057  61.1828368  27.7957653  49.4154207  62.5184222
  35.5896130  51.4779008  54.0712314  34.9384110  52.0633089  53.6846327
  36.3840493  52.0085203  54.1307351  29.5151757  48.5668146  54.4699448
  30.2882633  48.0197133  54.3312324  29.8677156  49.4312395  54.6813909
  31.3536800  49.8944528  67.6766347  31.0626666  50.7990159  67.5613013
  31.9893784  49.9361055  68.3910417  32.2793007  47.2721376  64.2667707
  32.8756579  47.0477399  63.5524670  32.3367978  46.5306122  64.8693155
  31.8518035  44.7260812  52.1017898  32.1043556  44.2042333  51.3401361
  30.9142594  44.5626957  52.2044581  36.8961318  43.7296590  59.9092641
  37.6824407  43.3116013  59.5583058  37.1600022  44.6342682  60.0774289
  37.0671395  49.1669440  54.6081298  36.4317228  49.2404067  55.3202202
  36.7368802  49.7563039  53.9300377  42.2969745  43.6671823  60.8125620
  43.0294917  43.0971040  61.0463449  41.5409101  43.2793424  61.2532125
  31.5714324  46.6288918  54.3042273  31.4550582  45.9533821  54.9723357
  31.6816584  46.1421292  53.4874426  33.9145865  46.0899065  58.0088962
  33.5504072  45.5629686  58.7201883  34.7712981  45.6997534  57.8355447
  39.8195165  37.3793397  65.2720228  39.4878490  38.2488808  65.0481443
  39.2240779  37.0629681  65.9514259  33.5551352  41.1188964  53.0050311
  33.7225754  41.9869201  53.3720782  33.3648521  41.2816246  52.0811600
  36.3126685  49.5805943  64.6716141  36.0127408  50.4830982  64.5631948
  35.9677744  49.3138127  65.5237294  29.7639166  46.0319740  60.7052845
  28.8389663  45.8995954  60.9130537  30.0123580  46.8113959  61.2022788
  39.7123829  42.0988484  62.3513578  38.8040706  42.0303892  62.0572339
  39.6611424  42.5760428  63.1795404  33.5340573  43.5746622  53.9896977
  33.4140198  44.0203673  54.8282458  32.8393161  43.9231940  53.4310515
  27.1247977  45.6753014  61.5396634  27.2540359  45.9287493  62.4536046
  26.4445429  46.2680722  61.2201289  31.2947465  56.3450264  57.6387109
  31.2171494  57.2958089  57.7175589  30.6909108  55.9996136  58.2962035
  33.7864694  43.5178129  70.2948475  33.0098028  44.0772049  70.2851340
  34.4255257  44.0034912  70.8163346  41.5785475  40.3004922  64.1291452
  40.9359855  40.5937455  63.4831247  41.0740404  40.1857842  64.9344649
  39.2325639  44.0468095  54.8177311  40.1443495  44.2795482  54.6425009
  38.7235286  44.6305139  54.2552390  32.0411067  46.3263582  69.8566442
  32.7825751  46.8648626  69.5801266  31.3348052  46.9529871  70.0137994
  37.5166406  48.4692723  68.4538604  37.9249762  48.0275133  67.7093236
  36.7943668  47.8945350  68.7072797  33.8697476  43.4065330  65.8272161
  34.7158672  43.8304743  65.9706810  33.8096114  42.7498954  66.5210724
  37.8395221  49.0293914  62.2090893  37.2104083  49.1939628  61.5066961
  37.4520883  49.4435523  62.9801857  41.7184453  49.9648351  59.5635257
  41.0335491  50.3447253  59.0132290  41.8028302  50.5743678  60.2967204
  38.9735385  47.6108310  66.1630600  39.1852280  48.2540070  65.4864981
  38.9265133  46.7770627  65.6952530  36.5761613  40.2226131  63.0667172
  35.7146092  40.5207385  63.3583910  36.6024048  40.4396530  62.1348205
  33.3923183  48.7668322  59.4740978  33.8561528  49.0456025  58.6845600
  33.1279981  47.8651766  59.2914069  30.2847264  48.3139803  62.4120741
  30.8548621  48.7427072  61.7738226  30.8755376  48.0322388  63.1104927
  32.3292069  44.8891474  56.2830543  33.0316112  45.3412518  56.7504469
  31.9972697  44.2475293  56.9110436  30.7772430  43.4803231  70.6581752
  30.1471091  44.1619512  70.8917149  30.6708518  43.3686312  69.7134891
  26.0717403  43.1475027  61.5847677  25.2816457  43.4032555  61.1087787
  26.5628650  43.9623365  61.6899717  40.0881212  50.4880266  64.3352957
  40.9098656  50.0860453  64.0535639  40.0843615  50.3848500  65.2869073
  28.0232148  43.5119606  58.5431153  27.2263312  43.6238300  59.0614649
  27.7957740  43.8506258  57.6772044  33.8537816  50.0364309  66.4913668
  33.9182248  50.4984716  67.3271840  33.1448740  49.4061674  66.6195978
  24.3555106  43.4005517  64.0162667  24.6063144  44.2852527  64.2820243
  24.8914654  43.2210119  63.2437759  33.5685834  51.7032417  56.3592648
  33.4331508  52.5483952  56.7877496  34.1095646  51.9051694  55.5958582
  30.0553173  37.7823996  73.0207004  29.6620119  37.2290195  73.6954648
  30.8719314  38.0934575  73.4113521  27.0215231  49.2207855  56.9320573
  27.5339752  50.0151105  57.0826138  27.6737944  48.5234145  56.8654175
  28.8310116  52.3373611  59.0143327  29.0076744  53.2591576  58.8264310
  29.6266949  52.0232030  59.4437706  32.9721134  39.1981876  70.6127260
  33.7130848  39.7989029  70.5331723  33.2039057  38.4559513  70.0545303
  28.1162472  44.3838243  68.8905490  28.0015987  43.4823500  69.1912589
  27.2606990  44.6301940  68.5390306  35.1954310  52.3255983  70.4892990
  34.7518164  51.5392362  70.1713895  35.8571524  52.5135134  69.8236881
  29.9541431  53.8551785  65.0153669  30.5048856  53.7268848  64.2430663
  29.1152907  54.1546674  64.6648562  37.2935548  52.6058783  68.5174392
  37.2754023  53.4267664  68.0254661  38.2155468  52.4812858  68.7424533
  33.7508602  50.1202913  69.3597900  34.2836939  49.3591201  69.1297208
  33.2222683  49.8276564  70.1022054  36.9178297  35.2262979  64.8891542
  36.5742567  36.1164620  64.8130652  37.2857260  35.0364636  64.0261127
  24.9864148  47.5496509  57.7080144  25.8239370  47.9593517  57.4913852
  25.1642415  46.6095951  57.6780338  36.8828580  45.2171590  53.3963977
  36.3675203  45.9876194  53.6352364  36.6105888  44.5436726  54.0197038
  34.4675691  40.0621290  58.4549215  33.6117287  39.6728141  58.2754854
  34.8802643  40.1413251  57.5949001  35.9974838  37.5967634  62.8540775
  35.4939633  37.5597769  62.0408580  36.2905444  38.5060376  62.9137432
  32.2417723  37.6806363  61.8606957  33.1070720  37.4849172  61.5012846
  32.3095232  37.4516715  62.7876313  41.8562854  47.9703944  55.3317150
  41.0792297  47.6315104  54.8872312  42.5354335  47.9756567  54.6572115
  36.6714883  43.0898682  55.2223758  36.3665019  43.4044831  56.0733901
  37.6245325  43.1680102  55.2651091  35.1161315  49.2488905  56.8716712
  34.5882676  48.5141665  56.5589949  34.6148818  50.0263581  56.6256680
  40.0954161  47.4437926  61.9883758  39.4377835  48.1337187  62.0763887
  40.8994560  47.8334357  62.3317745  29.8480042  39.9108571  59.2323324
  30.4223794  39.6883753  58.4996516  30.4351025  39.9797266  59.9851925
  38.9059620  45.7982298  60.0387700  39.4191501  46.4312290  60.5409410
  39.5560844  45.1983494  59.6731060  30.1749630  41.9413032  53.2519209
  29.3386942  42.2787719  53.5728484  30.0354399  41.8062012  52.3146346
  32.1502710  36.7849820  57.9598393  31.4967123  36.4698837  57.3355008
  32.1083184  36.1625561  58.6858216  33.2613915  47.0669115  49.8751685
  32.3540977  46.8358369  50.0742834  33.7584947  46.2706735  50.0625667
  36.1681994  55.7766622  52.7948371  35.4943693  56.0798319  53.4033329
  36.5547816  56.5795703  52.4453828  35.3840451  43.2731754  62.2846041
  34.4663012  43.4946701  62.1267729  35.8000594  43.3478064  61.4257748
  36.1675498  44.6723169  57.4148721  36.9147317  45.1844567  57.1055843
  36.4367088  44.3507222  58.2753114  34.4402148  47.1681710  54.3975675
  33.5313368  46.8840743  54.4948145  34.4697232  47.5880789  53.5378982
  39.6721416  50.7788300  58.1666843  39.2183743  49.9379210  58.2232033
  39.0415383  51.4149698  58.5041623  38.6154335  41.7080286  59.3967510
  37.8777092  41.1957672  59.7277753  38.8681109  41.2680667  58.5850787
  38.1154355  52.6164796  59.1016661  38.4077330  53.1769853  58.3829026
  38.6252976  52.9093357  59.8569820  38.7165963  34.4856538  59.9909279
  39.0224840  33.6253901  59.7035195  39.4418568  35.0774158  59.7908273
  25.0090319  44.8887224  58.3790877  24.8114719  44.2956585  57.6541944
  24.4536983  44.5839434  59.0966816  32.9887043  44.7810331  60.4985471
  33.0435652  43.8284167  60.4227947  32.1778245  44.9369770  60.9826769
  34.1378236  48.7090454  51.7363754  33.6997666  47.9926313  51.2769391
  34.8788677  48.9366569  51.1748845  30.9279402  43.3987391  58.2575849
  30.1147268  43.6981561  58.6641042  31.4238397  43.0043079  58.9750332
  33.0787980  53.3945147  60.1910114  33.0364159  53.6205994  59.2618646
  33.9950679  53.1608522  60.3395915  36.5253614  43.8629215  67.0890743
  36.8803002  44.0900688  67.9485209  37.1725745  44.1947592  66.4667999
  42.2551351  46.9847651  57.7940072  42.1169250  47.1749247  56.8661262
  41.8987570  47.7467034  58.2508123  30.4193477  40.9705746  63.8737084
  31.0592857  40.8294505  63.1760048  29.5871008  40.6840259  63.4975686
  31.1953781  50.2708176  59.9872077  31.9894380  49.7758497  59.7854652
  30.4845473  49.7426040  59.6239782  36.0148626  52.6526272  64.3384444
  36.0685648  53.2217208  65.1062160  35.1463407  52.8228157  63.9738482
  27.5036545  44.4151258  56.0631829  26.5734133  44.3535714  56.2801792
  27.5994017  43.8927211  55.2668471  27.4222094  40.9406071  58.6510071
  27.6828911  41.8551404  58.5419232  28.2439266  40.4730514  58.8006684
  28.8947019  42.3543828  65.8208896  29.5670072  42.1461190  65.1721545
  28.0676805  42.1565914  65.3814128  34.7972591  38.9805769  67.8374557
  34.1500506  39.6795719  67.7439033  35.5673606  39.4141913  68.2050805
  34.9736725  46.8186534  65.8971376  35.9028785  46.9697694  65.7240344
  34.5527755  46.9070555  65.0420023  33.7725057  50.8437198  63.6669914
  33.6336143  50.4755983  64.5395852  32.9839653  51.3584838  63.4953872
  34.3673209  55.9446295  55.0095450  34.5424965  55.4734338  55.8241073
  33.6805997  56.5712061  55.2376711  35.3230272  50.2218801  61.0558752
  34.9880105  50.1819571  61.9516402  34.8234218  49.5563517  60.5829162
  29.2974516  45.6286431  66.5811333  29.1594314  44.8966670  67.1822872
  30.2079440  45.5395331  66.2995521  38.2589464  47.5674835  51.3295811
  37.6418635  46.8421664  51.2328864  37.7905952  48.3284196  50.9862886
  31.9256817  45.3406391  66.0695012  32.6356435  44.6999583  66.0281631
  31.8826125  45.5919285  66.9921193  30.6385751  42.3271608  67.8890652
  30.1023108  41.8762347  68.5412248  30.0502459  42.4617517  67.1461116
  28.9334294  59.0935658  61.7835311  29.1730893  59.7254182  62.4614329
  28.0903491  58.7423698  62.0700670  30.0488010  41.7860260  50.4517116
  29.1717476  41.6649061  50.0879362  30.5245763  40.9946338  50.1996004
  39.9161003  50.2413328  67.2215571  39.0287782  49.9039250  67.3441970
  40.4859554  49.5096359  67.4584337  21.5690150  46.5737420  60.5458623
  22.2561190  46.2599150  59.9579638  21.4138279  47.4778784  60.2725874
  26.3724872  41.4627616  64.9743646  26.2883061  40.8553286  64.2394056
  25.5507578  41.9536634  64.9753143  33.4462156  54.9014780  64.1876815
  33.3732328  55.7069752  64.6996119  33.0039549  55.1006746  63.3624836
  33.2351936  54.1386550  57.6979636  32.4519458  54.6808230  57.7917861
  33.9344681  54.6560530  58.0973877  36.5448586  39.9481180  60.3413841
  37.0417285  39.1951142  60.0214912  35.7735567  39.9845496  59.7757051
  35.9060840  54.8001614  66.3434973  36.6188812  55.4349079  66.2710875
  35.4150868  54.8965480  65.5274975  37.6278367  48.7052867  57.9152265
  36.6934645  48.8254329  57.7456969  37.8055035  47.8025334  57.6512275
  33.1283555  42.0898563  60.0685526  32.7581342  41.5369603  60.7566432
  33.6242647  41.4856696  59.5160526  41.0150918  44.5470186  58.4502299
  41.4811370  45.3798178  58.3762602  41.4658418  44.0815168  59.1547558
  30.9572753  52.5496058  67.1640544  31.6582213  53.1832541  67.3169938
  30.4867868  52.8910789  66.4036183  39.0827149  50.8914007  55.4488451
  39.3586993  50.7770602  56.3582325  38.2131648  50.4931492  55.4100624
  38.9867581  36.9150773  62.4893200  38.0730661  37.1455000  62.6575407
  39.4160682  36.9989217  63.3407233  38.7574039  45.1040665  64.9893094
  38.1045489  45.3516573  64.3345547  39.1354419  44.2904803  64.6555572
  35.7181213  55.1400358  59.0921265  35.9003608  54.3222014  59.5549017
  36.5414199  55.3568051  58.6546155  36.0523379  54.0668543  56.3536313
  36.5811145  53.5560998  55.7406475  36.3151598  53.7511074  57.2181846
  34.8061612  45.8460476  71.4759131  34.1302249  45.7454605  72.1461507
  35.6289246  45.6899690  71.9395129  26.5540471  52.0832413  64.0971647
  27.1393908  51.3376101  64.2299551  26.3565310  52.3936369  64.9808311
  29.4079127  55.1183660  59.1134089  28.7389502  55.6029788  58.6298129
  29.2691996  55.3652881  60.0277468  21.1458126  44.6538013  62.8176090
  21.1842226  44.1201604  63.6113208  20.6398419  44.1273218  62.1987067
  33.5484395  57.1527404  65.7116747  34.1002703  57.3159025  66.4765833
  33.8890589  57.7431841  65.0396772  28.5248888  39.5002553  66.3138632
  28.5890215  40.3617384  65.9016030  28.4616009  38.8876555  65.5810991
  28.0001161  41.5725686  69.9611666  28.6273200  41.1902763  70.5749191
  27.1429080  41.3539888  70.3267359  24.7766704  43.3802115  55.8930021
  25.0720145  42.4712793  55.8397075  23.8754739  43.3589854  55.5711024
  36.6852782  55.1009379  62.6980430  36.5603922  54.2999119  62.1891375
  37.3431874  55.5955572  62.2094400  28.3060951  41.4558112  61.8757570
  27.5847536  42.0694079  61.7365043  29.0954206  41.9915876  61.7974216
  31.1087264  38.7912538  68.1498222  31.6321666  39.0374835  68.9124531
  30.8899597  39.6232573  67.7301359  26.5054545  41.0616213  56.0169346
  26.1767251  40.1813592  55.8344452  26.8593916  41.0063881  56.9045736
  35.7534124  52.6971115  60.5264332  35.6059087  51.7687823  60.7071902
  36.5787618  52.7191206  60.0421407  29.6196368  41.3489182  56.3844824
  29.9592441  41.8775104  55.6623432  30.0668489  41.6869589  57.1603391
  39.3568246  53.5199674  61.6129205  40.2814793  53.3142535  61.4753656
  39.1883549  53.2716075  62.5218546  32.3139809  39.7326233  65.8347892
  31.9736630  38.9334046  66.2368572  31.6078815  40.0327944  65.2624725
  32.9656281  36.8175546  64.2875215  33.7882350  36.3436024  64.1654105
  33.2094345  37.5966029  64.7873901  31.6064516  39.8463804  54.5838117
  32.3272878  40.2245057  54.0801834  30.9829820  40.5652681  54.6873095
  35.7495638  40.5508953  55.5196449  35.9659253  41.4333591  55.2185277
  35.2689706  40.1595166  54.7902091  30.4894860  43.5094666  62.0967194
  30.3439441  43.8234969  62.9891475  30.0120063  44.1279567  61.5438092
  32.3491243  40.4997214  62.1448083  32.3352811  39.6038308  61.8080381
  33.0663671  40.5067878  62.7786369  34.2017373  40.9334554  64.1901211
  33.9435151  41.8551625  64.1885541  33.6702414  40.5364989  64.8801675
  39.1463562  54.0385342  56.9691296  39.3200440  53.4731764  56.2165149
  39.6392453  54.8386236  56.7870786  24.9640522  46.0500011  65.0354855
  24.4193990  46.8259819  65.1675129  25.8419872  46.3970815  64.8773976
  31.7528139  39.3811595  57.4135653  31.8744050  38.4528241  57.6126541
  31.4630181  39.3950281  56.5013969  34.6219329  37.0666505  60.5502373
  34.6441026  37.1305838  59.5954353  35.0387388  36.2271014  60.7442879
  45.0002953  46.8021765  58.5881596  45.4434099  46.0529090  58.1900719
  44.1229464  46.7931901  58.2055328  40.1338735  53.3552106  54.0688194
  40.8289639  53.9758799  54.2875509  40.4761885  52.5047457  54.3440572
  25.7506544  45.1769907  67.9285012  25.0088280  45.3252542  68.5149642
  25.4299288  45.4378173  67.0651761  42.0330158  50.8051812  55.5975525
  42.5581482  51.1439084  54.8724845  41.9452510  49.8698827  55.4138660
  33.6950206  54.7185885  67.7265402  34.0037333  54.4735032  68.5988101
  34.4925688  54.9232524  67.2384272  33.7170819  56.8723795  59.9570778
  33.2775809  56.3800174  60.6503635  34.4678935  56.3296762  59.7162854
  26.1963157  53.0635336  59.9595406  27.0221177  52.7639108  59.5794050
  25.8457209  52.2942958  60.4085195  31.1644691  52.4161804  62.0293080
  30.5424700  51.7532509  61.7295308  31.8349558  52.4422936  61.3466728
  24.3971763  50.9821662  60.9184340  23.5603671  50.5543836  60.7368341
  24.3695408  51.1754105  61.8555131  31.2369218  40.8943592  71.6225586
  31.2857374  41.7705715  71.2403356  31.7791732  40.3520985  71.0497229
  30.7258198  50.9665727  55.5051541  30.8746318  51.6501192  54.8518213
  31.5324641  50.9470817  56.0200996  33.4668507  41.6474964  68.3771945
  32.5971816  41.9408530  68.1054533  33.7027987  42.2315409  69.0979208
  28.4810831  46.9930905  56.5112609  28.2356872  46.0893235  56.7092820
  28.6506745  46.9948055  55.5692087  36.1707540  37.8654581  65.8937365
  36.6889484  38.6015608  65.5683854  35.8162673  38.1718575  66.7284124
  27.7506478  42.7259262  54.0098771  27.0575723  42.8003617  53.3538807
  27.5058230  41.9619606  54.5320288  36.4220135  34.2854864  61.4138262
  36.7021888  33.6178053  62.0398688  37.2070742  34.4783959  60.9012926
  34.2253603  53.4613858  52.9763288  33.6527570  54.0804045  52.5233760
  34.7986397  54.0113219  53.5103210  40.2928993  42.7072498  65.1609837
  41.2446416  42.8070595  65.1822061  40.1232443  41.9150766  65.6707921
  38.3143372  39.7928081  65.3469238  37.7193305  40.0733094  64.6515726
  38.0293069  40.2821982  66.1185979  37.4450863  53.7451008  54.1071870
  38.3781536  53.6796569  54.3104746  37.3574076  54.5807275  53.6486403
  40.0738880  53.0616878  51.0675818  39.9952511  52.7276742  51.9611576
  40.8948546  53.5538646  51.0667290  34.6100402  44.7974670  50.3179341
  35.5559506  44.6680879  50.3867759  34.2314647  44.0589332  50.7948769
  40.5822286  36.4630676  60.2806232  40.3847107  36.1545765  61.1649564
  41.1921992  37.1892315  60.4104162  34.4939094  48.8492417  71.7779997
  35.4142104  49.0271016  71.9720044  34.4588677  47.9048462  71.6259697
  32.7943319  42.7224647  50.2534226  31.8874774  42.4257760  50.3296939
  33.0719300  42.4254465  49.3868512  23.7121259  44.0431010  60.7033272
  23.3924043  43.1896318  60.4107646  23.1654687  44.2579588  61.4591239
  27.4901167  46.7593451  64.4202779  27.7087176  47.6910559  64.4390812
  27.9026940  46.4001426  65.2057582  34.4105384  37.2661537  56.4078467
  33.6006113  36.9208622  56.7833713  35.0989801  36.9569080  56.9966079
  36.3395933  36.3439583  58.0302764  36.8926971  36.7635037  58.6892787
  36.5766019  35.4175331  58.0725720  32.3629032  42.3326657  73.8105528
  32.2625759  43.2821014  73.7417619  32.1450574  42.0044896  72.9381598
  31.5642103  39.5811582  50.3946205  32.4261267  39.9066480  50.6542022
  31.7492448  38.7943078  49.8819271  23.5809519  47.6633922  62.6726394
  22.8872991  47.2487875  62.1596348  24.3282510  47.7054458  62.0759813
  39.7174740  38.4540108  57.5381428  39.1373409  39.1124913  57.1559480
  39.4510673  37.6317453  57.1268845  38.1678306  37.8545166  59.7402748
  38.6678085  37.9661701  58.9317067  38.8113914  37.5506219  60.3803557
  32.2260302  45.7623796  72.6270589  31.7427384  46.5624156  72.8334478
  32.3121241  45.7731741  71.6738033  25.4946262  47.5952176  60.5492409
  25.4716950  47.6939863  59.5974292  25.8046898  48.4417326  60.8709575
  28.1533640  49.6528331  64.6639023  29.1076893  49.6212273  64.5968955
  27.9546163  49.1918954  65.4789249  28.7433022  48.2229447  67.2309821
  29.5625911  48.7173525  67.2544658  29.0169829  47.3061415  67.2027388
  38.4999618  40.6140199  56.5937776  37.6125473  40.8989850  56.3757971
  38.9153607  40.4533962  55.7465053  41.8514154  40.6386720  60.3092115
  42.6274544  41.1283172  60.5816732  41.1262288  41.0644774  60.7663985
  44.2886713  41.3514339  61.3666056  44.8831203  41.1110075  60.6559364
  44.3613296  40.6321470  61.9939592  26.5083868  55.1947950  61.6809221
  26.3738336  54.4348351  61.1147219  26.0915931  55.9188850  61.2138010
  37.6442831  50.3784874  50.6885796  38.3478681  50.5834876  51.3043452
  36.9205480  50.9461635  50.9534880  38.4740642  46.1294735  56.8088066
  38.4175843  46.5863286  55.9695699  39.0268984  45.3685419  56.6310909
  42.2845448  41.9184467  57.6338186  42.0282382  41.5181102  58.4646394
  41.6598316  42.6328261  57.5088325  46.5957785  44.6580540  60.1409477
  46.0357343  44.7273729  60.9141039  45.9901289  44.4821525  59.4208973
  29.6652994  56.0917267  61.8927664  29.5485378  57.0362700  61.7906354
  28.8445440  55.7890829  62.2813463  39.5529529  50.8167403  52.7384256
  40.3875133  50.3848601  52.5561731  39.3913872  50.6449416  53.6661151
  39.2075421  47.3199516  54.1040596  39.1524225  47.1543787  53.1629040
  38.5821476  48.0275549  54.2602785  23.9967936  42.5567580  67.9302018
  24.6426800  42.0466534  68.4189243  23.7885087  43.2936262  68.5045443
  32.5171546  36.8207625  53.6825914  32.5050216  37.7649465  53.8394185
  33.4094968  36.6377770  53.3885375  30.6907508  56.7445529  65.1083592
  31.5934755  56.7769139  65.4250087  30.4644878  55.8145980  65.1229928
  32.4461110  55.4976515  61.7693671  31.4956741  55.4978377  61.6558043
  32.7493596  54.7509250  61.2529705  36.3323666  33.4150402  57.9371851
  35.5656062  32.8608888  58.0828533  36.7434371  33.4872270  58.7986002
  28.3365427  39.7035198  72.0277032  29.1996888  39.3472002  72.2380357
  27.7630838  39.3649092  72.7152436  40.8490326  63.1399958  58.7597849
  40.2855191  63.0489895  57.9914136  40.7342721  62.3199863  59.2400341
  38.3954758  64.6351150  61.5982069  39.1876050  64.2941975  61.1828368
  38.6351408  64.7446125  62.5184222  46.4289885  66.8070926  54.0712314
  45.7777864  67.3925006  53.6846327  47.2234247  67.3377121  54.1307351
  40.3545512  63.8960063  54.4699448  41.1276388  63.3489050  54.3312324
  40.7070911  64.7604313  54.6813909  42.6911790  60.0552729  52.1017898
  42.9437310  59.5334251  51.3401361  41.7536349  59.8918875  52.2044581
  47.9065150  64.4961358  54.6081298  47.2710983  64.5695985  55.3202202
  47.5762556  65.0854957  53.9300377  42.4108078  61.9580835  54.3042273
  42.2944336  61.2825739  54.9723357  42.5210338  61.4713209  53.4874426
  44.3945106  56.4480882  53.0050311  44.5619508  57.3161119  53.3720782
  44.2042275  56.6108164  52.0811600  44.3734327  58.9038540  53.9896977
  44.2533952  59.3495590  54.8282458  43.6786915  59.2523857  53.4310515
  42.1341219  71.6742181  57.6387109  42.0565249  72.6250006  57.7175589
  41.5302863  71.3288054  58.2962035  50.0719393  59.3760013  54.8177311
  50.9837249  59.6087400  54.6425009  49.5629040  59.9597057  54.2552390
  43.1685823  60.2183392  56.2830543  43.8709867  60.6704435  56.7504469
  42.8366452  59.5767211  56.9110436  36.9111157  58.4766944  61.5847677
  36.1210211  58.7324473  61.1087787  37.4022405  59.2915282  61.6899717
  38.8625903  58.8411524  58.5431153  38.0657066  58.9530218  59.0614649
  38.6351495  59.1798176  57.6772044  35.1948860  58.7297435  64.0162667
  35.4456899  59.6144445  64.2820243  35.7308409  58.5502036  63.2437759
  44.4079588  67.0324334  56.3592648  44.2725263  67.8775870  56.7877496
  44.9489401  67.2343612  55.5958582  37.8608985  64.5499772  56.9320573
  38.3733506  65.3443023  57.0826138  38.5131698  63.8526063  56.8654175
  39.6703870  67.6665529  59.0143327  39.8470498  68.5883493  58.8264310
  40.4660704  67.3523948  59.4437706  35.8257902  62.8788427  57.7080144
  36.6633124  63.2885435  57.4913852  36.0036170  61.9387869  57.6780338
  47.7222334  60.5463507  53.3963977  47.2068958  61.3168112  53.6352364
  47.4499643  59.8728643  54.0197038  45.3069445  55.3913208  58.4549215
  44.4511042  55.0020058  58.2754854  45.7196397  55.4705169  57.5949001
  52.6956608  63.2995862  55.3317150  51.9186051  62.9607021  54.8872312
  53.3748089  63.3048485  54.6572115  47.5108637  58.4190599  55.2223758
  47.2058773  58.7336749  56.0733901  48.4639080  58.4972019  55.2651091
  45.9555069  64.5780823  56.8716712  45.4276431  63.8433582  56.5589949
  45.4542572  65.3555499  56.6256680  40.6873797  55.2400489  59.2323324
  41.2617549  55.0175670  58.4996516  41.2744779  55.3089184  59.9851925
  41.0143384  57.2704950  53.2519209  40.1780696  57.6079637  53.5728484
  40.8748154  57.1353930  52.3146346  42.9896465  52.1141738  57.9598393
  42.3360877  51.7990755  57.3355008  42.9476939  51.4917478  58.6858216
  44.1007670  62.3961033  49.8751685  43.1934731  62.1650286  50.0742834
  44.5978702  61.5998652  50.0625667  47.0075748  71.1058540  52.7948371
  46.3337447  71.4090237  53.4033329  47.3941570  71.9087621  52.4453828
  45.2795903  62.4973628  54.3975675  44.3707122  62.2132661  54.4948145
  45.3090987  62.9172706  53.5378982  50.5115170  66.1080217  58.1666843
  50.0577497  65.2671127  58.2232033  49.8809137  66.7441616  58.5041623
  49.4548090  57.0372203  59.3967510  48.7170847  56.5249590  59.7277753
  49.7074863  56.5972585  58.5850787  35.8484073  60.2179142  58.3790877
  35.6508473  59.6248503  57.6541944  35.2930737  59.9131352  59.0966816
  44.9771991  64.0382372  51.7363754  44.5391421  63.3218230  51.2769391
  45.7182432  64.2658486  51.1748845  41.7673157  58.7279308  58.2575849
  40.9541022  59.0273479  58.6641042  42.2632151  58.3334997  58.9750332
  53.0945106  62.3139569  57.7940072  52.9563004  62.5041165  56.8661262
  52.7381324  63.0758951  58.2508123  42.0347536  65.6000094  59.9872077
  42.8288134  65.1050414  59.7854652  41.3239228  65.0717957  59.6239782
  38.3430299  59.7443176  56.0631829  37.4127887  59.6827631  56.2801792
  38.4387771  59.2219129  55.2668471  38.2615848  56.2697989  58.6510071
  38.5222665  57.1843322  58.5419232  39.0833020  55.8022431  58.8006684
  45.2066964  71.2738213  55.0095450  45.3818719  70.8026256  55.8241073
  44.5199752  71.9003979  55.2376711  49.0983218  62.8966753  51.3295811
  48.4812389  62.1713581  51.2328864  48.6299707  63.6576113  50.9862886
  40.8881764  57.1152177  50.4517116  40.0111231  56.9940978  50.0879362
  41.3639517  56.3238256  50.1996004  32.4083904  61.9029337  60.5458623
  33.0954944  61.5891067  59.9579638  32.2532033  62.8070702  60.2725874
  44.0745690  69.4678468  57.6979636  43.2913212  70.0100148  57.7917861
  44.7738436  69.9852447  58.0973877  51.8544672  59.8762104  58.4502299
  52.3205125  60.7090095  58.3762602  52.3052173  59.4107085  59.1547558
  49.9220904  66.2205925  55.4488451  50.1980747  66.1062520  56.3582325
  49.0525402  65.8223410  55.4100624  46.5574968  70.4692276  59.0921265
  46.7397362  69.6513932  59.5549017  47.3807954  70.6859968  58.6546155
  46.8917133  69.3960461  56.3536313  47.4204900  68.8852916  55.7406475
  47.1545353  69.0802991  57.2181846  37.3934226  67.4124330  64.0971647
  37.9787663  66.6668018  64.2299551  37.1959064  67.7228287  64.9808311
  40.2472881  70.4475578  59.1134089  39.5783256  70.9321705  58.6298129
  40.1085751  70.6944798  60.0277468  31.9851881  59.9829931  62.8176090
  32.0235980  59.4493521  63.6113208  31.4792173  59.4565136  62.1987067
  35.6160458  58.7094033  55.8930021  35.9113899  57.8004711  55.8397075
  34.7148494  58.6881772  55.5711024  37.3448300  56.3908130  56.0169346
  37.0161006  55.5105509  55.8344452  37.6987670  56.3355799  56.9045736
  40.4590123  56.6781100  56.3844824  40.7986195  57.2067021  55.6623432
  40.9062243  57.0161506  57.1603391  42.4458270  55.1755722  54.5838117
  43.1666633  55.5536975  54.0801834  41.8223574  55.8944599  54.6873095
  46.5889393  55.8800871  55.5196449  46.8053007  56.7625509  55.2185277
  46.1083460  55.4887084  54.7902091  49.9857317  69.3677259  56.9691296
  50.1594194  68.8023682  56.2165149  50.4786208  70.1678154  56.7870786
  35.8034276  61.3791928  65.0354855  35.2587745  62.1551736  65.1675129
  36.6813626  61.7262733  64.8773976  42.5921893  54.7103512  57.4135653
  42.7137804  53.7820158  57.6126541  42.3023935  54.7242198  56.5013969
  55.8396708  62.1313682  58.5881596  56.2827854  61.3821007  58.1900719
  54.9623218  62.1223819  58.2055328  50.9732489  68.6844024  54.0688194
  51.6683394  69.3050716  54.2875509  51.3155639  67.8339375  54.3440572
  52.8723912  66.1343729  55.5975525  53.3975236  66.4731002  54.8724845
  52.7846265  65.1990745  55.4138660  44.5564573  72.2015712  59.9570778
  44.1169563  71.7092091  60.6503635  45.3072690  71.6588680  59.7162854
  37.0356912  68.3927253  59.9595406  37.8614932  68.0931025  59.5794050
  36.6850964  67.6234876  60.4085195  41.5651952  66.2957645  55.5051541
  41.7140072  66.9793109  54.8518213  42.3718396  66.2762735  56.0200996
  39.3204585  62.3222823  56.5112609  39.0750627  61.4185153  56.7092820
  39.4900500  62.3239973  55.5692087  38.5900233  58.0551180  54.0098771
  37.8969478  58.1295535  53.3538807  38.3451984  57.2911524  54.5320288
  45.0647358  68.7905775  52.9763288  44.4921325  69.4095962  52.5233760
  45.6380151  69.3405137  53.5103210  48.2844617  69.0742925  54.1071870
  49.2175291  69.0088487  54.3104746  48.1967830  69.9099192  53.6486403
  50.9132634  68.3908796  51.0675818  50.8346266  68.0568659  51.9611576
  51.7342301  68.8830564  51.0667290  45.4494156  60.1266588  50.3179341
  46.3953261  59.9972796  50.3867759  45.0708401  59.3881250  50.7948769
  43.6337073  58.0516565  50.2534226  42.7268529  57.7549677  50.3296939
  43.9113054  57.7546383  49.3868512  34.5515014  59.3722928  60.7033272
  34.2317798  58.5188236  60.4107646  34.0048442  59.5871506  61.4591239
  45.2499139  52.5953454  56.4078467  44.4399867  52.2500539  56.7833713
  45.9383556  52.2860998  56.9966079  47.1789687  51.6731501  58.0302764
  47.7320726  52.0926954  58.6892787  47.4159774  50.7467249  58.0725720
  42.4035858  54.9103500  50.3946205  43.2655022  55.2358398  50.6542022
  42.5886202  54.1234996  49.8819271  34.4203274  62.9925839  62.6726394
  33.7266745  62.5779792  62.1596348  35.1676265  63.0346376  62.0759813
  36.3340016  62.9244093  60.5492409  36.3110704  63.0231780  59.5974292
  36.6440653  63.7709244  60.8709575  49.3393372  55.9432117  56.5937776
  48.4519227  56.2281767  56.3757971  49.7547361  55.7825880  55.7465053
  37.3477623  70.5239868  61.6809221  37.2132091  69.7640269  61.1147219
  36.9309685  71.2480768  61.2138010  48.4836586  65.7076791  50.6885796
  49.1872436  65.9126794  51.3043452  47.7599235  66.2753553  50.9534880
  49.3134396  61.4586652  56.8088066  49.2569598  61.9155204  55.9695699
  49.8662739  60.6977337  56.6310909  40.5046749  71.4209185  61.8927664
  40.3879133  72.3654617  61.7906354  39.6839195  71.1182746  62.2813463
  50.3923283  66.1459320  52.7384256  51.2268887  65.7140519  52.5561731
  50.2307626  65.9741334  53.6661151  50.0469175  62.6491434  54.1040596
  49.9917979  62.4835705  53.1629040  49.4215231  63.3567467  54.2602785
  34.8361690  57.8859498  67.9302018  35.4820554  57.3758452  68.4189243
  34.6278842  58.6228180  68.5045443  43.3565301  52.1499543  53.6825914
  43.3443971  53.0941383  53.8394185  44.2488723  51.9669688  53.3885375
  47.1717420  48.7442319  57.9371851  46.4049816  48.1900806  58.0828533
  47.5828125  48.8164188  58.7986002  51.6884080  78.4691876  58.7597849
  51.1248945  78.3781813  57.9914136  51.5736475  77.6491781  59.2400341
  49.2348512  79.9643068  61.5982069  50.0269804  79.6233892  61.1828368
  49.4745162  80.0738043  62.5184222  57.2683639  82.1362844  54.0712314
  56.6171619  82.7216924  53.6846327  58.0628002  82.6669039  54.1307351
  51.1939266  79.2251981  54.4699448  51.9670142  78.6780968  54.3312324
  51.5464665  80.0896230  54.6813909  53.0324309  80.5528363  67.6766347
  52.7414175  81.4573994  67.5613013  53.6681293  80.5944891  68.3910417
  53.9580516  77.9305212  64.2667707  54.5544088  77.7061234  63.5524670
  54.0155487  77.1889957  64.8693155  53.5305544  75.3844647  52.1017898
  53.7831065  74.8626168  51.3401361  52.5930103  75.2210792  52.2044581
  58.5748827  74.3880425  59.9092641  59.3611916  73.9699849  59.5583058
  58.8387531  75.2926518  60.0774289  58.7458904  79.8253276  54.6081298
  58.1104737  79.8987902  55.3202202  58.4156311  80.4146875  53.9300377
  53.2501833  77.2872753  54.3042273  53.1338091  76.6117656  54.9723357
  53.3604093  76.8005127  53.4874426  55.5933374  76.7482900  58.0088962
  55.2291581  76.2213521  58.7201883  56.4500490  76.3581369  57.8355447
  55.2338861  71.7772800  53.0050311  55.4013263  72.6453036  53.3720782
  55.0436030  71.9400081  52.0811600  57.9914194  80.2389779  64.6716141
  57.6914917  81.1414818  64.5631948  57.6465253  79.9721962  65.5237294
  51.4426675  76.6903576  60.7052845  50.5177172  76.5579790  60.9130537
  51.6911089  77.4697795  61.2022788  55.2128082  74.2330457  53.9896977
  55.0927707  74.6787508  54.8282458  54.5180670  74.5815775  53.4310515
  52.9734974  87.0034099  57.6387109  52.8959003  87.9541924  57.7175589
  52.3696617  86.6579972  58.2962035  59.5182730  79.6877749  62.2090893
  58.8891592  79.8523463  61.5066961  59.1308392  80.1019358  62.9801857
  63.3971962  80.6232187  59.5635257  62.7123000  81.0031088  59.0132290
  63.4815811  81.2327513  60.2967204  60.6522893  78.2692146  66.1630600
  60.8639789  78.9123906  65.4864981  60.6052642  77.4354462  65.6952530
  58.2549122  70.8809966  63.0667172  57.3933601  71.1791220  63.3583910
  58.2811557  71.0980365  62.1348205  55.0710692  79.4252157  59.4740978
  55.5349037  79.7039860  58.6845600  54.8067490  78.5235602  59.2914069
  51.9634773  78.9723639  62.4120741  52.5336130  79.4010907  61.7738226
  52.5542885  78.6906223  63.1104927  54.0079578  75.5475309  56.2830543
  54.7103621  75.9996353  56.7504469  53.6760206  74.9059128  56.9110436
  61.7668721  81.1464101  64.3352957  62.5886165  80.7444288  64.0535639
  61.7631124  81.0432335  65.2869073  49.7019657  74.1703441  58.5431153
  48.9050821  74.2822136  59.0614649  49.4745249  74.5090094  57.6772044
  55.5325325  80.6948145  66.4913668  55.5969757  81.1568552  67.3271840
  54.8236249  80.0645509  66.6195978  69.8574714  77.4902850  60.6837929
  69.1038423  76.9210248  60.5281933  69.9922256  77.4565514  61.6308564
  55.2473343  82.3616252  56.3592648  55.1119017  83.2067788  56.7877496
  55.7883155  82.5635530  55.5958582  48.7002740  79.8791690  56.9320573
  49.2127260  80.6734940  57.0826138  49.3525453  79.1817980  56.8654175
  50.5097625  82.9957446  59.0143327  50.6864253  83.9175411  58.8264310
  51.3054458  82.6815866  59.4437706  56.8741819  82.9839819  70.4892990
  56.4305673  82.1976197  70.1713895  57.5359032  83.1718969  69.8236881
  51.6328940  84.5135620  65.0153669  52.1836365  84.3852683  64.2430663
  50.7940416  84.8130509  64.6648562  58.9723057  83.2642618  68.5174392
  58.9541532  84.0851499  68.0254661  59.8942977  83.1396694  68.7424533
  55.4296111  80.7786748  69.3597900  55.9624448  80.0175036  69.1297208
  54.9010192  80.4860400  70.1022054  46.6651657  78.2080344  57.7080144
  47.5026879  78.6177353  57.4913852  46.8429924  77.2679786  57.6780338
  58.5616089  75.8755425  53.3963977  58.0462712  76.6460030  53.6352364
  58.2893397  75.2020561  54.0197038  56.1463200  70.7205126  58.4549215
  55.2904796  70.3311976  58.2754854  56.5590152  70.7997087  57.5949001
  63.5350363  78.6287780  55.3317150  62.7579806  78.2898939  54.8872312
  64.2141844  78.6340403  54.6572115  58.3502392  73.7482517  55.2223758
  58.0452528  74.0628666  56.0733901  59.3032834  73.8263937  55.2651091
  56.7948824  79.9072740  56.8716712  56.2670185  79.1725500  56.5589949
  56.2936327  80.6847417  56.6256680  51.5267551  70.5692407  59.2323324
  52.1011303  70.3467588  58.4996516  52.1138534  70.6381101  59.9851925
  60.5847129  76.4566134  60.0387700  61.0979010  77.0896125  60.5409410
  61.2348353  75.8567329  59.6731060  51.8537139  72.5996868  53.2519209
  51.0174451  72.9371554  53.5728484  51.7141908  72.4645847  52.3146346
  53.8290219  67.4433656  57.9598393  53.1754631  67.1282673  57.3355008
  53.7870693  66.8209396  58.6858216  54.9401424  77.7252951  49.8751685
  54.0328486  77.4942204  50.0742834  55.4372456  76.9290570  50.0625667
  57.8469503  86.4350458  52.7948371  57.1731202  86.7382155  53.4033329
  58.2335325  87.2379538  52.4453828  57.8463007  75.3307005  57.4148721
  58.5934826  75.8428402  57.1055843  58.1154597  75.0091058  58.2753114
  56.1189657  77.8265546  54.3975675  55.2100877  77.5424578  54.4948145
  56.1484741  78.2464624  53.5378982  61.3508925  81.4372135  58.1666843
  60.8971252  80.5963045  58.2232033  60.7202892  82.0733533  58.5041623
  59.7941864  83.2748632  59.1016661  60.0864838  83.8353689  58.3829026
  60.3040485  83.5677193  59.8569820  46.6877828  75.5471060  58.3790877
  46.4902228  74.9540420  57.6541944  46.1324492  75.2423270  59.0966816
  54.6674551  75.4394166  60.4985471  54.7223161  74.4868003  60.4227947
  53.8565754  75.5953605  60.9826769  55.8165745  79.3674289  51.7363754
  55.3785175  78.6510148  51.2769391  56.5576186  79.5950404  51.1748845
  52.6066911  74.0571226  58.2575849  51.7934777  74.3565396  58.6641042
  53.1025906  73.6626915  58.9750332  54.7575489  84.0528983  60.1910114
  54.7151668  84.2789829  59.2618646  55.6738188  83.8192357  60.3395915
  63.9338860  77.6431486  57.7940072  63.7956759  77.8333082  56.8661262
  63.5775079  78.4050869  58.2508123  52.8741290  80.9292012  59.9872077
  53.6681889  80.4342332  59.7854652  52.1632982  80.4009875  59.6239782
  57.6936135  83.3110107  64.3384444  57.7473157  83.8801044  65.1062160
  56.8250916  83.4811992  63.9738482  49.1824054  75.0735094  56.0631829
  48.2521642  75.0119549  56.2801792  49.2781526  74.5511046  55.2668471
  49.1009603  71.5989906  58.6510071  49.3616420  72.5135240  58.5419232
  49.9226775  71.1314349  58.8006684  64.8223789  79.7531714  65.3384229
  65.0159679  80.6577524  65.5843504  64.7224407  79.2939133  66.1722814
  55.4512566  81.5021034  63.6669914  55.3123652  81.1339818  64.5395852
  54.6627162  82.0168673  63.4953872  56.0460718  86.6030130  55.0095450
  56.2212474  86.1318173  55.8241073  55.3593506  87.2295896  55.2376711
  57.0017781  80.8802636  61.0558752  56.6667614  80.8403406  61.9516402
  56.5021727  80.2147352  60.5829162  59.9376973  78.2258671  51.3295811
  59.3206144  77.5005499  51.2328864  59.4693461  78.9868031  50.9862886
  61.5931105  82.9357579  68.9901592  61.5343651  82.2516799  68.3232175
  61.9950623  83.6776569  68.5382218  50.6121803  89.7519493  61.7835311
  50.8518402  90.3838017  62.4614329  49.7691000  89.4007533  62.0700670
  51.7275519  72.4444095  50.4517116  50.8504985  72.3232896  50.0879362
  52.2033272  71.6530173  50.1996004  61.5948512  80.8997163  67.2215571
  60.7075291  80.5623085  67.3441970  62.1647063  80.1680194  67.4584337
  43.2477659  77.2321255  60.5458623  43.9348699  76.9182985  59.9579638
  43.0925788  78.1362620  60.2725874  55.1249665  85.5598615  64.1876815
  55.0519837  86.3653587  64.6996119  54.6827058  85.7590581  63.3624836
  54.9139445  84.7970386  57.6979636  54.1306967  85.3392066  57.7917861
  55.6132190  85.3144365  58.0973877  58.2236095  70.6065015  60.3413841
  58.7204794  69.8534977  60.0214912  57.4523076  70.6429332  59.7757051
  57.5848349  85.4585450  66.3434973  58.2976321  86.0932914  66.2710875
  57.0938377  85.5549316  65.5274975  59.3065876  79.3636702  57.9152265
  58.3722154  79.4838165  57.7456969  59.4842544  78.4609169  57.6512275
  52.6360262  83.2079893  67.1640544  53.3369722  83.8416376  67.3169938
  52.1655377  83.5494625  66.4036183  60.7614658  81.5497843  55.4488451
  61.0374502  81.4354437  56.3582325  59.8919157  81.1515328  55.4100624
  57.3968722  85.7984194  59.0921265  57.5791117  84.9805850  59.5549017
  58.2201708  86.0151886  58.6546155  57.7310888  84.7252379  56.3536313
  58.2598654  84.2144833  55.7406475  57.9939107  84.4094909  57.2181846
  48.2327980  82.7416248  64.0971647  48.8181417  81.9959936  64.2299551
  48.0352819  83.0520205  64.9808311  51.0866636  85.7767495  59.1134089
  50.4177011  86.2613623  58.6298129  50.9479505  86.0236716  60.0277468
  55.2271904  87.8111239  65.7116747  55.7790212  87.9742860  66.4765833
  55.5678098  88.4015677  65.0396772  60.0782778  82.6372496  71.5665402
  60.6222682  83.2502455  71.0720357  59.4969623  83.1952075  72.0832415
  46.4554213  74.0385950  55.8930021  46.7507654  73.1296629  55.8397075
  45.5542248  74.0173690  55.5711024  58.3640291  85.7593214  62.6980430
  58.2391431  84.9582954  62.1891375  59.0219383  86.2539408  62.2094400
  60.4275200  83.5602235  64.3259980  59.4805535  83.4407586  64.2538306
  60.7757973  82.6724733  64.4086241  48.1842054  71.7200048  56.0169346
  47.8554760  70.8397427  55.8344452  48.5381425  71.6647717  56.9045736
  57.4321633  83.3554951  60.5264332  57.2846596  82.4271658  60.7071902
  58.2575127  83.3775041  60.0421407  51.2983877  72.0073018  56.3844824
  51.6379950  72.5358939  55.6623432  51.7455998  72.3453424  57.1603391
  61.0355755  84.1783509  61.6129205  61.9602302  83.9726371  61.4753656
  60.8671058  83.9299911  62.5218546  53.2852025  70.5047639  54.5838117
  54.0060387  70.8828892  54.0801834  52.6617329  71.2236516  54.6873095
  60.8251071  84.6969177  56.9691296  60.9987949  84.1315599  56.2165149
  61.3179962  85.4970072  56.7870786  53.4315648  70.0395430  57.4135653
  53.5531559  69.1112076  57.6126541  53.1417690  70.0534116  56.5013969
  61.8126244  84.0135941  54.0688194  62.5077148  84.6342634  54.2875509
  62.1549394  83.1631293  54.3440572  63.7117667  81.4635647  55.5975525
  64.2368991  81.8022920  54.8724845  63.6240019  80.5282662  55.4138660
  55.3737715  85.3769721  67.7265402  55.6824842  85.1318867  68.5988101
  56.1713197  85.5816359  67.2384272  55.3958327  87.5307630  59.9570778
  54.9563318  87.0384009  60.6503635  56.1466444  86.9880598  59.7162854
  47.8750666  83.7219171  59.9595406  48.7008686  83.4222943  59.5794050
  47.5244718  82.9526793  60.4085195  52.8432200  83.0745639  62.0293080
  52.2212209  82.4116344  61.7295308  53.5137067  83.1006771  61.3466728
  46.0759272  81.6405497  60.9184340  45.2391180  81.2127672  60.7368341
  46.0482917  81.8337941  61.8555131  63.4011573  82.0968551  70.9026723
  62.6107117  82.0792689  70.3631223  63.1644927  82.6356844  71.6575760
  52.4045707  81.6249563  55.5051541  52.5533827  82.3085027  54.8518213
  53.2112150  81.6054653  56.0200996  65.0227645  81.3657958  68.4601473
  64.7312453  81.7287939  69.2964934  64.4099776  80.6524967  68.2814805
  63.2714833  76.4890573  66.9281531  63.7468955  76.6818219  66.1200383
  62.3480398  76.5449759  66.6824915  50.1598340  77.6514740  56.5112609
  49.9144381  76.7477070  56.7092820  50.3294254  77.6531891  55.5692087
  49.4293987  73.3843098  54.0098771  48.7363232  73.4587453  53.3538807
  49.1845739  72.6203441  54.5320288  55.9041112  84.1197693  52.9763288
  55.3315079  84.7387880  52.5233760  56.4773906  84.6697055  53.5103210
  61.9716502  73.3656333  65.1609837  62.9233925  73.4654431  65.1822061
  61.8019952  72.5734602  65.6707921  59.9930881  70.4511916  65.3469238
  59.3980814  70.7316929  64.6515726  59.7080578  70.9405817  66.1185979
  59.1238372  84.4034843  54.1071870  60.0569045  84.3380405  54.3104746
  59.0361585  85.2391110  53.6486403  61.7526389  83.7200714  51.0675818
  61.6740020  83.3860577  51.9611576  62.5736055  84.2122481  51.0667290
  56.2887911  75.4558506  50.3179341  57.2347015  75.3264714  50.3867759
  55.9102156  74.7173168  50.7948769  70.2681130  77.6478460  63.4158173
  70.9984518  77.3863748  63.9765877  69.6588075  76.9107182  63.4560241
  54.4730828  73.3808482  50.2534226  53.5662283  73.0841595  50.3296939
  54.7506809  73.0838300  49.3868512  56.0892893  67.9245372  56.4078467
  55.2793622  67.5792457  56.7833713  56.7777310  67.6152916  56.9966079
  53.2429612  70.2395417  50.3946205  54.1048776  70.5650316  50.6542022
  53.4279957  69.4526913  49.8819271  47.1733771  78.2536011  60.5492409
  47.1504459  78.3523698  59.5974292  47.4834407  79.1001162  60.8709575
  48.1871377  85.8531785  61.6809221  48.0525845  85.0932186  61.1147219
  47.7703440  86.5772685  61.2138010  59.3230340  81.0368709  50.6885796
  60.0266190  81.2418711  51.3043452  58.5992989  81.6045471  50.9534880
  60.1528151  76.7878570  56.8088066  60.0963352  77.2447122  55.9695699
  60.7056493  76.0269255  56.6310909  51.3440503  86.7501102  61.8927664
  51.2272887  87.6946535  61.7906354  50.5232949  86.4474664  62.2813463
  61.2317038  81.4751238  52.7384256  62.0662642  81.0432437  52.5561731
  61.0701381  81.3033252  53.6661151  60.8862930  77.9783351  54.1040596
  60.8311734  77.8127623  53.1629040  60.2608985  78.6859384  54.2602785
  54.1959055  67.4791460  53.6825914  54.1837725  68.4233300  53.8394185
  55.0882477  67.2961606  53.3885375  52.3695017  87.4029364  65.1083592
  53.2722264  87.4352975  65.4250087  52.1432387  86.4729815  65.1229928
  54.1248619  86.1560351  61.7693671  53.1744250  86.1562212  61.6558043
  54.4281105  85.4093085  61.2529705  69.8601313  91.9920889  62.8339433
  70.4979723  91.8727637  62.1302773  69.7422156  92.9401733  62.8927385
  66.6691019  91.9448317  62.7700958  66.3309531  91.8289382  61.8821493
  67.5380787  91.5439482  62.7501964  62.5277835  93.7983794  58.7597849
  61.9642700  93.7073731  57.9914136  62.4130230  92.9783698  59.2400341
  67.1510802  93.0983169  68.7287163  67.1399443  92.7035967  67.8567667
  67.3131442  92.3649242  69.3220935  60.0742267  95.2934985  61.5982069
  60.8663559  94.9525810  61.1828368  60.3138917  95.4029960  62.5184222
  68.1077394  97.4654761  54.0712314  67.4565373  98.0508842  53.6846327
  68.9021756  97.9960956  54.1307351  62.0333021  94.5543899  54.4699448
  62.8063897  94.0072886  54.3312324  62.3858420  95.4188148  54.6813909
  63.8718063  95.8820281  67.6766347  63.5807929  96.7865912  67.5613013
  64.5075048  95.9236808  68.3910417  64.7974270  93.2597129  64.2667707
  65.3937842  93.0353152  63.5524670  64.8549242  92.5181875  64.8693155
  64.3699298  90.7136565  52.1017898  64.6224819  90.1918086  51.3401361
  63.4323858  90.5502710  52.2044581  69.4142581  89.7172343  59.9092641
  70.2005671  89.2991766  59.5583058  69.6781286  90.6218435  60.0774289
  69.5852659  95.1545193  54.6081298  68.9498492  95.2279820  55.3202202
  69.2550065  95.7438792  53.9300377  74.8151008  89.6547576  60.8125620
  75.5476180  89.0846793  61.0463449  74.0590364  89.2669177  61.2532125
  64.0895587  92.6164671  54.3042273  63.9731845  91.9409574  54.9723357
  64.1997847  92.1297045  53.4874426  66.4327128  92.0774818  58.0088962
  66.0685335  91.5505439  58.7201883  67.2894244  91.6873287  57.8355447
  72.3376429  83.3669150  65.2720228  72.0059754  84.2364561  65.0481443
  71.7422042  83.0505434  65.9514259  66.0732615  87.1064717  53.0050311
  66.2407017  87.9744954  53.3720782  65.8829784  87.2691999  52.0811600
  68.8307948  95.5681696  64.6716141  68.5308671  96.4706735  64.5631948
  68.4859008  95.3013880  65.5237294  62.2820430  92.0195493  60.7052845
  61.3570926  91.8871707  60.9130537  62.5304843  92.7989712  61.2022788
  72.2305092  88.0864237  62.3513578  71.3221969  88.0179645  62.0572339
  72.1792688  88.5636181  63.1795404  66.0521836  89.5622375  53.9896977
  65.9321461  90.0079426  54.8282458  65.3574424  89.9107693  53.4310515
  59.6429241  91.6628767  61.5396634  59.7721622  91.9163246  62.4536046
  58.9626692  92.2556475  61.2201289  63.8128728 102.3326017  57.6387109
  63.7352758 103.2833842  57.7175589  63.2090372 101.9871889  58.2962035
  66.3045958  89.5053882  70.2948475  65.5279292  90.0647802  70.2851340
  66.9436521  89.9910665  70.8163346  74.0966738  86.2880675  64.1291452
  73.4541119  86.5813208  63.4831247  73.5921667  86.1733595  64.9344649
  71.7506902  90.0343848  54.8177311  72.6624758  90.2671235  54.6425009
  71.2416549  90.6180892  54.2552390  64.5592330  92.3139336  69.8566442
  65.3007015  92.8524379  69.5801266  63.8529316  92.9405624  70.0137994
  70.0347670  94.4568476  68.4538604  70.4431026  94.0150886  67.7093236
  69.3124931  93.8821103  68.7072797  66.3878740  89.3941083  65.8272161
  67.2339935  89.8180496  65.9706810  66.3277378  88.7374707  66.5210724
  70.3576484  95.0169667  62.2090893  69.7285347  95.1815381  61.5066961
  69.9702147  95.4311276  62.9801857  74.2365716  95.9524104  59.5635257
  73.5516755  96.3323006  59.0132290  74.3209566  96.5619431  60.2967204
  69.5378185  87.0545451  67.4853335  69.2939117  87.8087512  66.9487610
  69.8138116  87.4330799  68.3200582  71.4916648  93.5984063  66.1630600
  71.7033543  94.2415823  65.4864981  71.4446396  92.7646380  65.6952530
  69.0942877  86.2101884  63.0667172  68.2327356  86.5083138  63.3583910
  69.1205312  86.4272283  62.1348205  65.9104446  94.7544075  59.4740978
  66.3742792  95.0331778  58.6845600  65.6461244  93.8527519  59.2914069
  62.8028527  94.3015556  62.4120741  63.3729884  94.7302825  61.7738226
  63.3936639  94.0198141  63.1104927  64.8473332  90.8767227  56.2830543
  65.5497376  91.3288271  56.7504469  64.5153961  90.2351046  56.9110436
  63.2953694  89.4678984  70.6581752  62.6652355  90.1495265  70.8917149
  63.1889782  89.3562065  69.7134891  58.5898666  89.1350780  61.5847677
  57.7997720  89.3908308  61.1087787  59.0809914  89.9499118  61.6899717
  72.6062476  96.4756019  64.3352957  73.4279920  96.0736206  64.0535639
  72.6024879  96.3724253  65.2869073  60.5413412  89.4995359  58.5431153
  59.7444575  89.6114053  59.0614649  60.3139004  89.8382011  57.6772044
  66.3719079  96.0240062  66.4913668  66.4363512  96.4860469  67.3271840
  65.6630003  95.3937427  66.6195978  56.8736369  89.3881270  64.0162667
  57.1244408  90.2728280  64.2820243  57.4095918  89.2085872  63.2437759
  80.6968469  92.8194767  60.6837929  79.9432177  92.2502165  60.5281933
  80.8316010  92.7857432  61.6308564  66.0867097  97.6908170  56.3592648
  65.9512772  98.5359705  56.7877496  66.6276910  97.8927447  55.5958582
  62.5734437  83.7699750  73.0207004  62.1801382  83.2165948  73.6954648
  63.3900577  84.0810328  73.4113521  59.5396494  95.2083608  56.9320573
  60.0521015  96.0026858  57.0826138  60.1919207  94.5109898  56.8654175
  61.3491379  98.3249364  59.0143327  61.5258007  99.2467329  58.8264310
  62.1448213  98.0107783  59.4437706  65.4902398  85.1857629  70.6127260
  66.2312111  85.7864782  70.5331723  65.7220320  84.4435266  70.0545303
  60.6343736  90.3713996  68.8905490  60.5197251  89.4699253  69.1912589
  59.7788253  90.6177693  68.5390306  67.7135573  98.3131736  70.4892990
  67.2699428  97.5268115  70.1713895  68.3752787  98.5010887  69.8236881
  62.4722695  99.8427538  65.0153669  63.0230120  99.7144601  64.2430663
  61.6334170 100.1422427  64.6648562  69.8116811  98.5934536  68.5174392
  69.7935287  99.4143417  68.0254661  70.7336732  98.4688611  68.7424533
  66.2689866  96.1078666  69.3597900  66.8018202  95.3466954  69.1297208
  65.7403947  95.8152317  70.1022054  69.4359561  81.2138732  64.8891542
  69.0923830  82.1040373  64.8130652  69.8038523  81.0240389  64.0261127
  57.5045411  93.5372262  57.7080144  58.3420633  93.9469270  57.4913852
  57.6823679  92.5971704  57.6780338  69.4009843  91.2047343  53.3963977
  68.8856467  91.9751947  53.6352364  69.1287152  90.5312479  54.0197038
  66.9856954  86.0497043  58.4549215  66.1298551  85.6603894  58.2754854
  67.3983906  86.1289004  57.5949001  68.5156101  83.5843387  62.8540775
  68.0120897  83.5473522  62.0408580  68.8086708  84.4936129  62.9137432
  64.7598987  83.6682116  61.8606957  65.6251984  83.4724925  61.5012846
  64.8276496  83.4392468  62.7876313  74.3744117  93.9579697  55.3317150
  73.5973560  93.6190857  54.8872312  75.0535598  93.9632320  54.6572115
  69.1896146  89.0774435  55.2223758  68.8846282  89.3920584  56.0733901
  70.1426589  89.1555855  55.2651091  67.6342578  95.2364658  56.8716712
  67.1063940  94.5017418  56.5589949  67.1330081  96.0139334  56.6256680
  72.6135424  93.4313679  61.9883758  71.9559099  94.1212940  62.0763887
  73.4175824  93.8210110  62.3317745  62.3661306  85.8984324  59.2323324
  62.9405058  85.6759506  58.4996516  62.9532288  85.9673019  59.9851925
  71.4240883  91.7858051  60.0387700  71.9372765  92.4188043  60.5409410
  72.0742107  91.1859247  59.6731060  62.6930893  87.9288785  53.2519209
  61.8568205  88.2663472  53.5728484  62.5535663  87.7937765  52.3146346
  64.6683974  82.7725573  57.9598393  64.0148386  82.4574590  57.3355008
  64.6264448  82.1501314  58.6858216  65.7795179  93.0544868  49.8751685
  64.8722240  92.8234122  50.0742834  66.2766210  92.2582488  50.0625667
  68.6863257 101.7642376  52.7948371  68.0124956 102.0674072  53.4033329
  69.0729079 102.5671456  52.4453828  67.9021714  89.2607507  62.2846041
  66.9844275  89.4822454  62.1267729  68.3181858  89.3353817  61.4257748
  68.6856762  90.6598922  57.4148721  69.4328581  91.1720320  57.1055843
  68.9548351  90.3382975  58.2753114  66.9583412  93.1557463  54.3975675
  66.0494631  92.8716496  54.4948145  66.9878496  93.5756542  53.5378982
  72.1902679  96.7664053  58.1666843  71.7365006  95.9254963  58.2232033
  71.5596646  97.4025451  58.5041623  71.1335599  87.6956039  59.3967510
  70.3958356  87.1833425  59.7277753  71.3862372  87.2556420  58.5850787
  70.6335619  98.6040549  59.1016661  70.9258593  99.1645606  58.3829026
  71.1434239  98.8969110  59.8569820  71.2347226  80.4732291  59.9909279
  71.5406103  79.6129654  59.7035195  71.9599831  81.0649911  59.7908273
  57.5271582  90.8762977  58.3790877  57.3295982  90.2832338  57.6541944
  56.9718246  90.5715188  59.0966816  65.5068306  90.7686084  60.4985471
  65.5616916  89.8159920  60.4227947  64.6959508  90.9245523  60.9826769
  66.6559500  94.6966207  51.7363754  66.2178930  93.9802066  51.2769391
  67.3969941  94.9242322  51.1748845  63.4460666  89.3863144  58.2575849
  62.6328531  89.6857314  58.6641042  63.9419660  88.9918832  58.9750332
  65.5969244  99.3820900  60.1910114  65.5545423  99.6081747  59.2618646
  66.5131943  99.1484275  60.3395915  69.0434878  89.8504968  67.0890743
  69.3984265  90.0776441  67.9485209  69.6907009  90.1823345  66.4667999
  74.7732615  92.9723404  57.7940072  74.6350513  93.1625000  56.8661262
  74.4168833  93.7342787  58.2508123  62.9374741  86.9581499  63.8737084
  63.5774120  86.8170258  63.1760048  62.1052271  86.6716012  63.4975686
  74.8001994  95.0399931  62.8051344  75.2338501  94.9475220  63.6534398
  75.5133575  95.0157431  62.1671360  63.7135045  96.2583929  59.9872077
  64.5075643  95.7634250  59.7854652  63.0026737  95.7301793  59.6239782
  68.5329889  98.6402025  64.3384444  68.5866911  99.2092961  65.1062160
  67.6644670  98.8103910  63.9738482  60.0217808  90.4027011  56.0631829
  59.0915396  90.3411467  56.2801792  60.1175280  89.8802964  55.2668471
  59.9403357  86.9281824  58.6510071  60.2010174  87.8427157  58.5419232
  60.7620529  86.4606267  58.8006684  61.4128282  88.3419581  65.8208896
  62.0851336  88.1336943  65.1721545  60.5858069  88.1441667  65.3814128
  75.6617544  95.0823632  65.3384229  75.8553434  95.9869442  65.5843504
  75.5618162  94.6231051  66.1722814  67.3153854  84.9681522  67.8374557
  66.6681769  85.6671472  67.7439033  68.0854870  85.4017666  68.2050805
  70.7232652  95.2330374  70.9125110  70.5718159  95.0040926  69.9955194
  70.7137332  96.1900976  70.9256455  67.4917989  92.8062287  65.8971376
  68.4210049  92.9573447  65.7240344  67.0709019  92.8946308  65.0420023
  66.2906321  96.8312951  63.6669914  66.1517406  96.4631736  64.5395852
  65.5020917  97.3460591  63.4953872  66.8854473 101.9322048  55.0095450
  67.0606228 101.4610091  55.8241073  66.1987261 102.5587814  55.2376711
  67.8411536  96.2094554  61.0558752  67.5061368  96.1695324  61.9516402
  67.3415481  95.5439270  60.5829162  61.8155780  91.6162184  66.5811333
  61.6775578  90.8842423  67.1822872  62.7260703  91.5271084  66.2995521
  70.7770727  93.5550589  51.3295811  70.1599898  92.8297417  51.2328864
  70.3087216  94.3159949  50.9862886  64.4438080  91.3282144  66.0695012
  65.1537699  90.6875336  66.0281631  64.4007388  91.5795038  66.9921193
  72.4324859  98.2649497  68.9901592  72.3737405  97.5808717  68.3232175
  72.8344377  99.0068487  68.5382218  63.1567014  88.3147361  67.8890652
  62.6204371  87.8638100  68.5412248  62.5683723  88.4493270  67.1461116
  61.4515558 105.0811411  61.7835311  61.6912156 105.7129935  62.4614329
  60.6084754 104.7299451  62.0700670  62.5669273  87.7736013  50.4517116
  61.6898740  87.6524814  50.0879362  63.0427026  86.9822091  50.1996004
  72.4342266  96.2289081  67.2215571  71.5469045  95.8915003  67.3441970
  73.0040817  95.4972112  67.4584337  54.0871413  92.5613173  60.5458623
  54.7742453  92.2474903  59.9579638  53.9319542  93.4654537  60.2725874
  58.8906136  87.4503369  64.9743646  58.8064324  86.8429039  64.2394056
  58.0688842  87.9412387  64.9753143  65.9643420 100.8890533  64.1876815
  65.8913591 101.6945505  64.6996119  65.5220813 101.0882499  63.3624836
  65.7533199 100.1262303  57.6979636  64.9700721 100.6683983  57.7917861
  66.4525944 100.6436283  58.0973877  69.0629849  85.9356933  60.3413841
  69.5598549  85.1826895  60.0214912  68.2916831  85.9721249  59.7757051
  76.9159607  91.6397298  61.9832133  76.9049483  92.5222014  61.6126066
  76.0476986  91.2868849  61.7886670  68.4242103 100.7877367  66.3434973
  69.1370075 101.4224832  66.2710875  67.9332132 100.8841233  65.5274975
  70.1459630  94.6928620  57.9152265  69.2115909  94.8130082  57.7456969
  70.3236299  93.7901087  57.6512275  65.6464818  88.0774316  60.0685526
  65.2762606  87.5245356  60.7566432  66.1423911  87.4732449  59.5160526
  73.5332181  90.5345939  58.4502299  73.9992634  91.3673931  58.3762602
  73.9839682  90.0690921  59.1547558  63.4754017  98.5371811  67.1640544
  64.1763476  99.1708294  67.3169938  63.0049132  98.8786542  66.4036183
  71.6008413  96.8789760  55.4488451  71.8768256  96.7646355  56.3582325
  70.7312911  96.4807245  55.4100624  71.5048844  82.9026526  62.4893200
  70.5911924  83.1330753  62.6575407  71.9341946  82.9864970  63.3407233
  71.2755303  91.0916418  64.9893094  70.6226753  91.3392326  64.3345547
  71.6535683  90.2780556  64.6555572  68.2362477 101.1276111  59.0921265
  68.4184871 100.3097767  59.5549017  69.0595463 101.3443804  58.6546155
  68.5704642 100.0544296  56.3536313  69.0992409  99.5436751  55.7406475
  68.8332862  99.7386827  57.2181846  67.3242876  91.8336229  71.4759131
  66.6483513  91.7330358  72.1461507  68.1470510  91.6775443  71.9395129
  59.0721735  98.0708166  64.0971647  59.6575172  97.3251854  64.2299551
  58.8746573  98.3812122  64.9808311  61.9260390 101.1059413  59.1134089
  61.2570765 101.5905541  58.6298129  61.7873260 101.3528634  60.0277468
  53.6639390  90.6413766  62.8176090  53.7023489  90.1077357  63.6113208
  53.1579682  90.1148971  62.1987067  66.0665659 103.1403157  65.7116747
  66.6183967 103.3034778  66.4765833  66.4071852 103.7307594  65.0396772
  61.0430152  85.4878306  66.3138632  61.1071478  86.3493137  65.9016030
  60.9797272  84.8752308  65.5810991  60.5182424  87.5601439  69.9611666
  61.1454463  87.1778516  70.5749191  59.6610343  87.3415641  70.3267359
  70.9176533  97.9664414  71.5665402  71.4616437  98.5794372  71.0720357
  70.3363378  98.5243993  72.0832415  57.2947967  89.3677868  55.8930021
  57.5901408  88.4588546  55.8397075  56.3936003  89.3465608  55.5711024
  69.2034046 101.0885132  62.6980430  69.0785185 100.2874872  62.1891375
  69.8613137 101.5831326  62.2094400  60.8242214  87.4433865  61.8757570
  60.1028800  88.0569832  61.7365043  61.6135470  87.9791629  61.7974216
  71.2668954  98.8894152  64.3259980  70.3199290  98.7699503  64.2538306
  71.6151727  98.0016650  64.4086241  63.6268528  84.7788291  68.1498222
  64.1502929  85.0250588  68.9124531  63.4080861  85.6108326  67.7301359
  59.0235809  87.0491966  56.0169346  58.6948515  86.1689345  55.8344452
  59.3775179  86.9939634  56.9045736  68.2715388  98.6846868  60.5264332
  68.1240350  97.7563576  60.7071902  69.0968881  98.7066959  60.0421407
  62.1377632  87.3364936  56.3844824  62.4773704  87.8650857  55.6623432
  62.5849752  87.6745342  57.1603391  71.8749509  99.5075427  61.6129205
  72.7996057  99.3018289  61.4753656  71.7064813  99.2591828  62.5218546
  64.8321073  85.7201986  65.8347892  64.4917893  84.9209799  66.2368572
  64.1260079  86.0203697  65.2624725  65.4837544  82.8051299  64.2875215
  66.3063614  82.3311777  64.1654105  65.7275608  83.5841782  64.7873901
  64.1245779  85.8339557  54.5838117  64.8454141  86.2120810  54.0801834
  63.5011083  86.5528434  54.6873095  68.2676902  86.5384706  55.5196449
  68.4840516  87.4209344  55.2185277  67.7870969  86.1470919  54.7902091
  63.0076123  89.4970419  62.0967194  62.8620704  89.8110722  62.9891475
  62.5301327  90.1155320  61.5438092  64.8672506  86.4872967  62.1448083
  64.8534075  85.5914061  61.8080381  65.5844934  86.4943631  62.7786369
  66.7198637  86.9210308  64.1901211  66.4616415  87.8427378  64.1885541
  66.1883677  86.5240742  64.8801675  71.6644826 100.0261095  56.9691296
  71.8381703  99.4607517  56.2165149  72.1573717 100.8261990  56.7870786
  57.4821785  92.0375764  65.0354855  56.9375253  92.8135572  65.1675129
  58.3601135  92.3846568  64.8773976  64.2709402  85.3687348  57.4135653
  64.3925313  84.4403994  57.6126541  63.9811444  85.3826034  56.5013969
  67.1400592  83.0542258  60.5502373  67.1622289  83.1181591  59.5954353
  67.5568651  82.2146767  60.7442879  77.5184217  92.7897518  58.5881596
  77.9615363  92.0404843  58.1900719  76.6410727  92.7807654  58.2055328
  72.6519998  99.3427859  54.0688194  73.3470903  99.9634552  54.2875509
  72.9943148  98.4923210  54.3440572  58.2687807  91.1645660  67.9285012
  57.5269543  91.3128295  68.5149642  57.9480552  91.4253926  67.0651761
  74.5511421  96.7927565  55.5975525  75.0762745  97.1314837  54.8724845
  74.4633774  95.8574580  55.4138660  66.2131470 100.7061638  67.7265402
  66.5218596 100.4610785  68.5988101  67.0106952 100.9108277  67.2384272
  66.2352082 102.8599548  59.9570778  65.7957072 102.3675927  60.6503635
  66.9860199 102.3172516  59.7162854  58.7144421  99.0511089  59.9595406
  59.5402441  98.7514861  59.5794050  58.3638473  98.2818711  60.4085195
  63.6825954  98.4037557  62.0293080  63.0605963  97.7408262  61.7295308
  64.3530821  98.4298689  61.3466728  56.9153026  96.9697415  60.9184340
  56.0784934  96.5419590  60.7368341  56.8876671  97.1629858  61.8555131
  63.7550482  86.8819345  71.6225586  63.8038637  87.7581468  71.2403356
  64.2972996  86.3396738  71.0497229  74.2405327  97.4260468  70.9026723
  73.4500871  97.4084607  70.3631223  74.0038682  97.9648762  71.6575760
  74.3603202  94.2752935  68.2159452  74.4101207  94.1102942  69.1574974
  74.2517126  93.4080194  67.8257332  63.2439461  96.9541480  55.5051541
  63.3927581  97.6376945  54.8518213  64.0505904  96.9346570  56.0200996
  71.6506965  90.2583863  69.5318758  72.5516827  90.1190327  69.2402756
  71.7254939  90.4238317  70.4716936  65.9849770  87.6350717  68.3771945
  65.1153079  87.9284283  68.1054533  66.2209250  88.2191162  69.0979208
  75.8621399  96.6949876  68.4601473  75.5706207  97.0579857  69.2964934
  75.2493530  95.9816884  68.2814805  77.0617081  94.2602756  60.9804043
  77.8963973  94.6992560  61.1441604  77.1976210  93.7841409  60.1612289
  74.1108587  91.8182491  66.9281531  74.5862709  92.0110137  66.1200383
  73.1874153  91.8741677  66.6824915  60.9992094  92.9806658  56.5112609
  60.7538136  92.0768988  56.7092820  61.1688009  92.9823808  55.5692087
  68.6888804  83.8530334  65.8937365  69.2070748  84.5891361  65.5683854
  68.3343937  84.1594328  66.7284124  60.2687742  88.7135015  54.0098771
  59.5756986  88.7879370  53.3538807  60.0239493  87.9495359  54.5320288
  68.9401398  80.2730617  61.4138262  69.2203152  79.6053806  62.0398688
  69.7252005  80.4659712  60.9012926  66.7434867  99.4489611  52.9763288
  66.1708834 100.0679798  52.5233760  67.3167660  99.9988972  53.5103210
  72.8110256  88.6948251  65.1609837  73.7627679  88.7946348  65.1822061
  72.6413707  87.9026519  65.6707921  70.8324636  85.7803834  65.3469238
  70.2374568  86.0608847  64.6515726  70.5474333  86.2697735  66.1185979
  69.9632126  99.7326761  54.1071870  70.8962800  99.6672323  54.3104746
  69.8755339 100.5683028  53.6486403  72.5920143  99.0492631  51.0675818
  72.5133775  98.7152495  51.9611576  73.4129810  99.5414399  51.0667290
  75.2898334  91.9154370  64.2752136  75.2574654  90.9770371  64.4611820
  75.8998958  91.9938407  63.5417961  67.1281665  90.7850423  50.3179341
  68.0740770  90.6556632  50.3867759  66.7495910  90.0465085  50.7948769
  75.4392823  88.7065414  64.3210420  74.9231871  87.9223871  64.1340349
  76.3232771  88.3784131  64.4856939  73.1003550  82.4506429  60.2806232
  72.9028371  82.1421518  61.1649564  73.7103255  83.1768068  60.4104162
  81.1074884  92.9770377  63.4158173  81.8378273  92.7155665  63.9765877
  80.4981830  92.2399099  63.4560241  79.1890181  91.1178240  64.0132624
  78.4623345  90.9834205  63.4049116  78.7737468  91.4255069  64.8189342
  67.0120358  94.8368170  71.7779997  67.9323367  95.0146769  71.9720044
  66.9769941  93.8924215  71.6259697  65.3124582  88.7100400  50.2534226
  64.4056038  88.4133513  50.3296939  65.5900563  88.4130218  49.3868512
  56.2302523  90.0306763  60.7033272  55.9105307  89.1772071  60.4107646
  55.6835951  90.2455341  61.4591239  60.0082430  92.7469204  64.4202779
  60.2268440  93.6786312  64.4390812  60.4208204  92.3877179  65.2057582
  66.9286648  83.2537290  56.4078467  66.1187376  82.9084375  56.7833713
  67.6171065  82.9444833  56.9966079  68.8577196  82.3315336  58.0302764
  69.4108235  82.7510790  58.6892787  69.0947283  81.4051084  58.0725720
  64.8810295  88.3202410  73.8105528  64.7807022  89.2696767  73.7417619
  64.6631838  87.9920649  72.9381598  64.0823367  85.5687335  50.3946205
  64.9442531  85.8942233  50.6542022  64.2673711  84.7818831  49.8819271
  56.0990783  93.6509675  62.6726394  55.4054254  93.2363628  62.1596348
  56.8463774  93.6930211  62.0759813  72.2356003  84.4415862  57.5381428
  71.6554672  85.1000666  57.1559480  71.9691936  83.6193206  57.1268845
  70.6859570  83.8420919  59.7402748  71.1859348  83.9537454  58.9317067
  71.3295178  83.5381972  60.3803557  64.7441566  91.7499549  72.6270589
  64.2608647  92.5499909  72.8334478  64.8302505  91.7607494  71.6738033
  58.0127525  93.5827929  60.5492409  57.9898213  93.6815616  59.5974292
  58.3228162  94.4293079  60.8709575  60.6714903  95.6404084  64.6639023
  61.6258157  95.6088026  64.5968955  60.4727427  95.1794707  65.4789249
  61.2614285  94.2105200  67.2309821  62.0807174  94.7049278  67.2544658
  61.5351093  93.2937168  67.2027388  71.0180881  86.6015952  56.5937776
  70.1306736  86.8865603  56.3757971  71.4334870  86.4409715  55.7465053
  74.3695417  86.6262473  60.3092115  75.1455808  87.1158925  60.5816732
  73.6443552  87.0520527  60.7663985  76.8067976  87.3390092  61.3666056
  77.4012467  87.0985828  60.6559364  76.8794560  86.6197223  61.9939592
  59.0265132 101.1823703  61.6809221  58.8919600 100.4224104  61.1147219
  58.6097194 101.9064603  61.2138010  70.1624095  96.3660627  50.6885796
  70.8659945  96.5710629  51.3043452  69.4386744  96.9337388  50.9534880
  70.9921905  92.1170488  56.8088066  70.9357106  92.5739039  55.9695699
  71.5450248  91.3561172  56.6310909  74.8026711  87.9060220  57.6338186
  74.5463645  87.5056855  58.4646394  74.1779579  88.6204014  57.5088325
  79.1139049  90.6456293  60.1409477  78.5538607  90.7149482  60.9141039
  78.5082552  90.4697278  59.4208973  62.1834258 102.0793020  61.8927664
  62.0666642 103.0238453  61.7906354  61.3626704 101.7766582  62.2813463
  72.0710792  96.8043156  52.7384256  72.9056396  96.3724354  52.5561731
  71.9095135  96.6325169  53.6661151  71.7256684  93.3075269  54.1040596
  71.6705488  93.1419541  53.1629040  71.1002740  94.0151302  54.2602785
  56.5149199  88.5443333  67.9302018  57.1608063  88.0342287  68.4189243
  56.3066350  89.2812015  68.5045443  69.0402592  95.6124181  73.4294158
  69.9093751  95.7864833  73.0680793  68.5609343  96.4318598  73.3069888
  65.0352810  82.8083378  53.6825914  65.0231480  83.7525218  53.8394185
  65.9276232  82.6253524  53.3885375  63.2088772 102.7321282  65.1083592
  64.1116018 102.7644892  65.4250087  62.9826142 101.8021733  65.1229928
  64.9642374 101.4852269  61.7693671  64.0138005 101.4854130  61.6558043
  65.2674860 100.7385003  61.2529705  68.8504929  79.4026155  57.9371851
  68.0837325  78.8484641  58.0828533  69.2615634  79.4748024  58.7986002
  60.8546690  85.6910951  72.0277032  61.7178152  85.3347755  72.2380357
  60.2812101  85.3524845  72.7152436  80.6995067 107.3212807  62.8339433
  81.3373477 107.2019554  62.1302773  80.5815910 108.2693651  62.8927385
  77.5084774 107.2740235  62.7700958  77.1703285 107.1581300  61.8821493
  78.3774542 106.8731400  62.7501964  73.3671589 109.1275711  58.7597849
  72.8036454 109.0365648  57.9914136  73.2523984 108.3075616  59.2400341
  77.9904557 108.4275087  68.7287163  77.9793197 108.0327885  67.8567667
  78.1525196 107.6941159  69.3220935  70.9136021 110.6226903  61.5982069
  71.7057313 110.2817728  61.1828368  71.1532671 110.7321878  62.5184222
  78.9471148 112.7946679  54.0712314  78.2959128 113.3800760  53.6846327
  79.7415511 113.3252874  54.1307351  72.8726775 109.8835816  54.4699448
  73.6457651 109.3364803  54.3312324  73.2252174 110.7480066  54.6813909
  74.7111818 111.2112199  67.6766347  74.4201684 112.1157829  67.5613013
  75.3468802 111.2528726  68.3910417  75.6368025 108.5889047  64.2667707
  76.2331597 108.3645069  63.5524670  75.6942996 107.8473793  64.8693155
  75.2093053 106.0428482  52.1017898  75.4618574 105.5210004  51.3401361
  74.2717612 105.8794628  52.2044581  80.2536336 105.0464261  59.9092641
  81.0399425 104.6283684  59.5583058  80.5175040 105.9510353  60.0774289
  80.4246413 110.4837111  54.6081298  79.7892246 110.5571738  55.3202202
  80.0943820 111.0730710  53.9300377  85.6544763 104.9839494  60.8125620
  86.3869935 104.4138711  61.0463449  84.8984119 104.5961094  61.2532125
  74.9289342 107.9456588  54.3042273  74.8125600 107.2701492  54.9723357
  75.0391602 107.4588962  53.4874426  77.2720883 107.4066735  58.0088962
  76.9079090 106.8797356  58.7201883  78.1287999 107.0165205  57.8355447
  83.1770183  98.6961068  65.2720228  82.8453508  99.5656479  65.0481443
  82.5815797  98.3797352  65.9514259  76.9126370 102.4356635  53.0050311
  77.0800772 103.3036872  53.3720782  76.7223539 102.5983917  52.0811600
  79.6701703 110.8973614  64.6716141  79.3702426 111.7998653  64.5631948
  79.3252762 110.6305797  65.5237294  73.1214184 107.3487411  60.7052845
  72.1964681 107.2163625  60.9130537  73.3698597 108.1281630  61.2022788
  83.0698847 103.4156154  62.3513578  82.1615724 103.3471563  62.0572339
  83.0186442 103.8928099  63.1795404  76.8915590 104.8914293  53.9896977
  76.7715216 105.3371343  54.8282458  76.1968179 105.2399610  53.4310515
  70.4822995 106.9920684  61.5396634  70.6115376 107.2455163  62.4536046
  69.8020447 107.5848392  61.2201289  74.6522483 117.6617934  57.6387109
  74.5746512 118.6125759  57.7175589  74.0484126 117.3163807  58.2962035
  77.1439712 104.8345800  70.2948475  76.3673046 105.3939720  70.2851340
  77.7830275 105.3202583  70.8163346  84.9360493 101.6172593  64.1291452
  84.2934873 101.9105126  63.4831247  84.4315422 101.5025513  64.9344649
  82.5900657 105.3635766  54.8177311  83.5018513 105.5963153  54.6425009
  82.0810304 105.9472810  54.2552390  75.3986085 107.6431253  69.8566442
  76.1400769 108.1816297  69.5801266  74.6923070 108.2697542  70.0137994
  80.8741424 109.7860394  68.4538604  81.2824780 109.3442804  67.7093236
  80.1518686 109.2113021  68.7072797  77.2272494 104.7233000  65.8272161
  78.0733690 105.1472414  65.9706810  77.1671132 104.0666625  66.5210724
  81.1970239 110.3461584  62.2090893  80.5679101 110.5107298  61.5066961
  80.8095901 110.7603194  62.9801857  85.0759471 111.2816022  59.5635257
  84.3910509 111.6614923  59.0132290  85.1603320 111.8911349  60.2967204
  80.3771940 102.3837369  67.4853335  80.1332872 103.1379429  66.9487610
  80.6531870 102.7622716  68.3200582  82.3310402 108.9275981  66.1630600
  82.5427298 109.5707741  65.4864981  82.2840151 108.0938298  65.6952530
  79.9336631 101.5393802  63.0667172  79.0721110 101.8375055  63.3583910
  79.9599066 101.7564201  62.1348205  76.7498201 110.0835992  59.4740978
  77.2136546 110.3623695  58.6845600  76.4854999 109.1819437  59.2914069
  73.6422282 109.6307474  62.4120741  74.2123639 110.0594742  61.7738226
  74.2330394 109.3490059  63.1104927  75.6867087 106.2059145  56.2830543
  76.3891130 106.6580188  56.7504469  75.3547715 105.5642964  56.9110436
  74.1347448 104.7970901  70.6581752  73.5046109 105.4787182  70.8917149
  74.0283536 104.6853983  69.7134891  69.4292421 104.4642697  61.5847677
  68.6391475 104.7200226  61.1087787  69.9203668 105.2791035  61.6899717
  83.4456230 111.8047937  64.3352957  84.2673674 111.4028124  64.0535639
  83.4418633 111.7016171  65.2869073  71.3807166 104.8287277  58.5431153
  70.5838330 104.9405971  59.0614649  71.1532758 105.1673929  57.6772044
  77.2112834 111.3531980  66.4913668  77.2757266 111.8152387  67.3271840
  76.5023758 110.7229345  66.6195978  67.7130124 104.7173188  64.0162667
  67.9638162 105.6020198  64.2820243  68.2489672 104.5377789  63.2437759
  91.5362223 108.1486685  60.6837929  90.7825932 107.5794083  60.5281933
  91.6709765 108.1149350  61.6308564  76.9260852 113.0200087  56.3592648
  76.7906526 113.8651623  56.7877496  77.4670664 113.2219365  55.5958582
  73.4128191  99.0991667  73.0207004  73.0195137  98.5457866  73.6954648
  74.2294331  99.4102246  73.4113521  70.3790249 110.5375525  56.9320573
  70.8914769 111.3318776  57.0826138  71.0312962 109.8401816  56.8654175
  72.1885134 113.6541282  59.0143327  72.3651762 114.5759246  58.8264310
  72.9841967 113.3399701  59.4437706  76.3296152 100.5149546  70.6127260
  77.0705866 101.1156699  70.5331723  76.5614075  99.7727184  70.0545303
  71.4737490 105.7005914  68.8905490  71.3591005 104.7991171  69.1912589
  70.6182008 105.9469610  68.5390306  78.5529328 113.6423654  70.4892990
  78.1093182 112.8560032  70.1713895  79.2146541 113.8302804  69.8236881
  73.3116449 115.1719455  65.0153669  73.8623874 115.0436519  64.2430663
  72.4727925 115.4714344  64.6648562  80.6510566 113.9226454  68.5174392
  80.6329041 114.7435335  68.0254661  81.5730486 113.7980529  68.7424533
  77.1083620 111.4370583  69.3597900  77.6411957 110.6758871  69.1297208
  76.5797701 111.1444235  70.1022054  80.2753315  96.5430649  64.8891542
  79.9317584  97.4332291  64.8130652  80.6432278  96.3532307  64.0261127
  68.3439166 108.8664180  57.7080144  69.1814388 109.2761188  57.4913852
  68.5217433 107.9263622  57.6780338  80.2403598 106.5339260  53.3963977
  79.7250221 107.3043865  53.6352364  79.9680906 105.8604396  54.0197038
  77.8250709 101.3788961  58.4549215  76.9692305 100.9895812  58.2754854
  78.2377661 101.4580922  57.5949001  79.3549855  98.9135304  62.8540775
  78.8514651  98.8765440  62.0408580  79.6480462  99.8228047  62.9137432
  75.5992741  98.9974034  61.8606957  76.4645738  98.8016843  61.5012846
  75.6670250  98.7684386  62.7876313  85.2137872 109.2871615  55.3317150
  84.4367315 108.9482774  54.8872312  85.8929353 109.2924238  54.6572115
  80.0289901 104.4066352  55.2223758  79.7240037 104.7212502  56.0733901
  80.9820343 104.4847772  55.2651091  78.4736333 110.5656576  56.8716712
  77.9457694 109.8309335  56.5589949  77.9723836 111.3431252  56.6256680
  83.4529179 108.7605596  61.9883758  82.7952853 109.4504858  62.0763887
  84.2569578 109.1502028  62.3317745  73.2055060 101.2276242  59.2323324
  73.7798812 101.0051424  58.4996516  73.7926043 101.2964937  59.9851925
  82.2634638 107.1149969  60.0387700  82.7766519 107.7479961  60.5409410
  82.9135862 106.5151164  59.6731060  73.5324648 103.2580703  53.2519209
  72.6961960 103.5955390  53.5728484  73.3929417 103.1229683  52.3146346
  75.5077728  98.1017491  57.9598393  74.8542140  97.7866508  57.3355008
  75.4658202  97.4793231  58.6858216  76.6188933 108.3836786  49.8751685
  75.7115995 108.1526039  50.0742834  77.1159965 107.5874405  50.0625667
  79.5257012 117.0934293  52.7948371  78.8518711 117.3965990  53.4033329
  79.9122834 117.8963374  52.4453828  78.7415468 104.5899424  62.2846041
  77.8238030 104.8114371  62.1267729  79.1575612 104.6645735  61.4257748
  79.5250516 105.9890840  57.4148721  80.2722335 106.5012237  57.1055843
  79.7942106 105.6674893  58.2753114  77.7977166 108.4849381  54.3975675
  76.8888386 108.2008414  54.4948145  77.8272250 108.9048459  53.5378982
  83.0296434 112.0955970  58.1666843  82.5758761 111.2546880  58.2232033
  82.3990401 112.7317369  58.5041623  81.9729353 103.0247956  59.3967510
  81.2352110 102.5125343  59.7277753  82.2256127 102.5848338  58.5850787
  81.4729373 113.9332467  59.1016661  81.7652347 114.4937524  58.3829026
  81.9827994 114.2261028  59.8569820  82.0740981  95.8024208  59.9909279
  82.3799858  94.9421572  59.7035195  82.7993586  96.3941829  59.7908273
  68.3665337 106.2054895  58.3790877  68.1689737 105.6124256  57.6541944
  67.8112001 105.9007105  59.0966816  76.3462060 106.0978001  60.4985471
  76.4010670 105.1451838  60.4227947  75.5353263 106.2537441  60.9826769
  77.4953254 110.0258125  51.7363754  77.0572684 109.3093983  51.2769391
  78.2363695 110.2534239  51.1748845  74.2854420 104.7155061  58.2575849
  73.4722286 105.0149232  58.6641042  74.7813415 104.3210750  58.9750332
  76.4362998 114.7112818  60.1910114  76.3939177 114.9373664  59.2618646
  77.3525697 114.4776193  60.3395915  79.8828632 105.1796886  67.0890743
  80.2378020 105.4068359  67.9485209  80.5300763 105.5115262  66.4667999
  85.6126369 108.3015322  57.7940072  85.4744268 108.4916918  56.8661262
  85.2562588 109.0634704  58.2508123  73.7768495 102.2873417  63.8737084
  74.4167874 102.1462176  63.1760048  72.9446026 102.0007930  63.4975686
  85.6395749 110.3691849  62.8051344  86.0732255 110.2767138  63.6534398
  86.3527329 110.3449349  62.1671360  74.5528799 111.5875847  59.9872077
  75.3469398 111.0926167  59.7854652  73.8420491 111.0593710  59.6239782
  79.3723644 113.9693943  64.3384444  79.4260666 114.5384879  65.1062160
  78.5038425 114.1395828  63.9738482  70.8611563 105.7318929  56.0631829
  69.9309151 105.6703384  56.2801792  70.9569035 105.2094882  55.2668471
  70.7797112 102.2573742  58.6510071  71.0403929 103.1719075  58.5419232
  71.6014284 101.7898184  58.8006684  72.2522037 103.6711499  65.8208896
  72.9245090 103.4628861  65.1721545  71.4251823 103.4733585  65.3814128
  86.5011298 110.4115549  65.3384229  86.6947188 111.3161360  65.5843504
  86.4011916 109.9522968  66.1722814  78.1547609 100.2973440  67.8374557
  77.5075524 100.9963389  67.7439033  78.9248624 100.7309584  68.2050805
  81.5626407 110.5622292  70.9125110  81.4111913 110.3332844  69.9955194
  81.5531086 111.5192893  70.9256455  78.3311743 108.1354205  65.8971376
  79.2603803 108.2865364  65.7240344  77.9102773 108.2238226  65.0420023
  77.1300075 112.1604869  63.6669914  76.9911161 111.7923654  64.5395852
  76.3414671 112.6752509  63.4953872  77.7248227 117.2613966  55.0095450
  77.8999983 116.7902009  55.8241073  77.0381015 117.8879732  55.2376711
  78.6805290 111.5386472  61.0558752  78.3455123 111.4987242  61.9516402
  78.1809236 110.8731188  60.5829162  72.6549534 106.9454102  66.5811333
  72.5169332 106.2134341  67.1822872  73.5654458 106.8563002  66.2995521
  81.6164482 108.8842506  51.3295811  80.9993652 108.1589334  51.2328864
  81.1480970 109.6451866  50.9862886  75.2831835 106.6574061  66.0695012
  75.9931453 106.0167253  66.0281631  75.2401143 106.9086956  66.9921193
  83.2718614 113.5941415  68.9901592  83.2131160 112.9100635  68.3232175
  83.6738132 114.3360405  68.5382218  73.9960769 103.6439279  67.8890652
  73.4598126 103.1930018  68.5412248  73.4077477 103.7785188  67.1461116
  72.2909312 120.4103328  61.7835311  72.5305911 121.0421853  62.4614329
  71.4478509 120.0591368  62.0700670  73.4063028 103.1027931  50.4517116
  72.5292494 102.9816731  50.0879362  73.8820781 102.3114009  50.1996004
  83.2736021 111.5580998  67.2215571  82.3862800 111.2206920  67.3441970
  83.8434572 110.8264030  67.4584337  64.9265168 107.8905090  60.5458623
  65.6136208 107.5766820  59.9579638  64.7713297 108.7946455  60.2725874
  69.7299890 102.7795287  64.9743646  69.6458079 102.1720956  64.2394056
  68.9082596 103.2704305  64.9753143  76.8037174 116.2182451  64.1876815
  76.7307346 117.0237422  64.6996119  76.3614567 116.4174417  63.3624836
  76.5926954 115.4554221  57.6979636  75.8094476 115.9975901  57.7917861
  77.2919699 115.9728201  58.0973877  79.9023604 101.2648850  60.3413841
  80.3992303 100.5118813  60.0214912  79.1310585 101.3013167  59.7757051
  87.7553361 106.9689216  61.9832133  87.7443238 107.8513931  61.6126066
  86.8870741 106.6160767  61.7886670  79.2635858 116.1169285  66.3434973
  79.9763830 116.7516750  66.2710875  78.7725886 116.2133151  65.5274975
  80.9853385 110.0220538  57.9152265  80.0509663 110.1422000  57.7456969
  81.1630053 109.1193004  57.6512275  76.4858573 103.4066233  60.0685526
  76.1156360 102.8537274  60.7566432  76.9817665 102.8024367  59.5160526
  84.3725936 105.8637857  58.4502299  84.8386388 106.6965848  58.3762602
  84.8233436 105.3982838  59.1547558  74.3147771 113.8663728  67.1640544
  75.0157231 114.5000211  67.3169938  73.8442886 114.2078460  66.4036183
  82.4402167 112.2081678  55.4488451  82.7162011 112.0938273  56.3582325
  81.5706666 111.8099163  55.4100624  82.3442599  98.2318444  62.4893200
  81.4305678  98.4622671  62.6575407  82.7735700  98.3156888  63.3407233
  82.1149057 106.4208336  64.9893094  81.4620507 106.6684243  64.3345547
  82.4929437 105.6072474  64.6555572  79.0756231 116.4568029  59.0921265
  79.2578626 115.6389685  59.5549017  79.8989217 116.6735721  58.6546155
  79.4098397 115.3836214  56.3536313  79.9386163 114.8728669  55.7406475
  79.6726616 115.0678744  57.2181846  78.1636630 107.1628147  71.4759131
  77.4877267 107.0622276  72.1461507  78.9864264 107.0067361  71.9395129
  69.9115489 113.4000083  64.0971647  70.4968926 112.6543771  64.2299551
  69.7140328 113.7104040  64.9808311  72.7654145 116.4351331  59.1134089
  72.0964520 116.9197458  58.6298129  72.6267014 116.6820551  60.0277468
  64.5033144 105.9705684  62.8176090  64.5417244 105.4369274  63.6113208
  63.9973437 105.4440889  62.1987067  76.9059413 118.4695074  65.7116747
  77.4577721 118.6326696  66.4765833  77.2465607 119.0599512  65.0396772
  71.8823906 100.8170224  66.3138632  71.9465233 101.6785055  65.9016030
  71.8191027 100.2044226  65.5810991  71.3576179 102.8893357  69.9611666
  71.9848218 102.5070434  70.5749191  70.5004098 102.6707559  70.3267359
  81.7570287 113.2956332  71.5665402  82.3010191 113.9086290  71.0720357
  81.1757132 113.8535910  72.0832415  68.1341722 104.6969786  55.8930021
  68.4295163 103.7880464  55.8397075  67.2329757 104.6757525  55.5711024
  80.0427800 116.4177050  62.6980430  79.9178940 115.6166790  62.1891375
  80.7006891 116.9123243  62.2094400  71.6635969 102.7725782  61.8757570
  70.9422554 103.3861750  61.7365043  72.4529224 103.3083547  61.7974216
  82.1062709 114.2186070  64.3259980  81.1593044 114.0991421  64.2538306
  82.4545482 113.3308568  64.4086241  74.4662282 100.1080209  68.1498222
  74.9896684 100.3542505  68.9124531  74.2474615 100.9400244  67.7301359
  69.8629563 102.3783883  56.0169346  69.5342269 101.4981262  55.8344452
  70.2168934 102.3231552  56.9045736  79.1109142 114.0138786  60.5264332
  78.9634104 113.0855494  60.7071902  79.9362636 114.0358877  60.0421407
  72.9771386 102.6656853  56.3844824  73.3167459 103.1942774  55.6623432
  73.4243507 103.0037259  57.1603391  82.7143264 114.8367345  61.6129205
  83.6389811 114.6310206  61.4753656  82.5458567 114.5883746  62.5218546
  75.6714827 101.0493904  65.8347892  75.3311648 100.2501717  66.2368572
  74.9653833 101.3495615  65.2624725  76.3231299  98.1343216  64.2875215
  77.1457368  97.6603695  64.1654105  76.5669363  98.9133700  64.7873901
  74.9639533 101.1631475  54.5838117  75.6847896 101.5412728  54.0801834
  74.3404838 101.8820352  54.6873095  79.1070656 101.8676624  55.5196449
  79.3234271 102.7501262  55.2185277  78.6264724 101.4762837  54.7902091
  73.8469878 104.8262337  62.0967194  73.7014458 105.1402640  62.9891475
  73.3695081 105.4447237  61.5438092  75.7066261 101.8164885  62.1448083
  75.6927829 100.9205978  61.8080381  76.4238689 101.8235549  62.7786369
  77.5592391 102.2502225  64.1901211  77.3010169 103.1719296  64.1885541
  77.0277432 101.8532660  64.8801675  82.5038580 115.3553012  56.9691296
  82.6775458 114.7899435  56.2165149  82.9967471 116.1553907  56.7870786
  68.3215540 107.3667681  65.0354855  67.7769008 108.1427489  65.1675129
  69.1994890 107.7138486  64.8773976  75.1103157 100.6979265  57.4135653
  75.2319068  99.7695911  57.6126541  74.8205199 100.7117951  56.5013969
  77.9794347  98.3834176  60.5502373  78.0016044  98.4473509  59.5954353
  78.3962406  97.5438684  60.7442879  88.3577971 108.1189435  58.5881596
  88.8009117 107.3696760  58.1900719  87.4804482 108.1099572  58.2055328
  83.4913753 114.6719777  54.0688194  84.1864657 115.2926469  54.2875509
  83.8336903 113.8215128  54.3440572  69.1081562 106.4937578  67.9285012
  68.3663298 106.6420213  68.5149642  68.7874306 106.7545843  67.0651761
  85.3905176 112.1219482  55.5975525  85.9156500 112.4606755  54.8724845
  85.3027528 111.1866498  55.4138660  77.0525224 116.0353556  67.7265402
  77.3612351 115.7902703  68.5988101  77.8500706 116.2400194  67.2384272
  77.0745836 118.1891466  59.9570778  76.6350827 117.6967844  60.6503635
  77.8253953 117.6464433  59.7162854  69.5538175 114.3803006  59.9595406
  70.3796195 114.0806778  59.5794050  69.2032227 113.6110629  60.4085195
  74.5219709 113.7329475  62.0293080  73.8999718 113.0700180  61.7295308
  75.1924576 113.7590606  61.3466728  67.7546780 112.2989333  60.9184340
  66.9178689 111.8711507  60.7368341  67.7270426 112.4921776  61.8555131
  74.5944236 102.2111263  71.6225586  74.6432392 103.0873385  71.2403356
  75.1366750 101.6688656  71.0497229  85.0799082 112.7552386  70.9026723
  84.2894625 112.7376525  70.3631223  84.8432436 113.2940680  71.6575760
  85.1996957 109.6044852  68.2159452  85.2494962 109.4394860  69.1574974
  85.0910880 108.7372111  67.8257332  74.0833216 112.2833398  55.5051541
  74.2321336 112.9668862  54.8518213  74.8899659 112.2638488  56.0200996
  82.4900719 105.5875780  69.5318758  83.3910582 105.4482245  69.2402756
  82.5648694 105.7530235  70.4716936  76.8243525 102.9642635  68.3771945
  75.9546834 103.2576201  68.1054533  77.0603005 103.5483080  69.0979208
  86.7015154 112.0241794  68.4601473  86.4099962 112.3871774  69.2964934
  86.0887285 111.3108802  68.2814805  87.9010836 109.5894674  60.9804043
  88.7357727 110.0284478  61.1441604  88.0369965 109.1133327  60.1612289
  84.9502342 107.1474408  66.9281531  85.4256463 107.3402055  66.1200383
  84.0267907 107.2033594  66.6824915  71.8385849 108.3098576  56.5112609
  71.5931890 107.4060906  56.7092820  72.0081763 108.3115726  55.5692087
  79.5282558  99.1822252  65.8937365  80.0464502  99.9183279  65.5683854
  79.1737691  99.4886245  66.7284124  71.1081496 104.0426933  54.0098771
  70.4150741 104.1171288  53.3538807  70.8633248 103.2787277  54.5320288
  79.7795153  95.6022534  61.4138262  80.0596906  94.9345724  62.0398688
  80.5645759  95.7951630  60.9012926  77.5828621 114.7781528  52.9763288
  77.0102588 115.3971716  52.5233760  78.1561415 115.3280890  53.5103210
  83.6504011 104.0240168  65.1609837  84.6021434 104.1238266  65.1822061
  83.4807461 103.2318437  65.6707921  81.6718390 101.1095752  65.3469238
  81.0768322 101.3900764  64.6515726  81.3868087 101.5989653  66.1185979
  80.8025881 115.0618679  54.1071870  81.7356554 114.9964240  54.3104746
  80.7149094 115.8974945  53.6486403  83.4313898 114.3784549  51.0675818
  83.3527529 114.0444412  51.9611576  84.2523564 114.8706317  51.0667290
  86.1292089 107.2446288  64.2752136  86.0968409 106.3062289  64.4611820
  86.7392712 107.3230325  63.5417961  77.9675420 106.1142341  50.3179341
  78.9134524 105.9848549  50.3867759  77.5889665 105.3757003  50.7948769
  86.2786577 104.0357332  64.3210420  85.7625626 103.2515788  64.1340349
  87.1626526 103.7076048  64.4856939  83.9397304  97.7798347  60.2806232
  83.7422125  97.4713435  61.1649564  84.5497010  98.5059986  60.4104162
  91.9468639 108.3062295  63.4158173  92.6772027 108.0447583  63.9765877
  91.3375584 107.5691017  63.4560241  90.0283936 106.4470158  64.0132624
  89.3017099 106.3126123  63.4049116  89.6131223 106.7546986  64.8189342
  77.8514112 110.1660087  71.7779997  78.7717122 110.3438686  71.9720044
  77.8163695 109.2216133  71.6259697  76.1518337 104.0392318  50.2534226
  75.2449792 103.7425430  50.3296939  76.4294318 103.7422136  49.3868512
  67.0696277 105.3598681  60.7033272  66.7499061 104.5063989  60.4107646
  66.5229705 105.5747259  61.4591239  70.8476185 108.0761122  64.4202779
  71.0662194 109.0078230  64.4390812  71.2601958 107.7169096  65.2057582
  77.7680402  98.5829207  56.4078467  76.9581131  98.2376292  56.7833713
  78.4564819  98.2736751  56.9966079  79.6970951  97.6607254  58.0302764
  80.2501989  98.0802707  58.6892787  79.9341037  96.7343002  58.0725720
  75.7204050 103.6494328  73.8105528  75.6200777 104.5988685  73.7417619
  75.5025592 103.3212567  72.9381598  74.9217121 100.8979253  50.3946205
  75.7836285 101.2234151  50.6542022  75.1067465 100.1110749  49.8819271
  66.9384537 108.9801592  62.6726394  66.2448009 108.5655545  62.1596348
  67.6857528 109.0222129  62.0759813  83.0749758  99.7707779  57.5381428
  82.4948427 100.4292583  57.1559480  82.8085690  98.9485124  57.1268845
  81.5253324  99.1712837  59.7402748  82.0253103  99.2829371  58.9317067
  82.1688932  98.8673890  60.3803557  75.5835320 107.0791467  72.6270589
  75.1002402 107.8791827  72.8334478  75.6696259 107.0899411  71.6738033
  68.8521280 108.9119846  60.5492409  68.8291968 109.0107533  59.5974292
  69.1621916 109.7584997  60.8709575  71.5108657 110.9696001  64.6639023
  72.4651911 110.9379944  64.5968955  71.3121181 110.5086625  65.4789249
  72.1008040 109.5397117  67.2309821  72.9200929 110.0341196  67.2544658
  72.3744847 108.6229085  67.2027388  81.8574636 101.9307870  56.5937776
  80.9700491 102.2157520  56.3757971  82.2728625 101.7701633  55.7465053
  85.2089172 101.9554391  60.3092115  85.9849562 102.4450843  60.5816732
  84.4837306 102.3812445  60.7663985  87.6461731 102.6682010  61.3666056
  88.2406221 102.4277746  60.6559364  87.7188314 101.9489140  61.9939592
  69.8658886 116.5115621  61.6809221  69.7313354 115.7516022  61.1147219
  69.4490949 117.2356521  61.2138010  81.0017849 111.6952544  50.6885796
  81.7053699 111.9002547  51.3043452  80.2780498 112.2629306  50.9534880
  81.8315660 107.4462406  56.8088066  81.7750861 107.9030957  55.9695699
  82.3844002 106.6853090  56.6310909  85.6420465 103.2352137  57.6338186
  85.3857400 102.8348773  58.4646394  85.0173334 103.9495931  57.5088325
  89.9532803 105.9748211  60.1409477  89.3932361 106.0441400  60.9141039
  89.3476307 105.7989195  59.4208973  73.0228012 117.4084938  61.8927664
  72.9060396 118.3530370  61.7906354  72.2020458 117.1058499  62.2813463
  82.9104547 112.1335073  52.7384256  83.7450151 111.7016272  52.5561731
  82.7488890 111.9617087  53.6661151  82.5650439 108.6367187  54.1040596
  82.5099243 108.4711458  53.1629040  81.9396494 109.3443220  54.2602785
  67.3542954 103.8735251  67.9302018  68.0001817 103.3634205  68.4189243
  67.1460105 104.6103933  68.5045443  79.8796346 110.9416099  73.4294158
  80.7487506 111.1156751  73.0680793  79.4003098 111.7610515  73.3069888
  75.8746564  98.1375296  53.6825914  75.8625234  99.0817136  53.8394185
  76.7669986  97.9545441  53.3885375  74.0482526 118.0613200  65.1083592
  74.9509773 118.0936810  65.4250087  73.8219896 117.1313651  65.1229928
  75.8036128 116.8144186  61.7693671  74.8531759 116.8146048  61.6558043
  76.1068614 116.0676921  61.2529705  79.6898684  94.7318072  57.9371851
  78.9231080  94.1776559  58.0828533  80.1009389  94.8039941  58.7986002
  71.6940445 101.0202868  72.0277032  72.5571906 100.6639673  72.2380357
  71.1205856 100.6816763  72.7152436  91.5388822 122.6504725  62.8339433
  92.1767232 122.5311472  62.1302773  91.4209665 123.5985569  62.8927385
  88.3478528 122.6032153  62.7700958  88.0097040 122.4873217  61.8821493
  89.2168296 122.2023318  62.7501964  84.2065344 124.4567629  58.7597849
  83.6430209 124.3657566  57.9914136  84.0917739 123.6367534  59.2400341
  88.8298311 123.7567004  68.7287163  88.8186952 123.3619803  67.8567667
  88.9918951 123.0233077  69.3220935  81.7529776 125.9518821  61.5982069
  82.5451068 125.6109645  61.1828368  81.9926426 126.0613796  62.5184222
  83.7120530 125.2127734  54.4699448  84.4851406 124.6656721  54.3312324
  84.0645929 126.0771983  54.6813909  85.5505572 126.5404116  67.6766347
  85.2595438 127.4449747  67.5613013  86.1862557 126.5820644  68.3910417
  86.4761779 123.9180965  64.2667707  87.0725351 123.6936987  63.5524670
  86.5336751 123.1765710  64.8693155  86.0486807 121.3720400  52.1017898
  86.3012328 120.8501921  51.3401361  85.1111367 121.2086546  52.2044581
  91.0930090 120.3756178  59.9092641  91.8793180 119.9575602  59.5583058
  91.3568795 121.2802271  60.0774289  91.2640168 125.8129029  54.6081298
  90.6286001 125.8863655  55.3202202  90.9337574 126.4022628  53.9300377
  96.4938517 120.3131412  60.8125620  97.2263689 119.7430628  61.0463449
  95.7377873 119.9253012  61.2532125  85.7683096 123.2748506  54.3042273
  85.6519354 122.5993409  54.9723357  85.8785356 122.7880880  53.4874426
  88.1114637 122.7358653  58.0088962  87.7472844 122.2089274  58.7201883
  88.9681753 122.3457122  57.8355447  94.0163938 114.0252986  65.2720228
  93.6847263 114.8948397  65.0481443  93.4209551 113.7089270  65.9514259
  87.7520124 117.7648553  53.0050311  87.9194526 118.6328789  53.3720782
  87.5617293 117.9275835  52.0811600  90.5095457 126.2265532  64.6716141
  90.2096180 127.1290571  64.5631948  90.1646517 125.9597715  65.5237294
  83.9607939 122.6779329  60.7052845  83.0358435 122.5455543  60.9130537
  84.2092352 123.4573548  61.2022788  93.9092601 118.7448072  62.3513578
  93.0009478 118.6763480  62.0572339  93.8580197 119.2220017  63.1795404
  87.7309345 120.2206210  53.9896977  87.6108970 120.6663261  54.8282458
  87.0361933 120.5691528  53.4310515  81.3216750 122.3212602  61.5396634
  81.4509131 122.5747081  62.4536046  80.6414201 122.9140310  61.2201289
  87.9833467 120.1637717  70.2948475  87.2066801 120.7231638  70.2851340
  88.6224030 120.6494500  70.8163346  95.7754247 116.9464510  64.1291452
  95.1328628 117.2397043  63.4831247  95.2709176 116.8317431  64.9344649
  93.4294411 120.6927683  54.8177311  94.3412267 120.9255070  54.6425009
  92.9204058 121.2764728  54.2552390  86.2379839 122.9723171  69.8566442
  86.9794524 123.5108215  69.5801266  85.5316825 123.5989460  70.0137994
  91.7135179 125.1152311  68.4538604  92.1218535 124.6734722  67.7093236
  90.9912440 124.5404939  68.7072797  88.0666249 120.0524918  65.8272161
  88.9127444 120.4764332  65.9706810  88.0064887 119.3958542  66.5210724
  92.0363993 125.6753502  62.2090893  91.4072856 125.8399216  61.5066961
  91.6489656 126.0895112  62.9801857  91.2165694 117.7129286  67.4853335
  90.9726626 118.4671347  66.9487610  91.4925625 118.0914634  68.3200582
  93.1704157 124.2567899  66.1630600  93.3821052 124.8999659  65.4864981
  93.1233905 123.4230215  65.6952530  90.7730386 116.8685719  63.0667172
  89.9114865 117.1666973  63.3583910  90.7992821 117.0856118  62.1348205
  87.5891955 125.4127910  59.4740978  88.0530301 125.6915613  58.6845600
  87.3248753 124.5111355  59.2914069  84.4816036 124.9599392  62.4120741
  85.0517393 125.3886660  61.7738226  85.0724148 124.6781976  63.1104927
  86.5260841 121.5351062  56.2830543  87.2284885 121.9872106  56.7504469
  86.1941470 120.8934881  56.9110436  84.9741203 120.1262819  70.6581752
  84.3439863 120.8079100  70.8917149  84.8677291 120.0145901  69.7134891
  80.2686175 119.7934615  61.5847677  79.4785229 120.0492144  61.1087787
  80.7597423 120.6082953  61.6899717  82.2200921 120.1579194  58.5431153
  81.4232084 120.2697889  59.0614649  81.9926513 120.4965847  57.6772044
  88.0506588 126.6823898  66.4913668  88.1151021 127.1444305  67.3271840
  87.3417512 126.0521262  66.6195978  78.5523878 120.0465106  64.0162667
  78.8031917 120.9312115  64.2820243  79.0883427 119.8669707  63.2437759
  87.7654606 128.3492005  56.3592648  87.6300281 129.1943541  56.7877496
  88.3064419 128.5511283  55.5958582  84.2521946 114.4283585  73.0207004
  83.8588891 113.8749783  73.6954648  85.0688086 114.7394163  73.4113521
  81.2184003 125.8667443  56.9320573  81.7308524 126.6610693  57.0826138
  81.8706716 125.1693734  56.8654175  83.0278888 128.9833199  59.0143327
  83.2045516 129.9051164  58.8264310  83.8235722 128.6691619  59.4437706
  87.1689907 115.8441464  70.6127260  87.9099620 116.4448617  70.5331723
  87.4007829 115.1019102  70.0545303  82.3131245 121.0297831  68.8905490
  82.1984760 120.1283088  69.1912589  81.4575762 121.2761528  68.5390306
  84.1510204 130.5011373  65.0153669  84.7017629 130.3728436  64.2430663
  83.3121679 130.8006262  64.6648562  87.9477375 126.7662501  69.3597900
  88.4805711 126.0050789  69.1297208  87.4191456 126.4736153  70.1022054
  91.1147070 111.8722567  64.8891542  90.7711339 112.7624209  64.8130652
  91.4826032 111.6824225  64.0261127  79.1832920 124.1956097  57.7080144
  80.0208142 124.6053106  57.4913852  79.3611188 123.2555540  57.6780338
  91.0797352 121.8631178  53.3963977  90.5643976 122.6335783  53.6352364
  90.8074661 121.1896314  54.0197038  88.6644463 116.7080879  58.4549215
  87.8086060 116.3187729  58.2754854  89.0771415 116.7872840  57.5949001
  90.1943610 114.2427222  62.8540775  89.6908406 114.2057357  62.0408580
  90.4874217 115.1519965  62.9137432  86.4386496 114.3265952  61.8606957
  87.3039493 114.1308760  61.5012846  86.5064005 114.0976304  62.7876313
  90.8683655 119.7358270  55.2223758  90.5633791 120.0504419  56.0733901
  91.8214098 119.8139690  55.2651091  89.3130087 125.8948493  56.8716712
  88.7851449 125.1601253  56.5589949  88.8117590 126.6723170  56.6256680
  84.0448815 116.5568160  59.2323324  84.6192567 116.3343341  58.4996516
  84.6319797 116.6256854  59.9851925  93.1028392 122.4441887  60.0387700
  93.6160274 123.0771878  60.5409410  93.7529616 121.8443082  59.6731060
  84.3718402 118.5872621  53.2519209  83.5355714 118.9247307  53.5728484
  84.2323172 118.4521601  52.3146346  86.3471483 113.4309409  57.9598393
  85.6935895 113.1158426  57.3355008  86.3051957 112.8085149  58.6858216
  87.4582687 123.7128704  49.8751685  86.5509749 123.4817957  50.0742834
  87.9553719 122.9166323  50.0625667  89.5809223 119.9191342  62.2846041
  88.6631784 120.1406289  62.1267729  89.9969367 119.9937653  61.4257748
  90.3644271 121.3182758  57.4148721  91.1116090 121.8304155  57.1055843
  90.6335860 120.9966811  58.2753114  88.6370921 123.8141299  54.3975675
  87.7282140 123.5300331  54.4948145  88.6666005 124.2340377  53.5378982
  92.8123108 118.3539874  59.3967510  92.0745865 117.8417260  59.7277753
  93.0649881 117.9140256  58.5850787  92.9134735 111.1316126  59.9909279
  93.2193612 110.2713490  59.7035195  93.6387340 111.7233746  59.7908273
  79.2059091 121.5346813  58.3790877  79.0083491 120.9416173  57.6541944
  78.6505755 121.2299023  59.0966816  87.1855815 121.4269919  60.4985471
  87.2404425 120.4743756  60.4227947  86.3747017 121.5829358  60.9826769
  88.3347009 125.3550042  51.7363754  87.8966439 124.6385901  51.2769391
  89.0757450 125.5826157  51.1748845  85.1248175 120.0446979  58.2575849
  84.3116040 120.3441149  58.6641042  85.6207169 119.6502668  58.9750332
  90.7222387 120.5088803  67.0890743  91.0771774 120.7360277  67.9485209
  91.3694518 120.8407180  66.4667999  84.6162250 117.6165334  63.8737084
  85.2561629 117.4754094  63.1760048  83.7839780 117.3299848  63.4975686
  85.3922554 126.9167765  59.9872077  86.1863152 126.4218085  59.7854652
  84.6814246 126.3885628  59.6239782  81.7005317 121.0610847  56.0631829
  80.7702905 120.9995302  56.2801792  81.7962789 120.5386799  55.2668471
  81.6190866 117.5865659  58.6510071  81.8797683 118.5010993  58.5419232
  82.4408038 117.1190102  58.8006684  83.0915791 119.0003417  65.8208896
  83.7638845 118.7920779  65.1721545  82.2645578 118.8025503  65.3814128
  88.9941363 115.6265358  67.8374557  88.3469278 116.3255307  67.7439033
  89.7642379 116.0601501  68.2050805  89.1705498 123.4646122  65.8971376
  90.0997558 123.6157282  65.7240344  88.7496528 123.5530143  65.0420023
  87.9693830 127.4896787  63.6669914  87.8304915 127.1215571  64.5395852
  87.1808426 128.0044426  63.4953872  89.5199045 126.8678390  61.0558752
  89.1848877 126.8279160  61.9516402  89.0202990 126.2023105  60.5829162
  83.4943289 122.2746020  66.5811333  83.3563087 121.5426258  67.1822872
  84.4048212 122.1854920  66.2995521  92.4558236 124.2134424  51.3295811
  91.8387407 123.4881252  51.2328864  91.9874725 124.9743784  50.9862886
  86.1225589 121.9865979  66.0695012  86.8325208 121.3459171  66.0281631
  86.0794897 122.2378874  66.9921193  84.8354523 118.9731197  67.8890652
  84.2991880 118.5221935  68.5412248  84.2471232 119.1077106  67.1461116
  84.2456782 118.4319848  50.4517116  83.3686249 118.3108649  50.0879362
  84.7214535 117.6405926  50.1996004  75.7658922 123.2197008  60.5458623
  76.4529962 122.9058738  59.9579638  75.6107051 124.1238373  60.2725874
  80.5693645 118.1087204  64.9743646  80.4851833 117.5012874  64.2394056
  79.7476351 118.5996223  64.9753143  90.7417358 116.5940768  60.3413841
  91.2386058 115.8410730  60.0214912  89.9704340 116.6305085  59.7757051
  91.8247139 125.3512455  57.9152265  90.8903418 125.4713918  57.7456969
  92.0023808 124.4484922  57.6512275  87.3252327 118.7358151  60.0685526
  86.9550115 118.1829191  60.7566432  87.8211420 118.1316284  59.5160526
  95.2119690 121.1929774  58.4502299  95.6780143 122.0257766  58.3762602
  95.6627191 120.7274756  59.1547558  85.1541526 129.1955646  67.1640544
  85.8550985 129.8292129  67.3169938  84.6836641 129.5370378  66.4036183
  93.1836353 113.5610361  62.4893200  92.2699433 113.7914588  62.6575407
  93.6129455 113.6448806  63.3407233  92.9542812 121.7500253  64.9893094
  92.3014262 121.9976161  64.3345547  93.3323192 120.9364392  64.6555572
  89.0030385 122.4920065  71.4759131  88.3271022 122.3914194  72.1461507
  89.8258019 122.3359278  71.9395129  80.7509244 128.7292001  64.0971647
  81.3362681 127.9835689  64.2299551  80.5534082 129.0395958  64.9808311
  83.6047899 131.7643248  59.1134089  82.9358274 132.2489376  58.6298129
  83.4660769 132.0112469  60.0277468  75.3426899 121.2997601  62.8176090
  75.3810998 120.7661192  63.6113208  74.8367191 120.7732807  62.1987067
  82.7217661 116.1462142  66.3138632  82.7858987 117.0076973  65.9016030
  82.6584781 115.5336143  65.5810991  82.1969933 118.2185274  69.9611666
  82.8241972 117.8362352  70.5749191  81.3397852 117.9999476  70.3267359
  78.9735476 120.0261703  55.8930021  79.2688917 119.1172382  55.8397075
  78.0723512 120.0049443  55.5711024  82.5029723 118.1017700  61.8757570
  81.7816309 118.7153668  61.7365043  83.2922979 118.6375465  61.7974216
  85.3056037 115.4372126  68.1498222  85.8290438 115.6834423  68.9124531
  85.0868370 116.2692161  67.7301359  80.7023318 117.7075801  56.0169346
  80.3736024 116.8273180  55.8344452  81.0562688 117.6523470  56.9045736
  83.8165141 117.9948771  56.3844824  84.1561213 118.5234692  55.6623432
  84.2637261 118.3329177  57.1603391  86.5108582 116.3785822  65.8347892
  86.1705402 115.5793635  66.2368572  85.8047588 116.6787532  65.2624725
  87.1625053 113.4635134  64.2875215  87.9851123 112.9895612  64.1654105
  87.4063117 114.2425618  64.7873901  85.8033288 116.4923392  54.5838117
  86.5241650 116.8704645  54.0801834  85.1798592 117.2112269  54.6873095
  89.9464411 117.1968541  55.5196449  90.1628025 118.0793179  55.2185277
  89.4658478 116.8054755  54.7902091  84.6863632 120.1554255  62.0967194
  84.5408213 120.4694558  62.9891475  84.2088836 120.7739155  61.5438092
  86.5460015 117.1456803  62.1448083  86.5321584 116.2497896  61.8080381
  87.2632443 117.1527466  62.7786369  88.3986146 117.5794143  64.1901211
  88.1403924 118.5011213  64.1885541  87.8671186 117.1824577  64.8801675
  79.1609294 122.6959599  65.0354855  78.6162762 123.4719407  65.1675129
  80.0388644 123.0430404  64.8773976  85.9496911 116.0271183  57.4135653
  86.0712822 115.0987829  57.6126541  85.6598953 116.0409869  56.5013969
  88.8188101 113.7126093  60.5502373  88.8409798 113.7765426  59.5954353
  89.2356160 112.8730602  60.7442879  79.9475316 121.8229495  67.9285012
  79.2057052 121.9712131  68.5149642  79.6268061 122.0837761  67.0651761
  80.3931930 129.7094924  59.9595406  81.2189950 129.4098696  59.5794050
  80.0425982 128.9402546  60.4085195  85.3613463 129.0621392  62.0293080
  84.7393472 128.3992097  61.7295308  86.0318330 129.0882524  61.3466728
  78.5940535 127.6281251  60.9184340  77.7572443 127.2003425  60.7368341
  78.5664180 127.8213694  61.8555131  85.4337991 117.5403180  71.6225586
  85.4826146 118.4165303  71.2403356  85.9760505 116.9980573  71.0497229
  84.9226970 127.6125316  55.5051541  85.0715090 128.2960780  54.8518213
  85.7293413 127.5930406  56.0200996  93.3294474 120.9167698  69.5318758
  94.2304336 120.7774163  69.2402756  93.4042448 121.0822153  70.4716936
  87.6637279 118.2934553  68.3771945  86.7940588 118.5868119  68.1054533
  87.8996759 118.8774998  69.0979208  95.7896096 122.4766326  66.9281531
  96.2650218 122.6693972  66.1200383  94.8661662 122.5325512  66.6824915
  82.6779603 123.6390493  56.5112609  82.4325645 122.7352823  56.7092820
  82.8475518 123.6407644  55.5692087  90.3676313 114.5114170  65.8937365
  90.8858257 115.2475197  65.5683854  90.0131446 114.8178163  66.7284124
  81.9475251 119.3718851  54.0098771  81.2544495 119.4463206  53.3538807
  81.7027002 118.6079194  54.5320288  90.6188907 110.9314452  61.4138262
  90.8990661 110.2637641  62.0398688  91.4039514 111.1243548  60.9012926
  94.4897765 119.3532086  65.1609837  95.4415188 119.4530184  65.1822061
  94.3201216 118.5610355  65.6707921  92.5112145 116.4387669  65.3469238
  91.9162077 116.7192682  64.6515726  92.2261842 116.9281570  66.1185979
  88.8069174 121.4434259  50.3179341  89.7528279 121.3140467  50.3867759
  88.4283419 120.7048921  50.7948769  97.1180332 119.3649249  64.3210420
  96.6019380 118.5807706  64.1340349  98.0020280 119.0367966  64.4856939
  94.7791059 113.1090265  60.2806232  94.5815880 112.8005353  61.1649564
  95.3890764 113.8351904  60.4104162  88.6907867 125.4952005  71.7779997
  89.6110876 125.6730604  71.9720044  88.6557450 124.5508050  71.6259697
  86.9912091 119.3684235  50.2534226  86.0843547 119.0717348  50.3296939
  87.2688072 119.0714053  49.3868512  77.9090032 120.6890599  60.7033272
  77.5892816 119.8355907  60.4107646  77.3623460 120.9039177  61.4591239
  81.6869939 123.4053040  64.4202779  81.9055949 124.3370147  64.4390812
  82.0995713 123.0461014  65.2057582  88.6074157 113.9121125  56.4078467
  87.7974885 113.5668210  56.7833713  89.2958574 113.6028669  56.9966079
  90.5364705 112.9899172  58.0302764  91.0895744 113.4094625  58.6892787
  90.7734792 112.0634920  58.0725720  86.5597804 118.9786245  73.8105528
  86.4594531 119.9280602  73.7417619  86.3419346 118.6504484  72.9381598
  85.7610876 116.2271170  50.3946205  86.6230040 116.5526069  50.6542022
  85.9461220 115.4402666  49.8819271  77.7778292 124.3093510  62.6726394
  77.0841763 123.8947463  62.1596348  78.5251283 124.3514047  62.0759813
  93.9143512 115.0999697  57.5381428  93.3342181 115.7584501  57.1559480
  93.6479445 114.2777041  57.1268845  92.3647079 114.5004755  59.7402748
  92.8646857 114.6121289  58.9317067  93.0082687 114.1965807  60.3803557
  86.4229074 122.4083384  72.6270589  85.9396156 123.2083744  72.8334478
  86.5090014 122.4191329  71.6738033  79.6915034 124.2411764  60.5492409
  79.6685722 124.3399451  59.5974292  80.0015671 125.0876915  60.8709575
  82.3502412 126.2987919  64.6639023  83.3045666 126.2671861  64.5968955
  82.1514936 125.8378543  65.4789249  82.9401794 124.8689035  67.2309821
  83.7594683 125.3633114  67.2544658  83.2138602 123.9521003  67.2027388
  92.6968390 117.2599787  56.5937776  91.8094245 117.5449438  56.3757971
  93.1122379 117.0993551  55.7465053  96.0482926 117.2846308  60.3092115
  96.8243317 117.7742761  60.5816732  95.3231061 117.7104362  60.7663985
  98.4855485 117.9973927  61.3666056  99.0799976 117.7569663  60.6559364
  98.5582069 117.2781058  61.9939592  80.7052641 131.8407538  61.6809221
  80.5707109 131.0807939  61.1147219  80.2884703 132.5648438  61.2138010
  92.6709414 122.7754323  56.8088066  92.6144615 123.2322875  55.9695699
  93.2237757 122.0145008  56.6310909  96.4814220 118.5644055  57.6338186
  96.2251154 118.1640691  58.4646394  95.8567088 119.2787849  57.5088325
  93.4044193 123.9659104  54.1040596  93.3492997 123.8003376  53.1629040
  92.7790249 124.6735137  54.2602785  78.1936708 119.2027169  67.9302018
  78.8395572 118.6926123  68.4189243  77.9853859 119.9395850  68.5045443
  86.7140319 113.4667213  53.6825914  86.7018989 114.4109053  53.8394185
  87.6063741 113.2837359  53.3885375  90.5292438 110.0609990  57.9371851
  89.7624834 109.5068477  58.0828533  90.9403143 110.1331859  58.7986002
  82.5334199 116.3494786  72.0277032  83.3965661 115.9931591  72.2380357
  81.9599610 116.0108681  72.7152436  26.5026296   7.6815341  49.5584740
  27.1404706   7.5622088  48.8548080  26.3847139   8.6296185  49.6172692
  23.3116002   7.6342769  49.4946264  22.9734514   7.5183834  48.6066799
  24.1805771   7.2333934  49.4747270  19.1702818   9.4878246  45.4843155
  18.6067683   9.3968183  44.7159443  19.0555213   8.6678150  45.9645648
  23.7935785   8.7877621  55.4532470  23.7824426   8.3930419  54.5812973
  23.9556425   8.0543694  56.0466241  16.7167250  10.9829437  48.3227376
  17.5088542  10.6420262  47.9073675  16.9563900  11.0924412  49.2429529
  24.7502377  13.1549213  40.7957620  24.0990357  13.7403294  40.4091634
  25.5446740  13.6855408  40.8552658  18.6758004  10.2438350  41.1944755
  19.4488880   9.6967338  41.0557630  19.0283403  11.1082600  41.4059216
  20.5143047  11.5714733  54.4011654  20.2232913  12.4760364  54.2858320
  21.1500031  11.6131260  55.1155723  21.4399253   8.9491581  50.9913013
  22.0362826   8.7247604  50.2769976  21.4974225   8.2076327  51.5938461
  21.0124282   6.4031017  38.8263204  21.2649802   5.8812538  38.0646667
  20.0748841   6.2397162  38.9289888  26.0567565   5.4066795  46.6337948
  26.8430654   4.9886218  46.2828365  26.3206269   6.3112887  46.8019596
  26.2277642  10.8439645  41.3326604  25.5923475  10.9174272  42.0447509
  25.8975048  11.4333244  40.6545684  31.4575992   5.3442028  47.5370926
  32.1901164   4.7741245  47.7708756  30.7015347   4.9563629  47.9777432
  20.7320571   8.3059123  41.0287579  20.6156829   7.6304026  41.6968664
  20.8422830   7.8191496  40.2119732  23.0752111   7.7669270  44.7334269
  22.7110319   7.2399891  45.4447190  23.9319227   7.3767739  44.5600754
  28.9801412  -0.9436398  51.9965535  28.6484737  -0.0740987  51.7726750
  28.3847025  -1.2600114  52.6759565  22.7157598   2.7959169  39.7295617
  22.8832001   3.6639406  40.0966088  22.5254767   2.9586451  38.8056906
  25.4732932  11.2576148  51.3961448  25.1733655  12.1601187  51.2877255
  25.1283991  10.9908331  52.2482600  18.9245413   7.7089945  47.4298152
  17.9995910   7.5766159  47.6375844  19.1729826   8.4884164  47.9268094
  28.8730075   3.7758688  49.0758885  27.9646953   3.7074097  48.7817646
  28.8217671   4.2530633  49.9040710  22.6946819   5.2516827  40.7142284
  22.5746445   5.6973878  41.5527764  21.9999408   5.6002145  40.1555822
  16.2854224   7.3523219  48.2641941  16.4146605   7.6057698  49.1781353
  15.6051675   7.9450927  47.9446596  20.4553711  18.0220469  44.3632415
  20.3777741  18.9728294  44.4420896  19.8515355  17.6766341  45.0207342
  22.9470941   5.1948334  57.0193782  22.1704275   5.7542254  57.0096647
  23.5861504   5.6805117  57.5408652  30.7391722   1.9775127  50.8536759
  30.0966102   2.2707660  50.2076553  30.2346650   1.8628047  51.6589955
  28.3931885   5.7238300  41.5422618  29.3049742   5.9565687  41.3670316
  27.8841533   6.3075344  40.9797697  21.2017313   8.0033787  56.5811749
  21.9431998   8.5418831  56.3046573  20.4954299   8.6300076  56.7383301
  26.6772653  10.1462928  55.1783911  27.0856009   9.7045338  54.4338543
  25.9549915   9.5715555  55.4318103  23.0303723   5.0835535  52.5517468
  23.8764918   5.5074948  52.6952117  22.9702361   4.4269159  53.2456031
  27.0001468  10.7064118  48.9336199  26.3710330  10.8709833  48.2312267
  26.6127130  11.1205728  49.7047164  30.8790700  11.6418556  46.2880563
  30.1941738  12.0217458  45.7377597  30.9634549  12.2513883  47.0212511
  26.1803169   2.7439903  54.2098641  25.9364100   3.4981964  53.6732917
  26.4563099   3.1225251  55.0445888  28.1341631   9.2878515  52.8875907
  28.3458527   9.9310275  52.2110288  28.0871380   8.4540832  52.4197837
  25.7367860   1.8996336  49.7912479  24.8752339   2.1977590  50.0829216
  25.7630295   2.1166735  48.8593512  22.5529430  10.4438527  46.1986285
  23.0167775  10.7226230  45.4090907  22.2886228   9.5421971  46.0159375
  19.4453511   9.9910008  49.1366048  20.0154868  10.4197276  48.4983532
  20.0361623   9.7092593  49.8350233  21.4898316   6.5661679  43.0075850
  22.1922359   7.0182723  43.4749776  21.1578944   5.9245498  43.6355743
  19.9378677   5.1573436  57.3827059  19.3077338   5.8389716  57.6162456
  19.8314765   5.0456517  56.4380197  29.2487459  12.1650471  51.0598264
  30.0704903  11.7630658  50.7780946  29.2449862  12.0618705  52.0114380
  23.0144063  11.7134514  53.2158975  23.0788495  12.1754921  54.0517146
  22.3054987  11.0831879  53.3441284  37.3393452   8.5089219  47.4083236
  36.5857161   7.9396617  47.2527240  37.4740993   8.4751884  48.3553870
  22.7292080  13.3802622  43.0837955  22.5937755  14.2254157  43.5122803
  23.2701893  13.5821899  42.3203889  16.1821478  10.8978060  43.6565880
  16.6945998  11.6921310  43.8071445  16.8344191  10.2004350  43.5899481
  17.9916362  14.0143816  45.7388633  18.1682991  14.9361781  45.5509617
  18.7873196  13.7002235  46.1683013  24.3560557  14.0026188  57.2138297
  23.9124411  13.2162567  56.8959202  25.0177770  14.1905339  56.5482188
  19.1147678  15.5321990  51.7398976  19.6655103  15.4039053  50.9675969
  18.2759154  15.8316879  51.3893868  26.4541795  14.2828988  55.2419698
  26.4360270  15.1037869  54.7499967  27.3761715  14.1583063  55.4669839
  22.9114849  11.7973117  56.0843207  23.4443186  11.0361406  55.8542515
  22.3828930  11.5046769  56.8267361  26.0434827   6.8941795  40.1209284
  25.5281450   7.6646399  40.3597671  25.7712135   6.2206931  40.7442345
  31.0169101   9.6474149  42.0562457  30.2398544   9.3085309  41.6117619
  31.6960582   9.6526772  41.3817422  25.8321130   4.7668887  41.9469065
  25.5271265   5.0815036  42.7979208  26.7851572   4.8450307  41.9896398
  24.2767562  10.9259110  43.5962019  23.7488923  10.1911870  43.2835256
  23.7755064  11.7033786  43.3501987  29.2560408   9.1208130  48.7129065
  28.5984082   9.8107392  48.8009194  30.0600807   9.5104562  49.0563051
  28.0665866   7.4752503  46.7633007  28.5797748   8.1082495  47.2654716
  28.7167090   6.8753699  46.3976367  22.4220162   8.7439320  36.5996992
  21.5147224   8.5128574  36.7988141  22.9191194   7.9476939  36.7870973
  25.3288241  17.4536827  39.5193678  24.6549939  17.7568524  40.1278636
  25.7154063  18.2565908  39.1699135  24.5446697   4.9501959  49.0091347
  23.6269259   5.1716906  48.8513035  24.9606841   5.0248269  48.1503055
  25.3281745   6.3493374  44.1394028  26.0753564   6.8614772  43.8301150
  25.5973335   6.0277427  44.9998421  23.6008395   8.8451915  41.1220982
  22.6919615   8.5610948  41.2193452  23.6303479   9.2650994  40.2624289
  28.8327663  12.4558505  44.8912149  28.3789990  11.6149414  44.9477340
  28.2021629  13.0919903  45.2286930  27.7760582   3.3850491  46.1212817
  27.0383339   2.8727877  46.4523059  28.0287356   2.9450872  45.3096094
  27.2760602  14.2935001  45.8261967  27.5683576  14.8540058  45.1074333
  27.7859222  14.5863562  46.5815127  22.1493289   6.4580536  47.2230777
  22.2041899   5.5054372  47.1473254  21.3384491   6.6139975  47.7072076
  23.2984483  10.3860659  38.4609060  22.8603913   9.6696518  38.0014698
  24.0394924  10.6136774  37.8994152  20.0885649   5.0757595  44.9821156
  19.2753515   5.3751766  45.3886348  20.5844643   4.6813284  45.6995638
  22.2394227  15.0715352  46.9155421  22.1970406  15.2976199  45.9863953
  23.1556926  14.8378727  47.0641222  25.6859861   5.5399420  53.8136050
  26.0409249   5.7670893  54.6730516  26.3331992   5.8717797  53.1913305
  31.4157598   8.6617856  44.5185379  31.2775496   8.8519452  43.5906568
  31.0593817   9.4237239  44.9753430  31.4426977  10.7294383  49.5296650
  31.8763484  10.6369672  50.3779704  32.1558558  10.7051883  48.8916666
  20.3560028  11.9478381  46.7117383  21.1500626  11.4528702  46.5099958
  19.6451720  11.4196245  46.3485089  25.1754872  14.3296477  51.0629751
  25.2291895  14.8987413  51.8307467  24.3069654  14.4998362  50.6983788
  32.3042527  10.7718083  52.0629536  32.4978417  11.6763894  52.3088811
  32.2043145  10.3125503  52.8968121  27.3657636  10.9224826  57.6370416
  27.2143142  10.6935378  56.7200500  27.3562315  11.8795428  57.6501761
  24.1342972   8.4956739  52.6216683  25.0635032   8.6467899  52.4485650
  23.7134002   8.5840760  51.7665329  22.9331304  12.5207403  50.3915221
  22.7942390  12.1526188  51.2641159  22.1445900  13.0355043  50.2199178
  23.5279456  17.6216500  41.7340757  23.7031212  17.1504543  42.5486380
  22.8412244  18.2482266  41.9622018  24.4836519  11.8989006  47.7804058
  24.1486352  11.8589776  48.6761708  23.9840465  11.2333722  47.3074469
  18.4580763   7.3056636  53.3056639  18.3200561   6.5736875  53.9068179
  19.3685686   7.2165536  53.0240827  27.4195711   9.2445040  38.0541118
  26.8024881   8.5191869  37.9574171  26.9512199  10.0054401  37.7108192
  21.0863064   7.0176595  52.7940319  21.7962682   6.3769788  52.7526938
  21.0432372   7.2689490  53.7166500  29.0749842  13.9543949  55.7146898
  29.0162388  13.2703169  55.0477481  29.4769361  14.6962939  55.2627524
  18.0940541  20.7705863  48.5080617  18.3337139  21.4024387  49.1859636
  17.2509738  20.4193903  48.7945976  29.0767250  11.9183533  53.9460878
  28.1894028  11.5809454  54.0687277  29.6465801  11.1866564  54.1829643
  22.6068403  16.5784985  50.9122121  22.5338574  17.3839957  51.4241426
  22.1645796  16.7776951  50.0870143  22.3958183  15.8156755  44.4224943
  21.6125705  16.3578435  44.5163167  23.0950928  16.3330735  44.8219184
  25.7054833   1.6251385  47.0659148  26.2023532   0.8721347  46.7460218
  24.9341814   1.6615701  46.5002357  33.5584590   7.3291750  48.7077440
  33.5474466   8.2116465  48.3371373  32.6901970   6.9763301  48.5131977
  25.0667087  16.4771819  53.0680280  25.7795059  17.1119284  52.9956181
  24.5757115  16.5735685  52.2520282  26.7884613  10.3823072  44.6397572
  25.8540892  10.5024534  44.4702276  26.9661282   9.4795539  44.3757581
  22.2889801   3.7668768  46.7930833  21.9187589   3.2139808  47.4811738
  22.7848894   3.1626901  46.2405833  30.1757165   6.2240391  45.1747606
  30.6417617   7.0568383  45.1007908  30.6264665   5.7585373  45.8792864
  20.1179000  14.2266263  53.8885851  20.8188460  14.8602746  54.0415245
  19.6474115  14.5680994  53.1281490  28.2433396  12.5684212  42.1733758
  28.5193240  12.4540807  43.0827632  27.3737895  12.1701697  42.1345931
  27.9180286   6.7810870  51.7138401  27.2651736   7.0286777  51.0590854
  28.2960666   5.9675008  51.3800878  24.8787460  16.8170563  45.8166571
  25.0609854  15.9992219  46.2794324  25.7020446  17.0338255  45.3791461
  25.2129625  15.7438748  43.0781620  25.7417392  15.2331203  42.4651782
  25.4757845  15.4281279  43.9427153  23.9667859   7.5230681  58.2004438
  23.2908496   7.4224810  58.8706813  24.7895493   7.3669895  58.6640435
  15.7146718  13.7602618  50.8216953  16.3000155  13.0146305  50.9544858
  15.5171557  14.0706574  51.7053617  18.5685373  16.7953865  45.8379396
  17.8995749  17.2799993  45.3543436  18.4298243  17.0423085  46.7522774
  22.7090642  18.8297609  52.4362054  23.2608950  18.9929230  53.2011139
  23.0496835  19.4202046  51.7642079  27.5601516  13.6558866  58.2910709
  28.1041420  14.2688824  57.7965663  26.9788361  14.2138444  58.8077722
  25.8459029  16.7779584  49.4225736  25.7210169  15.9769324  48.9136682
  26.5038120  17.2725777  48.9339706  27.9093938  14.5788604  51.0505286
  26.9624273  14.4593955  50.9783613  28.2576711  13.6911102  51.1331548
  24.9140371  14.3741320  47.2509639  24.7665333  13.4458028  47.4317209
  25.7393864  14.3961411  46.7666714  28.5174493  15.1969879  48.3374511
  29.4421040  14.9912740  48.1998962  28.3489796  14.9486280  49.2463853
  24.9101885   2.2279158  42.2441756  25.1265500   3.1103796  41.9430584
  24.4295952   1.8365371  41.5147398  19.6501107   5.1864871  48.8212500
  19.5045687   5.5005174  49.7136782  19.1726310   5.8049772  48.2683399
  28.3069809  15.7155547  43.6936603  28.4806686  15.1501969  42.9410455
  28.7998700  16.5156441  43.5116093  34.1609200   8.4791969  45.3126903
  34.6040346   7.7299295  44.9146026  33.2835710   8.4702106  44.9300635
  29.2944981  15.0322311  40.7933501  29.9895886  15.6529004  41.0120816
  29.6368132  14.1817662  41.0685879  31.1936405  12.4822016  42.3220832
  31.7187729  12.8209289  41.5970152  31.1058757  11.5469032  42.1383966
  22.8556453  16.3956090  54.4510708  23.1643580  16.1505237  55.3233408
  23.6531935  16.6002729  53.9629579  22.8777065  18.5494000  46.6816085
  22.4382056  18.0570378  47.3748942  23.6285182  18.0066967  46.4408160
  15.3569404  14.7405541  46.6840713  16.1827424  14.4409312  46.3039357
  15.0063456  13.9713163  47.1330502  20.3250937  14.0932009  48.7538387
  19.7030947  13.4302714  48.4540615  20.9955804  14.1193141  48.0712034
  13.5578009  12.6591867  47.6429647  12.7209918  12.2314041  47.4613648
  13.5301655  12.8524310  48.5800438  30.8830311  13.1154920  57.6272030
  30.0925854  13.0979059  57.0876529  30.6463665  13.6543214  58.3821066
  31.0028186   9.9647386  54.9404758  31.0526191   9.7997394  55.8820281
  30.8942109   9.0974645  54.5502639  19.8864444  12.6435932  42.2296847
  20.0352565  13.3271397  41.5763520  20.6930888  12.6241022  42.7446303
  28.2931948   5.9478314  56.2564065  29.1941811   5.8084779  55.9648063
  28.3679923   6.1132769  57.1962242  22.6274753   3.3245169  55.1017251
  21.7578063   3.6178735  54.8299840  22.8634234   3.9085614  55.8224515
  32.5046382  12.3844328  55.1846780  32.2131191  12.7474309  56.0210241
  31.8918514  11.6711336  55.0060112  33.7042065   9.9497208  47.7049350
  34.5388956  10.3887012  47.8686910  33.8401194   9.4735861  46.8857596
  30.7533571   7.5076943  53.6526838  31.2287692   7.7004589  52.8445689
  29.8299136   7.5636128  53.4070222  17.6417077   8.6701110  43.2357916
  17.3963119   7.7663440  43.4338126  17.8112992   8.6718260  42.2937394
  23.3859850  15.1384063  39.7008595  22.8133817  15.7574250  39.2479067
  23.9592644  15.6883424  40.2348517  29.4535240   4.3842703  51.8855143
  30.4052663   4.4840800  51.9067367  29.2838690   3.5920971  52.3953228
  27.4749619   1.4698286  52.0714544  26.8799551   1.7503299  51.3761033
  27.1899316   1.9592187  52.8431285  26.6057110  15.4221213  40.8317177
  27.5387783  15.3566774  41.0350052  26.5180322  16.2577480  40.3731710
  29.2345126  14.7387083  37.7921124  29.1558758  14.4046947  38.6856882
  30.0554793  15.2308851  37.7912597  31.9323318   7.6048822  50.9997443
  31.8999638   6.6664823  51.1857127  32.5423941   7.6832859  50.2663268
  23.7706648   6.4744875  37.0424647  24.7165753   6.3451083  37.1113065
  23.3920893   5.7359537  37.5194075  32.0817806   4.3959866  51.0455726
  31.5656855   3.6118322  50.8585655  32.9657755   4.0678582  51.2102246
  29.7428533  -1.8599119  47.0051539  29.5453354  -2.1684030  47.8894871
  30.3528238  -1.1337480  47.1349469  37.7499867   8.6664829  50.1403480
  38.4803256   8.4050117  50.7011183  37.1406813   7.9293551  50.1805548
  35.8315164   6.8072692  50.7377931  35.1048328   6.6728657  50.1294423
  35.4162451   7.1149520  51.5434649  23.6545341  10.5262621  58.5025304
  24.5748350  10.7041220  58.6965351  23.6194924   9.5818667  58.3505003
  21.9549566   4.3994852  36.9779532  21.0481021   4.1027964  37.0542246
  22.2325547   4.1024670  36.1113819  16.6507413   8.4363656  51.1448085
  16.8693423   9.3680764  51.1636119  17.0633187   8.0771631  51.9302889
  21.5235279   4.0096862  60.5350834  21.4232006   4.9591219  60.4662925
  21.3056821   3.6815101  59.6626904  28.8780987   0.1310313  44.2626735
  28.2979656   0.7895117  43.8804787  28.6116919  -0.6912342  43.8514152
  27.3284553  -0.4684629  46.4648055  27.8284331  -0.3568094  45.6562374
  27.9720161  -0.7723576  47.1048863  21.3866549   7.4394001  59.3515896
  20.9033631   8.2394361  59.5579785  21.4727488   7.4501946  58.3983340
  14.6552508   9.2722380  47.2737715  14.6323197   9.3710068  46.3219598
  14.9653145  10.1187531  47.5954881  17.3139886  11.3298535  51.3884330
  18.2683140  11.2982478  51.3214261  17.1152410  10.8689159  52.2034556
  17.9039268   9.8999651  53.9555127  18.7232157  10.3943730  53.9789965
  18.1776076   8.9831620  53.9272695  27.6605865   2.2910404  43.3183083
  26.7731720   2.5760054  43.1003278  28.0759854   2.1304167  42.4710360
  31.0120401   2.3156925  47.0337422  31.7880791   2.8053377  47.3062039
  30.2868535   2.7414979  47.4909292  33.4492959   3.0284544  48.0911363
  34.0437450   2.7880280  47.3804671  33.5219543   2.3091675  48.7184899
  15.6690115  16.8718155  48.4054528  15.5344583  16.1118556  47.8392526
  15.2522177  17.5959055  47.9383316  26.8049078  12.0555078  37.4131103
  27.5084928  12.2605081  38.0288758  26.0811727  12.6231840  37.6780186
  27.6346888   7.8064940  43.5333373  27.5782090   8.2633491  42.6941005
  28.1875231   7.0455624  43.3556216  31.4451694   3.5954672  44.3583492
  31.1888629   3.1951307  45.1891700  30.8204562   4.3098466  44.2333632
  35.7564032   6.3350745  46.8654784  35.1963590   6.4043934  47.6386346
  35.1507536   6.1591729  46.1454280  18.8259241  17.7687472  48.6172970
  18.7091625  18.7132904  48.5151660  18.0051687  17.4661034  49.0058769
  28.7135776  12.4937608  39.4629563  29.5481379  12.0618806  39.2807038
  28.5520118  12.3219621  40.3906457  28.3681668   8.9969721  40.8285902
  28.3130471   8.8313992  39.8874346  27.7427723   9.7045754  40.9848092
  25.6827575  11.3018633  60.1539465  26.5518734  11.4759285  59.7926100
  25.2034326  12.1213050  60.0315194  19.8513755  18.4215734  51.8328899
  20.7541002  18.4539344  52.1495394  19.6251125  17.4916185  51.8475234
  21.6067357  17.1746720  48.4938977  20.6562988  17.1748582  48.3803350
  21.9099843  16.4279455  47.9775012  37.3420051  23.0107259  49.5584740
  37.9798461  22.8914006  48.8548080  37.2240893  23.9588103  49.6172692
  34.1509757  22.9634687  49.4946264  33.8128268  22.8475752  48.6066799
  35.0199525  22.5625852  49.4747270  30.0096573  24.8170163  45.4843155
  29.4461438  24.7260100  44.7159443  29.8948968  23.9970068  45.9645648
  34.6329540  24.1169539  55.4532470  34.6218181  23.7222337  54.5812973
  34.7950179  23.3835611  56.0466241  27.5561005  26.3121355  48.3227376
  28.3482296  25.9712180  47.9073675  27.7957655  26.4216330  49.2429529
  35.5896131  28.4841131  40.7957620  34.9384111  29.0695211  40.4091634
  36.3840494  29.0147326  40.8552658  29.5151758  25.5730268  41.1944755
  30.2882634  25.0259255  41.0557630  29.8677157  26.4374517  41.4059216
  31.3536801  26.9006650  54.4011654  31.0626667  27.8052281  54.2858320
  31.9893785  26.9423178  55.1155723  32.2793008  24.2783499  50.9913013
  32.8756580  24.0539521  50.2769976  32.3367979  23.5368244  51.5938461
  31.8518036  21.7322934  38.8263204  32.1043557  21.2104456  38.0646667
  30.9142595  21.5689080  38.9289888  36.8961319  20.7358713  46.6337948
  37.6824408  20.3178136  46.2828365  37.1600023  21.6404805  46.8019596
  37.0671396  26.1731563  41.3326604  36.4317229  26.2466189  42.0447509
  36.7368803  26.7625162  40.6545684  42.2969746  20.6733946  47.5370926
  43.0294918  20.1033163  47.7708756  41.5409102  20.2855546  47.9777432
  31.5714325  23.6351040  41.0287579  31.4550583  22.9595944  41.6968664
  31.6816585  23.1483414  40.2119732  33.9145866  23.0961187  44.7334269
  33.5504073  22.5691808  45.4447190  34.7712982  22.7059656  44.5600754
  39.8195167  14.3855520  51.9965535  39.4878491  15.2550931  51.7726750
  39.2240780  14.0691804  52.6759565  33.5551353  18.1251087  39.7295617
  33.7225755  18.9931323  40.0966088  33.3648522  18.2878369  38.8056906
  36.3126686  26.5868066  51.3961448  36.0127409  27.4893105  51.2877255
  35.9677746  26.3200249  52.2482600  29.7639168  23.0381863  47.4298152
  28.8389664  22.9058077  47.6375844  30.0123581  23.8176082  47.9268094
  39.7123830  19.1050606  49.0758885  38.8040707  19.0366015  48.7817646
  39.6611426  19.5822551  49.9040710  33.5340574  20.5808745  40.7142284
  33.4140199  21.0265795  41.5527764  32.8393162  20.9294062  40.1555822
  27.1247979  22.6815136  48.2641941  27.2540360  22.9349615  49.1781353
  26.4445430  23.2742844  47.9446596  31.2947466  33.3512386  44.3632415
  31.2171496  34.3020211  44.4420896  30.6909109  33.0058259  45.0207342
  33.7864696  20.5240252  57.0193782  33.0098030  21.0834172  57.0096647
  34.4255259  21.0097035  57.5408652  41.5785476  17.3067045  50.8536759
  40.9359857  17.5999578  50.2076553  41.0740405  17.1919965  51.6589955
  39.2325640  21.0530218  41.5422618  40.1443496  21.2857604  41.3670316
  38.7235287  21.6367262  40.9797697  32.0411068  23.3325705  56.5811749
  32.7825752  23.8710749  56.3046573  31.3348053  23.9591994  56.7383301
  37.5166408  25.4754846  55.1783911  37.9249764  25.0337256  54.4338543
  36.7943669  24.9007473  55.4318103  33.8697478  20.4127452  52.5517468
  34.7158673  20.8366866  52.6952117  33.8096115  19.7561077  53.2456031
  37.8395222  26.0356036  48.9336199  37.2104085  26.2001750  48.2312267
  37.4520884  26.4497646  49.7047164  41.7184454  26.9710474  46.2880563
  41.0335492  27.3509375  45.7377597  41.8028303  27.5805801  47.0212511
  37.0196923  18.0731821  54.2098641  36.7757855  18.8273881  53.6732917
  37.2956853  18.4517168  55.0445888  38.9735386  24.6170433  52.8875907
  39.1852281  25.2602193  52.2110288  38.9265134  23.7832750  52.4197837
  36.5761615  17.2288254  49.7912479  35.7146094  17.5269507  50.0829216
  36.6024049  17.4458653  48.8593512  33.3923184  25.7730444  46.1986285
  33.8561530  26.0518147  45.4090907  33.1279982  24.8713889  46.0159375
  30.2847265  25.3201926  49.1366048  30.8548622  25.7489194  48.4983532
  30.8755377  25.0384510  49.8350233  32.3292070  21.8953597  43.0075850
  33.0316114  22.3474640  43.4749776  31.9972699  21.2537415  43.6355743
  30.7772432  20.4865353  57.3827059  30.1471092  21.1681634  57.6162456
  30.6708520  20.3748435  56.4380197  26.0717404  20.1537149  48.3092983
  25.2816458  20.4094678  47.8333094  26.5628652  20.9685487  48.4145024
  40.0881214  27.4942388  51.0598264  40.9098657  27.0922576  50.7780946
  40.0843617  27.3910623  52.0114380  28.0232150  20.5181729  45.2676460
  27.2263313  20.6300423  45.7859956  27.7957742  20.8568381  44.4017350
  33.8537817  27.0426432  53.2158975  33.9182250  27.5046839  54.0517146
  33.1448741  26.4123797  53.3441284  24.3555107  20.4067640  50.7407974
  24.6063146  21.2914650  51.0065550  24.8914656  20.2272241  49.9683066
  48.1787207  23.8381137  47.4083236  47.4250915  23.2688535  47.2527240
  48.3134748  23.8043801  48.3553870  33.5685835  28.7094539  43.0837955
  33.4331510  29.5546075  43.5122803  34.1095647  28.9113817  42.3203889
  30.0553174  14.7886119  59.7452310  29.6620120  14.2352318  60.4199954
  30.8719315  15.0996698  60.1358828  27.0215232  26.2269977  43.6565880
  27.5339753  27.0213228  43.8071445  27.6737945  25.5296268  43.5899481
  28.8310117  29.3435734  45.7388633  29.0076745  30.2653698  45.5509617
  29.6266950  29.0294153  46.1683013  32.9721135  16.2043998  57.3372567
  33.7130849  16.8051151  57.2577029  33.2039058  15.4621636  56.7790609
  28.1162473  21.3900365  55.6150796  28.0015989  20.4885623  55.9157895
  27.2606991  21.6364062  55.2635613  35.1954311  29.3318106  57.2138297
  34.7518165  28.5454484  56.8959202  35.8571525  29.5197256  56.5482188
  29.9541432  30.8613907  51.7398976  30.5048857  30.7330971  50.9675969
  29.1152908  31.1608796  51.3893868  37.2935549  29.6120906  55.2419698
  37.2754025  30.4329787  54.7499967  38.2155469  29.4874981  55.4669839
  33.7508603  27.1265035  56.0843207  34.2836940  26.3653323  55.8542515
  33.2222685  26.8338687  56.8267361  36.9178298  12.2325101  51.6136848
  36.5742568  13.1226743  51.5375959  37.2857261  12.0426759  50.7506433
  24.9864149  24.5558632  44.4325451  25.8239371  24.9655640  44.2159158
  25.1642417  23.6158074  44.4025644  36.8828581  22.2233712  40.1209284
  36.3675205  22.9938317  40.3597671  36.6105890  21.5498848  40.7442345
  34.4675692  17.0683413  45.1794522  33.6117288  16.6790263  45.0000161
  34.8802644  17.1475374  44.3194307  35.9974839  14.6029756  49.5786082
  35.4939634  14.5659891  48.7653887  36.2905446  15.5122499  49.6382738
  32.2417725  14.6868486  48.5852263  33.1070721  14.4911295  48.2258153
  32.3095234  14.4578838  49.5121620  41.8562855  24.9766067  42.0562457
  41.0792298  24.6377226  41.6117619  42.5354336  24.9818690  41.3817422
  36.6714884  20.0960804  41.9469065  36.3665020  20.4106954  42.7979208
  37.6245326  20.1742224  41.9896398  35.1161316  26.2551028  43.5962019
  34.5882678  25.5203787  43.2835256  34.6148819  27.0325704  43.3501987
  40.0954162  24.4500048  48.7129065  39.4377837  25.1399310  48.8009194
  40.8994561  24.8396480  49.0563051  29.8480044  16.9170694  45.9568630
  30.4223796  16.6945875  45.2241823  30.4351026  16.9859388  46.7097231
  38.9059621  22.8044421  46.7633007  39.4191503  23.4374413  47.2654716
  39.5560845  22.2045616  46.3976367  30.1749631  18.9475155  39.9764515
  29.3386943  19.2849841  40.2973790  30.0354400  18.8124135  39.0391652
  32.1502711  13.7911943  44.6843700  31.4967124  13.4760960  44.0600314
  32.1083186  13.1687683  45.4103523  33.2613916  24.0731238  36.5996992
  32.3540978  23.8420491  36.7988141  33.7584948  23.2768857  36.7870973
  36.1681995  32.7828745  39.5193678  35.4943694  33.0860442  40.1278636
  36.5547817  33.5857825  39.1699135  35.3840452  20.2793876  49.0091347
  34.4663013  20.5008823  48.8513035  35.8000595  20.3540187  48.1503055
  36.1675500  21.6785292  44.1394028  36.9147319  22.1906689  43.8301150
  36.4367089  21.3569345  44.9998421  34.4402150  24.1743833  41.1220982
  33.5313369  23.8902866  41.2193452  34.4697234  24.5942911  40.2624289
  39.6721417  27.7850422  44.8912149  39.2183744  26.9441332  44.9477340
  39.0415384  28.4211821  45.2286930  38.6154337  18.7142408  46.1212817
  37.8777094  18.2019795  46.4523059  38.8681110  18.2742790  45.3096094
  38.1154356  29.6226919  45.8261967  38.4077331  30.1831976  45.1074333
  38.6252977  29.9155480  46.5815127  38.7165964  11.4918660  46.7154586
  39.0224841  10.6316024  46.4280501  39.4418569  12.0836281  46.5153580
  25.0090320  21.8949347  45.1036184  24.8114720  21.3018708  44.3787251
  24.4536984  21.5901557  45.8212123  32.9887044  21.7872453  47.2230777
  33.0435654  20.8346290  47.1473254  32.1778246  21.9431892  47.7072076
  34.1378238  25.7152576  38.4609060  33.6997667  24.9988435  38.0014698
  34.8788678  25.9428691  37.8994152  30.9279404  20.4049513  44.9821156
  30.1147269  20.7043684  45.3886348  31.4238398  20.0105202  45.6995638
  33.0787982  30.4007270  46.9155421  33.0364160  30.6268116  45.9863953
  33.9950680  30.1670645  47.0641222  36.5253615  20.8691338  53.8136050
  36.8803003  21.0962811  54.6730516  37.1725747  21.2009714  53.1913305
  42.2551352  23.9909773  44.5185379  42.1169251  24.1811369  43.5906568
  41.8987571  24.7529156  44.9753430  30.4193478  17.9767869  50.5982391
  31.0592858  17.8356628  49.9005354  29.5871009  17.6902382  50.2220993
  42.2820732  26.0586300  49.5296650  42.7157239  25.9661590  50.3779704
  42.9952313  26.0343801  48.8916666  31.1953782  27.2770299  46.7117383
  31.9894381  26.7820619  46.5099958  30.4845475  26.7488162  46.3485089
  36.0148627  29.6588395  51.0629751  36.0685649  30.2279331  51.8307467
  35.1463408  29.8290280  50.6983788  27.5036546  21.4213381  42.7877136
  26.5734134  21.3597836  43.0047098  27.5994018  20.8989334  41.9913777
  27.4222095  17.9468194  45.3755378  27.6828912  18.8613527  45.2664538
  28.2439267  17.4792636  45.5251991  28.8947020  19.3605951  52.5454202
  29.5670074  19.1523313  51.8966851  28.0676807  19.1628037  52.1059435
  43.1436281  26.1010001  52.0629536  43.3372172  27.0055812  52.3088811
  43.0436900  25.6417420  52.8968121  34.7972592  15.9867892  54.5619863
  34.1500507  16.6857841  54.4684340  35.5673608  16.4204036  54.9296111
  38.2051390  26.2516744  57.6370416  38.0536897  26.0227296  56.7200500
  38.1956070  27.2087345  57.6501761  34.9736727  23.8248657  52.6216683
  35.9028787  23.9759816  52.4485650  34.5527757  23.9132677  51.7665329
  33.7725058  27.8499321  50.3915221  33.6336144  27.4818105  51.2641159
  32.9839655  28.3646960  50.2199178  34.3673210  32.9508418  41.7340757
  34.5424966  32.4796461  42.5486380  33.6805998  33.5774184  41.9622018
  35.3230274  27.2280924  47.7804058  34.9880106  27.1881694  48.6761708
  34.8234219  26.5625640  47.3074469  29.2974517  22.6348554  53.3056639
  29.1594315  21.9028793  53.9068179  30.2079441  22.5457454  53.0240827
  38.2589465  24.5736958  38.0541118  37.6418636  23.8483786  37.9574171
  37.7905954  25.3346318  37.7108192  31.9256818  22.3468513  52.7940319
  32.6356437  21.7061705  52.7526938  31.8826126  22.5981408  53.7166500
  39.9143597  29.2835866  55.7146898  39.8556143  28.5995087  55.0477481
  40.3163115  30.0254856  55.2627524  30.6385752  19.3333731  54.6135959
  30.1023109  18.8824469  55.2657555  30.0502461  19.4679640  53.8706423
  28.9334296  36.0997780  48.5080617  29.1730894  36.7316304  49.1859636
  28.0903492  35.7485820  48.7945976  30.0488011  18.7922382  37.1762422
  29.1717477  18.6711183  36.8124669  30.5245764  18.0008461  36.9241311
  39.9161004  27.2475450  53.9460878  39.0287783  26.9101372  54.0687277
  40.4859555  26.5158482  54.1829643  21.5690151  23.5799542  47.2703929
  22.2561191  23.2661272  46.6824945  21.4138280  24.4840907  46.9971181
  26.3724873  18.4689739  51.6988953  26.2883062  17.8615408  50.9639363
  25.5507580  18.9598757  51.6998449  33.4462157  31.9076903  50.9122121
  33.3732329  32.7131874  51.4241426  33.0039551  32.1068869  50.0870143
  33.2351937  31.1448673  44.4224943  32.4519459  31.6870353  44.5163167
  33.9344682  31.6622652  44.8219184  36.5448587  16.9543302  47.0659148
  37.0417287  16.2013265  46.7460218  35.7735569  16.9907619  46.5002357
  44.3978345  22.6583668  48.7077440  44.3868221  23.5408383  48.3371373
  43.5295724  22.3055219  48.5131977  35.9060841  31.8063737  53.0680280
  36.6188813  32.4411202  52.9956181  35.4150870  31.9027603  52.2520282
  37.6278368  25.7114989  44.6397572  36.6934647  25.8316452  44.4702276
  37.8055036  24.8087456  44.3757581  33.1283556  19.0960685  46.7930833
  32.7581343  18.5431726  47.4811738  33.6242648  18.4918819  46.2405833
  41.0150919  21.5532309  45.1747606  41.4811371  22.3860300  45.1007908
  41.4658420  21.0877290  45.8792864  30.9572755  29.5558180  53.8885851
  31.6582214  30.1894663  54.0415245  30.4867870  29.8972912  53.1281490
  39.0827150  27.8976130  42.1733758  39.3586994  27.7832725  43.0827632
  38.2131649  27.4993615  42.1345931  38.9867582  13.9212896  49.2138507
  38.0730662  14.1517123  49.3820714  39.4160683  14.0051340  50.0652539
  38.7574040  22.1102788  51.7138401  38.1045491  22.3578695  51.0590854
  39.1354420  21.2966926  51.3800878  35.7181214  32.1462481  45.8166571
  35.9003609  31.3284137  46.2794324  36.5414200  32.3630173  45.3791461
  36.0523380  31.0730666  43.0781620  36.5811146  30.5623121  42.4651782
  36.3151599  30.7573196  43.9427153  34.8061614  22.8522599  58.2004438
  34.1302251  22.7516728  58.8706813  35.6289247  22.6961812  58.6640435
  26.5540473  29.0894535  50.8216953  27.1393909  28.3438223  50.9544858
  26.3565311  29.3998492  51.7053617  29.4079128  32.1245783  45.8379396
  28.7389503  32.6091910  45.3543436  29.2691998  32.3715003  46.7522774
  21.1458127  21.6600135  49.5421397  21.1842227  21.1263726  50.3358515
  20.6398420  21.1335341  48.9232374  33.5484396  34.1589526  52.4362054
  34.1002704  34.3221148  53.2011139  33.8890590  34.7493964  51.7642079
  28.5248890  16.5064676  53.0383939  28.5890216  17.3679507  52.6261337
  28.4616010  15.8938678  52.3056297  28.0001162  18.5787809  56.6856973
  28.6273201  18.1964886  57.2994497  27.1429081  18.3602010  57.0512666
  38.3995271  28.9850784  58.2910709  38.9435175  29.5980742  57.7965663
  37.8182116  29.5430362  58.8077722  24.7766705  20.3864238  42.6175328
  25.0720146  19.4774916  42.5642382  23.8754741  20.3651977  42.2956330
  36.6852784  32.1071502  49.4225736  36.5603923  31.3061242  48.9136682
  37.3431875  32.6017695  48.9339706  28.3060952  18.4620234  48.6002876
  27.5847538  19.0756202  48.4610350  29.0954208  18.9977999  48.5219522
  38.7487692  29.9080522  51.0505286  37.8018028  29.7885873  50.9783613
  39.0970465  29.0203020  51.1331548  31.1087265  15.7974661  54.8743528
  31.6321667  16.0436957  55.6369838  30.8899599  16.6294696  54.4546666
  26.5054546  18.0678335  42.7414653  26.1767253  17.1875714  42.5589759
  26.8593917  18.0126004  43.6291042  35.7534125  29.7033238  47.2509639
  35.6059088  28.7749945  47.4317209  36.5787619  29.7253329  46.7666714
  29.6196370  18.3551305  43.1090131  29.9592442  18.8837226  42.3868739
  30.0668490  18.6931711  43.8848697  39.3568247  30.5261797  48.3374511
  40.2814795  30.3204658  48.1998962  39.1883551  30.2778198  49.2463853
  32.3139810  16.7388356  52.5593199  31.9736631  15.9396169  52.9613879
  31.6078817  17.0390067  51.9870032  32.9656282  13.8237668  51.0120522
  33.7882352  13.3498146  50.8899412  33.2094346  14.6028152  51.5119208
  31.6064517  16.8525927  41.3083423  32.3272879  17.2307179  40.8047140
  30.9829821  17.5714803  41.4118401  35.7495640  17.5571076  42.2441756
  35.9659254  18.4395714  41.9430584  35.2689707  17.1657289  41.5147398
  30.4894861  20.5156789  48.8212500  30.3439442  20.8297092  49.7136782
  30.0120065  21.1341689  48.2683399  32.3491244  17.5059337  48.8693390
  32.3352813  16.6100430  48.5325688  33.0663672  17.5130001  49.5031676
  34.2017375  17.9396677  50.9146517  33.9435152  18.8613748  50.9130848
  33.6702415  17.5427112  51.6046982  39.1463563  31.0447464  43.6936603
  39.3200441  30.4793887  42.9410455  39.6392455  31.8448359  43.5116093
  24.9640523  23.0562133  51.7600162  24.4193991  23.8321941  51.8920436
  25.8419873  23.4032938  51.6019283  31.7528140  16.3873717  44.1380960
  31.8744051  15.4590363  44.3371848  31.4630182  16.4012403  43.2259276
  34.6219330  14.0728628  47.2747680  34.6441027  14.1367961  46.3199660
  35.0387389  13.2333136  47.4688186  45.0002955  23.8083887  45.3126903
  45.4434101  23.0591212  44.9146026  44.1229465  23.7994023  44.9300635
  40.1338736  30.3614229  40.7933501  40.8289641  30.9820921  41.0120816
  40.4761886  29.5109580  41.0685879  25.7506545  22.1832030  54.6530318
  25.0088281  22.3314665  55.2394949  25.4299289  22.4440295  53.7897068
  42.0330159  27.8113934  42.3220832  42.5581483  28.1501207  41.5970152
  41.9452512  26.8760949  42.1383966  33.6950208  31.7248008  54.4510708
  34.0037334  31.4797155  55.3233408  34.4925690  31.9294646  53.9629579
  33.7170820  33.8785917  46.6816085  33.2775810  33.3862296  47.3748942
  34.4678937  33.3358885  46.4408160  26.1963159  30.0697458  46.6840713
  27.0221179  29.7701230  46.3039357  25.8457211  29.3005081  47.1330502
  31.1644692  29.4223926  48.7538387  30.5424701  28.7594632  48.4540615
  31.8349559  29.4485058  48.0712034  24.3971764  27.9883785  47.6429647
  23.5603672  27.5605959  47.4613648  24.3695409  28.1816228  48.5800438
  31.2369219  17.9005715  58.3470893  31.2857375  18.7767837  57.9648662
  31.7791734  17.3583108  57.7742536  41.7224065  28.4446838  57.6272030
  40.9319609  28.4270977  57.0876529  41.4857420  28.9835131  58.3821066
  41.8421940  25.2939304  54.9404758  41.8919945  25.1289312  55.8820281
  41.7335863  24.4266563  54.5502639  30.7258199  27.9727850  42.2296847
  30.8746319  28.6563314  41.5763520  31.5324642  27.9532940  42.7446303
  39.1325703  21.2770232  56.2564065  40.0335565  21.1376697  55.9648063
  39.2073677  21.4424687  57.1962242  33.4668508  18.6537087  55.1017251
  32.5971817  18.9470653  54.8299840  33.7027988  19.2377532  55.8224515
  43.3440137  27.7136246  55.1846780  43.0524945  28.0766226  56.0210241
  42.7312268  27.0003254  55.0060112  44.5435819  25.2789125  47.7049350
  45.3782711  25.7178930  47.8686910  44.6794948  24.8027779  46.8857596
  41.5927325  22.8368860  53.6526838  42.0681447  23.0296507  52.8445689
  40.6692891  22.8928046  53.4070222  28.4810832  23.9993027  43.2357916
  28.2356874  23.0955357  43.4338126  28.6506746  24.0010178  42.2937394
  36.1707542  14.8716704  52.6182672  36.6889486  15.6077731  52.2929160
  35.8162674  15.1780697  53.4529431  27.7506479  19.7321385  40.7344078
  27.0575724  19.8065740  40.0784114  27.5058231  18.9681729  41.2565595
  36.4220136  11.2916986  48.1383568  36.7021890  10.6240175  48.7643995
  37.2070743  11.4846082  47.6258232  34.2253604  30.4675980  39.7008595
  33.6527571  31.0866167  39.2479067  34.7986398  31.0175342  40.2348517
  40.2928994  19.7134620  51.8855143  41.2446417  19.8132718  51.9067367
  40.1232445  18.9212889  52.3953228  38.3143374  16.7990204  52.0714544
  37.7193306  17.0795216  51.3761033  38.0293070  17.2884105  52.8431285
  37.4450864  30.7513130  40.8317177  38.3781537  30.6858692  41.0350052
  37.3574077  31.5869397  40.3731710  40.0738881  30.0679001  37.7921124
  39.9952512  29.7338864  38.6856882  40.8948548  30.5600769  37.7912597
  42.7717072  22.9340740  50.9997443  42.7393392  21.9956741  51.1857127
  43.3817696  23.0124777  50.2663268  34.6100403  21.8036793  37.0424647
  35.5559508  21.6743001  37.1113065  34.2314648  21.0651455  37.5194075
  42.9211560  19.7251783  51.0455726  42.4050609  18.9410240  50.8585655
  43.8051509  19.3970500  51.2102246  40.5822287  13.4692799  47.0051539
  40.3847109  13.1607887  47.8894871  41.1921993  14.1954438  47.1349469
  48.5893622  23.9956747  50.1403480  49.3197010  23.7342035  50.7011183
  47.9800567  23.2585469  50.1805548  46.6708919  22.1364609  50.7377931
  45.9442083  22.0020574  50.1294423  46.2556206  22.4441438  51.5434649
  34.4939095  25.8554539  58.5025304  35.4142105  26.0333138  58.6965351
  34.4588678  24.9110585  58.3505003  32.7943320  19.7286769  36.9779532
  31.8874775  19.4319882  37.0542246  33.0719301  19.4316588  36.1113819
  23.7121260  21.0493133  47.4278579  23.3924045  20.1958441  47.1352953
  23.1654689  21.2641711  48.1836546  27.4901168  23.7655574  51.1448085
  27.7087178  24.6972682  51.1636119  27.9026942  23.4063548  51.9302889
  34.4105386  14.2723659  43.1323774  33.6006114  13.9270744  43.5079020
  35.0989803  13.9631203  43.7211385  36.3395934  13.3501706  44.7548070
  36.8926973  13.7697159  45.4138093  36.5766020  12.4237454  44.7971026
  32.3629033  19.3388780  60.5350834  32.2625760  20.2883137  60.4662925
  32.1450575  19.0107018  59.6626904  31.5642105  16.5873705  37.1191512
  32.4261269  16.9128603  37.3787329  31.7492449  15.8005201  36.6064577
  23.5809520  24.6696044  49.3971700  22.8872992  24.2549997  48.8841655
  24.3282511  24.7116581  48.8005119  39.7174741  15.4602231  44.2626735
  39.1373410  16.1187035  43.8804787  39.4510674  14.6379576  43.8514152
  38.1678307  14.8607289  46.4648055  38.6678086  14.9723823  45.6562374
  38.8113915  14.5568342  47.1048863  32.2260303  22.7685918  59.3515896
  31.7427385  23.5686279  59.5579785  32.3121242  22.7793863  58.3983340
  25.4946263  24.6014298  47.2737715  25.4716951  24.7001985  46.3219598
  25.8046899  25.4479449  47.5954881  28.1533641  26.6590453  51.3884330
  29.1076894  26.6274395  51.3214261  27.9546164  26.1981077  52.2034556
  28.7433023  25.2291569  53.9555127  29.5625912  25.7235648  53.9789965
  29.0169831  24.3123537  53.9272695  38.4999619  17.6202321  43.3183083
  37.6125474  17.9051972  43.1003278  38.9153608  17.4596085  42.4710360
  41.8514155  17.6448842  47.0337422  42.6274545  18.1345295  47.3062039
  41.1262289  18.0706897  47.4909292  44.2886714  18.3576462  48.0911363
  44.8831205  18.1172198  47.3804671  44.3613298  17.6383592  48.7184899
  26.5083870  32.2010073  48.4054528  26.3738338  31.4410474  47.8392526
  26.0915932  32.9250972  47.9383316  37.6442833  27.3846996  37.4131103
  38.3478683  27.5896999  38.0288758  36.9205481  27.9523758  37.6780186
  38.4740643  23.1356857  43.5333373  38.4175844  23.5925409  42.6941005
  39.0268985  22.3747542  43.3556216  42.2845449  18.9246589  44.3583492
  42.0282383  18.5243225  45.1891700  41.6598317  19.6390383  44.2333632
  46.5957787  21.6642663  46.8654784  46.0357345  21.7335852  47.6386346
  45.9901290  21.4883647  46.1454280  29.6652995  33.0979390  48.6172970
  29.5485380  34.0424822  48.5151660  28.8445442  32.7952951  49.0058769
  39.5529530  27.8229525  39.4629563  40.3875134  27.3910724  39.2807038
  39.3913873  27.6511539  40.3906457  39.2075422  24.3261639  40.8285902
  39.1524226  24.1605910  39.8874346  38.5821477  25.0337672  40.9848092
  23.9967937  19.5629703  54.6547324  24.6426801  19.0528657  55.1434550
  23.7885088  20.2998385  55.2290750  36.5221329  26.6310551  60.1539465
  37.3912489  26.8051203  59.7926100  36.0428081  27.4504967  60.0315194
  32.5171548  13.8269748  40.4071221  32.5050217  14.7711588  40.5639491
  33.4094970  13.6439893  40.1130682  30.6907510  33.7507652  51.8328899
  31.5934756  33.7831262  52.1495394  30.4644880  32.8208102  51.8475234
  32.4461112  32.5038638  48.4938977  31.4956743  32.5040500  48.3803350
  32.7493598  31.7571373  47.9775012  36.3323667  10.4212524  44.6617157
  35.5656063   9.8671011  44.8073840  36.7434372  10.4934393  45.5231309
  28.3365428  16.7097320  58.7522339  29.1996890  16.3534125  58.9625663
  27.7630839  16.3711215  59.4397743  48.1813805  38.3399176  49.5584740
  48.8192215  38.2205924  48.8548080  48.0634648  39.2880020  49.6172692
  44.9903511  38.2926605  49.4946264  44.6522023  38.1767669  48.6066799
  45.8593280  37.8917770  49.4747270  40.8490327  40.1462081  45.4843155
  40.2855192  40.0552018  44.7159443  40.7342722  39.3261985  45.9645648
  45.4723294  39.4461456  55.4532470  45.4611935  39.0514255  54.5812973
  45.6343934  38.7127529  56.0466241  38.3954759  41.6413273  48.3227376
  39.1876051  41.3004097  47.9073675  38.6351409  41.7508248  49.2429529
  46.4289886  43.8133049  40.7957620  45.7777866  44.3987129  40.4091634
  47.2234249  44.3439244  40.8552658  40.3545513  40.9022186  41.1944755
  41.1276389  40.3551173  41.0557630  40.7070912  41.7666435  41.4059216
  42.1930556  42.2298568  54.4011654  41.9020421  43.1344199  54.2858320
  42.8287540  42.2715096  55.1155723  43.1186762  39.6075417  50.9913013
  43.7150335  39.3831439  50.2769976  43.1761734  38.8660162  51.5938461
  42.6911791  37.0614852  38.8263204  42.9437311  36.5396373  38.0646667
  41.7536350  36.8980997  38.9289888  47.7355074  36.0650630  46.6337948
  48.5218163  35.6470053  46.2828365  47.9993778  36.9696722  46.8019596
  47.9065151  41.5023481  41.3326604  47.2710984  41.5758107  42.0447509
  47.5762557  42.0917079  40.6545684  53.1363501  36.0025864  47.5370926
  53.8688673  35.4325080  47.7708756  52.3802856  35.6147464  47.9777432
  42.4108079  38.9642958  41.0287579  42.2944338  38.2887861  41.6968664
  42.5210339  38.4775332  40.2119732  44.7539620  38.4253105  44.7334269
  44.3897828  37.8983726  45.4447190  45.6106736  38.0351574  44.5600754
  50.6588921  29.7147438  51.9965535  50.3272246  30.5842849  51.7726750
  50.0634534  29.3983722  52.6759565  44.3945107  33.4543005  39.7295617
  44.5619510  34.3223241  40.0966088  44.2042276  33.6170286  38.8056906
  47.1520441  41.9159984  51.3961448  46.8521164  42.8185022  51.2877255
  46.8071500  41.6492167  52.2482600  40.6032922  38.3673780  47.4298152
  39.6783419  38.2349995  47.6375844  40.8517335  39.1468000  47.9268094
  50.5517584  34.4342524  49.0758885  49.6434462  34.3657932  48.7817646
  50.5005180  34.9114469  49.9040710  44.3734328  35.9100662  40.7142284
  44.2533953  36.3557713  41.5527764  43.6786917  36.2585980  40.1555822
  37.9641733  38.0107054  48.2641941  38.0934114  38.2641533  49.1781353
  37.2839184  38.6034762  47.9446596  42.1341220  48.6804304  44.3632415
  42.0565250  49.6312129  44.4420896  41.5302864  48.3350176  45.0207342
  44.6258450  35.8532169  57.0193782  43.8491784  36.4126090  57.0096647
  45.2649013  36.3388952  57.5408652  52.4179231  32.6358962  50.8536759
  51.7753611  32.9291495  50.2076553  51.9134159  32.5211883  51.6589955
  50.0719394  36.3822135  41.5422618  50.9837251  36.6149522  41.3670316
  49.5629042  36.9659180  40.9797697  42.8804822  38.6617623  56.5811749
  43.6219507  39.2002667  56.3046573  42.1741808  39.2883912  56.7383301
  48.3560162  40.8046763  55.1783911  48.7643518  40.3629174  54.4338543
  47.6337424  40.2299391  55.4318103  44.7091232  35.7419370  52.5517468
  45.5552427  36.1658784  52.6952117  44.6489870  35.0852994  53.2456031
  48.6788977  41.3647954  48.9336199  48.0497839  41.5293668  48.2312267
  48.2914639  41.7789563  49.7047164  52.5578209  42.3002392  46.2880563
  51.8729247  42.6801293  45.7377597  52.6422058  42.9097718  47.0212511
  47.8590677  33.4023738  54.2098641  47.6151609  34.1565799  53.6732917
  48.1350608  33.7809086  55.0445888  49.8129140  39.9462351  52.8875907
  50.0246035  40.5894111  52.2110288  49.7658889  39.1124667  52.4197837
  47.4155369  32.5580171  49.7912479  46.5539848  32.8561425  50.0829216
  47.4417804  32.7750570  48.8593512  44.2316939  41.1022362  46.1986285
  44.6955284  41.3810065  45.4090907  43.9673737  40.2005807  46.0159375
  41.1241020  40.6493843  49.1366048  41.6942377  41.0781112  48.4983532
  41.7149132  40.3676428  49.8350233  43.1685825  37.2245514  43.0075850
  43.8709868  37.6766558  43.4749776  42.8366453  36.5829333  43.6355743
  41.6166186  35.8157271  57.3827059  40.9864847  36.4973552  57.6162456
  41.5102274  35.7040353  56.4380197  36.9111159  35.4829067  48.3092983
  36.1210213  35.7386595  47.8333094  37.4022406  36.2977405  48.4145024
  50.9274968  42.8234306  51.0598264  51.7492412  42.4214493  50.7780946
  50.9237371  42.7202540  52.0114380  38.8625904  35.8473646  45.2676460
  38.0657067  35.9592340  45.7859956  38.6351496  36.1860298  44.4017350
  44.6931572  42.3718349  53.2158975  44.7576004  42.8338757  54.0517146
  43.9842496  41.7415714  53.3441284  35.1948862  35.7359557  50.7407974
  35.4456900  36.6206567  51.0065550  35.7308410  35.5564159  49.9683066
  59.0180961  39.1673055  47.4083236  58.2644670  38.5980453  47.2527240
  59.1528502  39.1335719  48.3553870  44.4079589  44.0386457  43.0837955
  44.2725264  44.8837993  43.5122803  44.9489402  44.2405735  42.3203889
  40.8946929  30.1178037  59.7452310  40.5013875  29.5644235  60.4199954
  41.7113069  30.4288615  60.1358828  37.8608987  41.5561895  43.6565880
  38.3733507  42.3505145  43.8071445  38.5131700  40.8588185  43.5899481
  39.6703871  44.6727651  45.7388633  39.8470500  45.5945616  45.5509617
  40.4660705  44.3586070  46.1683013  43.8114890  31.5335916  57.3372567
  44.5524603  32.1343069  57.2577029  44.0432813  30.7913554  56.7790609
  38.9556228  36.7192283  55.6150796  38.8409743  35.8177540  55.9157895
  38.1000746  36.9655980  55.2635613  46.0348066  44.6610023  57.2138297
  45.5911920  43.8746402  56.8959202  46.6965279  44.8489174  56.5482188
  40.7935187  46.1905825  51.7398976  41.3442612  46.0622888  50.9675969
  39.9546663  46.4900714  51.3893868  48.1329304  44.9412823  55.2419698
  48.1147779  45.7621704  54.7499967  49.0549224  44.8166899  55.4669839
  44.5902358  42.4556953  56.0843207  45.1230695  41.6945241  55.8542515
  44.0616439  42.1630605  56.8267361  47.7572053  27.5617019  51.6136848
  47.4136322  28.4518660  51.5375959  48.1251015  27.3718676  50.7506433
  35.8257903  39.8850549  44.4325451  36.6633125  40.2947558  44.2159158
  36.0036171  38.9449991  44.4025644  47.7222336  37.5525630  40.1209284
  47.2068959  38.3230235  40.3597671  47.4499644  36.8790766  40.7442345
  45.3069447  32.3975331  45.1794522  44.4511043  32.0082181  45.0000161
  45.7196398  32.4767291  44.3194307  46.8368593  29.9321674  49.5786082
  46.3333389  29.8951809  48.7653887  47.1299200  30.8414417  49.6382738
  43.0811479  30.0160404  48.5852263  43.9464476  29.8203212  48.2258153
  43.1488988  29.7870755  49.5121620  52.6956610  40.3057985  42.0562457
  51.9186052  39.9669144  41.6117619  53.3748091  40.3110608  41.3817422
  47.5108639  35.4252722  41.9469065  47.2058774  35.7398871  42.7979208
  48.4639081  35.5034142  41.9896398  45.9555071  41.5842945  43.5962019
  45.4276432  40.8495705  43.2835256  45.4542573  42.3617622  43.3501987
  50.9347917  39.7791966  48.7129065  50.2771591  40.4691227  48.8009194
  51.7388316  40.1688398  49.0563051  40.6873798  32.2462612  45.9568630
  41.2617550  32.0237793  45.2241823  41.2744781  32.3151306  46.7097231
  49.7453375  38.1336338  46.7633007  50.2585257  38.7666330  47.2654716
  50.3954599  37.5337534  46.3976367  41.0143385  34.2767073  39.9764515
  40.1780698  34.6141759  40.2973790  40.8748155  34.1416052  39.0391652
  42.9896466  29.1203860  44.6843700  42.3360878  28.8052878  44.0600314
  42.9476940  28.4979601  45.4103523  44.1007671  39.4023156  36.5996992
  43.1934733  39.1712409  36.7988141  44.5978703  38.6060775  36.7870973
  47.0075750  48.1120663  39.5193678  46.3337448  48.4152360  40.1278636
  47.3941572  48.9149743  39.1699135  46.2234206  35.6085794  49.0091347
  45.3056768  35.8300741  48.8513035  46.6394350  35.6832105  48.1503055
  47.0069254  37.0077210  44.1394028  47.7541073  37.5198607  43.8301150
  47.2760844  36.6861262  44.9998421  45.2795904  39.5035750  41.1220982
  44.3707123  39.2194783  41.2193452  45.3090988  39.9234829  40.2624289
  50.5115172  43.1142340  44.8912149  50.0577499  42.2733250  44.9477340
  49.8809138  43.7503738  45.2286930  49.4548091  34.0434326  46.1212817
  48.7170848  33.5311712  46.4523059  49.7074865  33.6034708  45.3096094
  48.9548111  44.9518837  45.8261967  49.2471085  45.5123894  45.1074333
  49.4646731  45.2447398  46.5815127  49.5559719  26.8210578  46.7154586
  49.8618595  25.9607941  46.4280501  50.2812323  27.4128198  46.5153580
  35.8484075  37.2241265  45.1036184  35.6508474  36.6310625  44.3787251
  35.2930739  36.9193475  45.8212123  43.8280798  37.1164371  47.2230777
  43.8829408  36.1638207  47.1473254  43.0172000  37.2723810  47.7072076
  44.9771992  41.0444494  38.4609060  44.5391422  40.3280353  38.0014698
  45.7182433  41.2720609  37.8994152  41.7673158  35.7341431  44.9821156
  40.9541024  36.0335601  45.3886348  42.2632152  35.3397120  45.6995638
  43.9181736  45.7299188  46.9155421  43.8757915  45.9560034  45.9863953
  44.8344435  45.4962562  47.0641222  47.3647370  36.1983255  53.8136050
  47.7196758  36.4254728  54.6730516  48.0119501  36.5301632  53.1913305
  53.0945107  39.3201691  44.5185379  52.9563005  39.5103287  43.5906568
  52.7381326  40.0821074  44.9753430  41.2587233  33.3059786  50.5982391
  41.8986612  33.1648545  49.9005354  40.4264763  33.0194300  50.2220993
  53.1214486  41.3878218  49.5296650  53.5550993  41.2953507  50.3779704
  53.8346067  41.3635719  48.8916666  42.0347537  42.6062217  46.7117383
  42.8288135  42.1112537  46.5099958  41.3239229  42.0780080  46.3485089
  46.8542381  44.9880312  51.0629751  46.9079404  45.5571249  51.8307467
  45.9857163  45.1582197  50.6983788  38.3430300  36.7505298  42.7877136
  37.4127888  36.6889754  43.0047098  38.4387772  36.2281251  41.9913777
  38.2615849  33.2760111  45.3755378  38.5222667  34.1905445  45.2664538
  39.0833022  32.8084554  45.5251991  39.7340775  34.6897868  52.5454202
  40.4063828  34.4815231  51.8966851  38.9070561  34.4919954  52.1059435
  53.9830036  41.4301919  52.0629536  54.1765926  42.3347729  52.3088811
  53.8830654  40.9709338  52.8968121  45.6366347  31.3159809  54.5619863
  44.9894262  32.0149759  54.4684340  46.4067362  31.7495953  54.9296111
  49.0445145  41.5808662  57.6370416  48.8930651  41.3519213  56.7200500
  49.0349824  42.5379263  57.6501761  45.8130481  39.1540574  52.6216683
  46.7422541  39.3051734  52.4485650  45.3921511  39.2424595  51.7665329
  44.6118813  43.1791239  50.3915221  44.4729899  42.8110023  51.2641159
  43.8233409  43.6938878  50.2199178  45.2066965  48.2800335  41.7340757
  45.3818721  47.8088378  42.5486380  44.5199753  48.9066101  41.9622018
  46.1624028  42.5572841  47.7804058  45.8273861  42.5173611  48.6761708
  45.6627974  41.8917557  47.3074469  40.1368272  37.9640471  53.3056639
  39.9988070  37.2320710  53.9068179  41.0473195  37.8749372  53.0240827
  49.0983220  39.9028876  38.0541118  48.4812390  39.1775704  37.9574171
  48.6299708  40.6638236  37.7108192  42.7650573  37.6760431  52.7940319
  43.4750191  37.0353623  52.7526938  42.7219881  37.9273326  53.7166500
  50.7537351  44.6127784  55.7146898  50.6949897  43.9287004  55.0477481
  51.1556870  45.3546774  55.2627524  41.4779507  34.6625649  54.6135959
  40.9416864  34.2116387  55.2657555  40.8896215  34.7971557  53.8706423
  39.7728050  51.4289698  48.5080617  40.0124648  52.0608222  49.1859636
  38.9297247  51.0777738  48.7945976  40.8881766  34.1214300  37.1762422
  40.0111232  34.0003101  36.8124669  41.3639519  33.3300378  36.9241311
  50.7554759  42.5767368  53.9460878  49.8681537  42.2393290  54.0687277
  51.3253310  41.8450399  54.1829643  32.4083906  38.9091460  47.2703929
  33.0954946  38.5953190  46.6824945  32.2532034  39.8132824  46.9971181
  37.2118628  33.7981656  51.6988953  37.1276817  33.1907326  50.9639363
  36.3901334  34.2890675  51.6998449  44.2855912  47.2368820  50.9122121
  44.2126083  48.0423792  51.4241426  43.8433305  47.4360786  50.0870143
  44.0745692  46.4740590  44.4224943  43.2913213  47.0162271  44.5163167
  44.7738437  46.9914570  44.8219184  47.3842342  32.2835220  47.0659148
  47.8811041  31.5305182  46.7460218  46.6129323  32.3199537  46.5002357
  55.2372099  37.9875585  48.7077440  55.2261975  38.8700301  48.3371373
  54.3689479  37.6347136  48.5131977  46.7454595  47.1355654  53.0680280
  47.4582568  47.7703119  52.9956181  46.2544624  47.2319520  52.2520282
  48.4672122  41.0406907  44.6397572  47.5328401  41.1608370  44.4702276
  48.6448791  40.1379374  44.3757581  43.9677310  34.4252603  46.7930833
  43.5975098  33.8723643  47.4811738  44.4636403  33.8210736  46.2405833
  51.8544674  36.8824226  45.1747606  52.3205126  37.7152218  45.1007908
  52.3052174  36.4169208  45.8792864  41.7966509  44.8850098  53.8885851
  42.4975969  45.5186581  54.0415245  41.3261624  45.2264829  53.1281490
  49.9220905  43.2268048  42.1733758  50.1980749  43.1124642  43.0827632
  49.0525404  42.8285533  42.1345931  49.8261336  29.2504813  49.2138507
  48.9124416  29.4809040  49.3820714  50.2554438  29.3343257  50.0652539
  49.5967795  37.4394705  51.7138401  48.9439245  37.6870613  51.0590854
  49.9748175  36.6258844  51.3800878  46.5574969  47.4754399  45.8166571
  46.7397363  46.6576054  46.2794324  47.3807955  47.6922091  45.3791461
  46.8917134  46.4022584  43.0781620  47.4204901  45.8915038  42.4651782
  47.1545354  46.0865114  43.9427153  45.6455368  38.1814516  58.2004438
  44.9696005  38.0808646  58.8706813  46.4683002  38.0253730  58.6640435
  37.3934227  44.4186453  50.8216953  37.9787664  43.6730141  50.9544858
  37.1959066  44.7290410  51.7053617  40.2472882  47.4537700  45.8379396
  39.5783258  47.9383828  45.3543436  40.1085752  47.7006921  46.7522774
  31.9851882  36.9892053  49.5421397  32.0235981  36.4555644  50.3358515
  31.4792175  36.4627259  48.9232374  44.3878151  49.4881444  52.4362054
  44.9396459  49.6513065  53.2011139  44.7284344  50.0785882  51.7642079
  39.3642644  31.8356594  53.0383939  39.4283971  32.6971425  52.6261337
  39.3009764  31.2230595  52.3056297  38.8394917  33.9079726  56.6856973
  39.4666955  33.5256804  57.2994497  37.9822836  33.6893928  57.0512666
  49.2389025  44.3142701  58.2910709  49.7828929  44.9272660  57.7965663
  48.6575870  44.8722280  58.8077722  35.6160459  35.7156155  42.6175328
  35.9113900  34.8066834  42.5642382  34.7148495  35.6943895  42.2956330
  47.5246538  47.4363419  49.4225736  47.3997678  46.6353159  48.9136682
  48.1825629  47.9309613  48.9339706  39.1454706  33.7912152  48.6002876
  38.4241292  34.4048120  48.4610350  39.9347962  34.3269917  48.5219522
  49.5881447  45.2372439  51.0505286  48.6411782  45.1177791  50.9783613
  49.9364220  44.3494938  51.1331548  41.9481020  31.1266578  54.8743528
  42.4715422  31.3728875  55.6369838  41.7293353  31.9586613  54.4546666
  37.3448301  33.3970253  42.7414653  37.0161007  32.5167632  42.5589759
  37.6987672  33.3417922  43.6291042  46.5927880  45.0325156  47.2509639
  46.4452842  44.1041863  47.4317209  47.4181373  45.0545246  46.7666714
  40.4590124  33.6843223  43.1090131  40.7986197  34.2129144  42.3868739
  40.9062245  34.0223629  43.8848697  50.1962002  45.8553714  48.3374511
  51.1208549  45.6496576  48.1998962  50.0277305  45.6070116  49.2463853
  43.1533565  32.0680273  52.5593199  42.8130385  31.2688087  52.9613879
  42.4472571  32.3681984  51.9870032  43.8050037  29.1529586  51.0120522
  44.6276106  28.6790064  50.8899412  44.0488100  29.9320070  51.5119208
  42.4458271  32.1817844  41.3083423  43.1666634  32.5599097  40.8047140
  41.8223575  32.9006721  41.4118401  46.5889394  32.8862993  42.2441756
  46.8053009  33.7687631  41.9430584  46.1083461  32.4949207  41.5147398
  41.3288616  35.8448707  48.8212500  41.1833196  36.1589010  49.7136782
  40.8513819  36.4633607  48.2683399  43.1884998  32.8351255  48.8693390
  43.1746567  31.9392348  48.5325688  43.9057427  32.8421918  49.5031676
  45.0411129  33.2688595  50.9146517  44.7828907  34.1905665  50.9130848
  44.5096170  32.8719029  51.6046982  49.9857318  46.3739382  43.6936603
  50.1594195  45.8085804  42.9410455  50.4786209  47.1740277  43.5116093
  35.8034278  38.3854051  51.7600162  35.2587746  39.1613859  51.8920436
  36.6813628  38.7324855  51.6019283  42.5921894  31.7165635  44.1380960
  42.7137806  30.7882281  44.3371848  42.3023937  31.7304321  43.2259276
  45.4613085  29.4020545  47.2747680  45.4834782  29.4659878  46.3199660
  45.8781144  28.5625054  47.4688186  55.8396709  39.1375805  45.3126903
  56.2827855  38.3883130  44.9146026  54.9623219  39.1285941  44.9300635
  50.9732490  45.6906146  40.7933501  51.6683395  46.3112839  41.0120816
  51.3155641  44.8401497  41.0685879  36.5900300  37.5123947  54.6530318
  35.8482036  37.6606583  55.2394949  36.2693044  37.7732213  53.7897068
  52.8723914  43.1405852  42.3220832  53.3975238  43.4793125  41.5970152
  52.7846266  42.2052867  42.1383966  44.5343962  47.0539925  54.4510708
  44.8431089  46.8089072  55.3233408  45.3319444  47.2586564  53.9629579
  44.5564574  49.2077835  46.6816085  44.1169565  48.7154214  47.3748942
  45.3072691  48.6650803  46.4408160  37.0356913  45.3989376  46.6840713
  37.8614933  45.0993148  46.3039357  36.6850965  44.6296998  47.1330502
  42.0038446  44.7515844  48.7538387  41.3818456  44.0886549  48.4540615
  42.6743313  44.7776976  48.0712034  35.2365518  43.3175702  47.6429647
  34.3997427  42.8897877  47.4613648  35.2089164  43.5108146  48.5800438
  42.0762974  33.2297632  58.3470893  42.1251129  34.1059755  57.9648662
  42.6185488  32.6875025  57.7742536  52.5617820  43.7738755  57.6272030
  51.7713363  43.7562894  57.0876529  52.3251174  44.3127049  58.3821066
  52.6815695  40.6231222  54.9404758  52.7313700  40.4581229  55.8820281
  52.5729618  39.7558481  54.5502639  41.5651953  43.3019768  42.2296847
  41.7140074  43.9855232  41.5763520  42.3718397  43.2824858  42.7446303
  49.9719457  36.6062150  56.2564065  50.8729320  36.4668615  55.9648063
  50.0467432  36.7716605  57.1962242  44.3062262  33.9829005  55.1017251
  43.4365572  34.2762571  54.8299840  44.5421743  34.5669450  55.8224515
  54.1833891  43.0428163  55.1846780  53.8918700  43.4058144  56.0210241
  53.5706023  42.3295172  55.0060112  55.3829574  40.6081043  47.7049350
  56.2176465  41.0470847  47.8686910  55.5188703  40.1319696  46.8857596
  52.4321080  38.1660778  53.6526838  52.9075201  38.3588424  52.8445689
  51.5086645  38.2219964  53.4070222  39.3204586  39.3284945  43.2357916
  39.0750628  38.4247275  43.4338126  39.4900501  39.3302096  42.2937394
  47.0101296  30.2008622  52.6182672  47.5283240  30.9369648  52.2929160
  46.6556429  30.5072615  53.4529431  38.5900234  35.0613303  40.7344078
  37.8969479  35.1357658  40.0784114  38.3451986  34.2973646  41.2565595
  47.2613890  26.6208904  48.1383568  47.5415644  25.9532093  48.7643995
  48.0464497  26.8138000  47.6258232  45.0647359  45.7967898  39.7008595
  44.4921326  46.4158085  39.2479067  45.6380153  46.3467260  40.2348517
  51.1322749  35.0426538  51.8855143  52.0840172  35.1424636  51.9067367
  50.9626199  34.2504807  52.3953228  49.1537128  32.1282121  52.0714544
  48.5587060  32.4087134  51.3761033  48.8686825  32.6176022  52.8431285
  48.2844619  46.0805048  40.8317177  49.2175292  46.0150610  41.0350052
  48.1967831  46.9161315  40.3731710  50.9132635  45.3970918  37.7921124
  50.8346267  45.0630782  38.6856882  51.7342302  45.8892686  37.7912597
  53.6110826  38.2632658  50.9997443  53.5787147  37.3248658  51.1857127
  54.2211450  38.3416694  50.2663268  45.4494157  37.1328711  37.0424647
  46.3953262  37.0034919  37.1113065  45.0708402  36.3943373  37.5194075
  53.7605315  35.0543701  51.0455726  53.2444364  34.2702158  50.8585655
  54.6445263  34.7262418  51.2102246  51.4216042  28.7984717  47.0051539
  51.2240863  28.4899805  47.8894871  52.0315747  29.5246356  47.1349469
  59.4287376  39.3248665  50.1403480  60.1590765  39.0633953  50.7011183
  58.8194322  38.5877387  50.1805548  57.5102673  37.4656527  50.7377931
  56.7835837  37.3312492  50.1294423  57.0949960  37.7733356  51.5434649
  45.3332850  41.1846457  58.5025304  46.2535859  41.3625056  58.6965351
  45.2982433  40.2402502  58.3505003  43.6337074  35.0578687  36.9779532
  42.7268530  34.7611800  37.0542246  43.9113056  34.7608505  36.1113819
  34.5515015  36.3785051  47.4278579  34.2317799  35.5250359  47.1352953
  34.0048443  36.5933629  48.1836546  38.3294922  39.0947492  51.1448085
  38.5480932  40.0264599  51.1636119  38.7420696  38.7355466  51.9302889
  45.2499140  29.6015577  43.1323774  44.4399869  29.2562662  43.5079020
  45.9383557  29.2923121  43.7211385  47.1789689  28.6793624  44.7548070
  47.7320727  29.0989077  45.4138093  47.4159775  27.7529372  44.7971026
  43.2022788  34.6680697  60.5350834  43.1019515  35.6175054  60.4662925
  42.9844330  34.3398936  59.6626904  42.4035859  31.9165622  37.1191512
  43.2655023  32.2420521  37.3787329  42.5886203  31.1297118  36.6064577
  34.4203275  39.9987962  49.3971700  33.7266746  39.5841915  48.8841655
  35.1676266  40.0408499  48.8005119  50.5568496  30.7894149  44.2626735
  49.9767165  31.4478953  43.8804787  50.2904428  29.9671493  43.8514152
  49.0072062  30.1899206  46.4648055  49.5071840  30.3015741  45.6562374
  49.6507670  29.8860259  47.1048863  43.0654058  38.0977836  59.3515896
  42.5821139  38.8978196  59.5579785  43.1514997  38.1085781  58.3983340
  36.3340017  39.9306216  47.2737715  36.3110706  40.0293903  46.3219598
  36.6440654  40.7771367  47.5954881  38.9927395  41.9882371  51.3884330
  39.9470649  41.9566313  51.3214261  38.7939919  41.5272995  52.2034556
  39.5826777  40.5583487  53.9555127  40.4019666  41.0527566  53.9789965
  39.8563585  39.6415455  53.9272695  49.3393374  32.9494239  43.3183083
  48.4519229  33.2343890  43.1003278  49.7547363  32.7888003  42.4710360
  52.6907910  32.9740760  47.0337422  53.4668300  33.4637213  47.3062039
  51.9656044  33.3998814  47.4909292  55.1280468  33.6868379  48.0911363
  55.7224959  33.4464115  47.3804671  55.2007052  32.9675510  48.7184899
  37.3477624  47.5301990  48.4054528  37.2132092  46.7702391  47.8392526
  36.9309686  48.2542890  47.9383316  48.4836587  42.7138914  37.4131103
  49.1872437  42.9188916  38.0288758  47.7599236  43.2815676  37.6780186
  49.3134397  38.4648775  43.5333373  49.2569599  38.9217327  42.6941005
  49.8662740  37.7039460  43.3556216  53.1239203  34.2538507  44.3583492
  52.8676138  33.8535143  45.1891700  52.4992071  34.9682301  44.2333632
  57.4351541  36.9934580  46.8654784  56.8751099  37.0627770  47.6386346
  56.8295044  36.8175565  46.1454280  40.5046750  48.4271307  48.6172970
  40.3879134  49.3716740  48.5151660  39.6839196  48.1244869  49.0058769
  50.3923284  43.1521443  39.4629563  51.2268888  42.7202642  39.2807038
  50.2307627  42.9803457  40.3906457  50.0469177  39.6553556  40.8285902
  49.9917980  39.4897828  39.8874346  49.4215232  40.3629589  40.9848092
  34.8361692  34.8921621  54.6547324  35.4820555  34.3820575  55.1434550
  34.6278843  35.6290302  55.2290750  47.3615084  41.9602468  60.1539465
  48.2306243  42.1343120  59.7926100  46.8821835  42.7796885  60.0315194
  43.3565302  29.1561665  40.4071221  43.3443972  30.1003505  40.5639491
  44.2488724  28.9731811  40.1130682  41.5301264  49.0799569  51.8328899
  42.4328511  49.1123179  52.1495394  41.3038634  48.1500020  51.8475234
  43.2854866  47.8330556  48.4938977  42.3350497  47.8332417  48.3803350
  43.5887352  47.0863290  47.9775012  47.1717422  25.7504442  44.6617157
  46.4049817  25.1962929  44.8073840  47.5828127  25.8226311  45.5231309
  39.1759183  32.0389238  58.7522339  40.0390644  31.6826043  58.9625663
  38.6024593  31.7003133  59.4397743  59.0207560  53.6691094  49.5584740
  59.6585970  53.5497841  48.8548080  58.9028402  54.6171938  49.6172692
  55.8297266  53.6218522  49.4946264  55.4915777  53.5059587  48.6066799
  56.6987034  53.2209687  49.4747270  51.6884082  55.4753999  45.4843155
  51.1248947  55.3843936  44.7159443  51.5736477  54.6553903  45.9645648
  56.3117049  54.7753374  55.4532470  56.3005690  54.3806172  54.5812973
  56.4737688  54.0419447  56.0466241  49.2348513  56.9705190  48.3227376
  50.0269805  56.6296015  47.9073675  49.4745164  57.0800165  49.2429529
  57.2683640  59.1424966  40.7957620  56.6171620  59.7279047  40.4091634
  58.0628003  59.6731161  40.8552658  51.1939267  56.2314104  41.1944755
  51.9670143  55.6843091  41.0557630  51.5464666  57.0958353  41.4059216
  53.0324310  57.5590486  54.4011654  52.7414176  58.4636117  54.2858320
  53.6681294  57.6007013  55.1155723  53.9580517  54.9367334  50.9913013
  54.5544089  54.7123357  50.2769976  54.0155488  54.1952080  51.5938461
  53.5305545  52.3906770  38.8263204  53.7831066  51.8688291  38.0646667
  52.5930104  52.2272915  38.9289888  58.7458905  56.8315398  41.3326604
  58.1104738  56.9050025  42.0447509  58.4156312  57.4208997  40.6545684
  53.2501834  54.2934876  41.0287579  53.1338092  53.6179779  41.6968664
  53.3604094  53.8067250  40.2119732  55.5933375  53.7545023  44.7334269
  55.2291582  53.2275644  45.4447190  56.4500491  53.3643492  44.5600754
  61.4982676  45.0439355  51.9965535  61.1666000  45.9134766  51.7726750
  60.9028289  44.7275639  52.6759565  57.9914195  57.2451901  51.3961448
  57.6914918  58.1476940  51.2877255  57.6465255  56.9784085  52.2482600
  51.4426677  53.6965698  47.4298152  50.5177173  53.5641912  47.6375844
  51.6911090  54.4759917  47.9268094  61.3911339  49.7634441  49.0758885
  60.4828216  49.6949850  48.7817646  61.3398935  50.2406386  49.9040710
  48.8035488  53.3398972  48.2641941  48.9327869  53.5933451  49.1781353
  48.1232939  53.9326680  47.9446596  52.9734975  64.0096222  44.3632415
  52.8959005  64.9604047  44.4420896  52.3696618  63.6642094  45.0207342
  59.1953917  56.1338681  55.1783911  59.6037273  55.6921091  54.4338543
  58.4731178  55.5591308  55.4318103  55.5484987  51.0711288  52.5517468
  56.3946182  51.4950701  52.6952117  55.4883624  50.4144912  53.2456031
  59.5182731  56.6939872  48.9336199  58.8891594  56.8585586  48.2312267
  59.1308393  57.1081481  49.7047164  58.6984432  48.7315656  54.2098641
  58.4545364  49.4857717  53.6732917  58.9744362  49.1101004  55.0445888
  60.6522895  55.2754268  52.8875907  60.8639790  55.9186028  52.2110288
  60.6052643  54.4416585  52.4197837  58.2549124  47.8872089  49.7912479
  57.3933603  48.1853343  50.0829216  58.2811558  48.1042488  48.8593512
  55.0710693  56.4314280  46.1986285  55.5349039  56.7101983  45.4090907
  54.8067491  55.5297724  46.0159375  51.9634774  55.9785761  49.1366048
  52.5336131  56.4073030  48.4983532  52.5542886  55.6968346  49.8350233
  47.7504913  50.8120985  48.3092983  46.9603967  51.0678513  47.8333094
  48.2416161  51.6269322  48.4145024  61.7668723  58.1526224  51.0598264
  62.5886166  57.7506411  50.7780946  61.7631126  58.0494458  52.0114380
  49.7019659  51.1765564  45.2676460  48.9050822  51.2884258  45.7859956
  49.4745251  51.5152216  44.4017350  55.5325326  57.7010267  53.2158975
  55.5969759  58.1630674  54.0517146  54.8236250  57.0707632  53.3441284
  46.0342616  51.0651475  50.7407974  46.2850655  51.9498485  51.0065550
  46.5702165  50.8856077  49.9683066  69.8574716  54.4964972  47.4083236
  69.1038424  53.9272370  47.2527240  69.9922257  54.4627637  48.3553870
  55.2473344  59.3678375  43.0837955  55.1119019  60.2129910  43.5122803
  55.7883156  59.5697652  42.3203889  48.7002741  56.8853813  43.6565880
  49.2127262  57.6797063  43.8071445  49.3525454  56.1880103  43.5899481
  50.5097626  60.0019569  45.7388633  50.6864254  60.9237534  45.5509617
  51.3054459  59.6877988  46.1683013  54.6508644  46.8627834  57.3372567
  55.3918358  47.4634987  57.2577029  54.8826567  46.1205471  56.7790609
  49.7949982  52.0484201  55.6150796  49.6803498  51.1469458  55.9157895
  48.9394500  52.2947898  55.2635613  56.8741820  59.9901941  57.2138297
  56.4305674  59.2038320  56.8959202  57.5359034  60.1781092  56.5482188
  51.6328941  61.5197743  51.7398976  52.1836366  61.3914806  50.9675969
  50.7940417  61.8192632  51.3893868  58.9723058  60.2704741  55.2419698
  58.9541534  61.0913622  54.7499967  59.8942978  60.1458816  55.4669839
  55.4296112  57.7848871  56.0843207  55.9624449  57.0237159  55.8542515
  54.9010193  57.4922522  56.8267361  58.5965807  42.8908936  51.6136848
  58.2530077  43.7810578  51.5375959  58.9644770  42.7010594  50.7506433
  46.6651658  55.2142467  44.4325451  47.5026880  55.6239475  44.2159158
  46.8429926  54.2741909  44.4025644  56.1463201  47.7267248  45.1794522
  55.2904797  47.3374099  45.0000161  56.5590153  47.8059209  44.3194307
  57.6762348  45.2613592  49.5786082  57.1727143  45.2243727  48.7653887
  57.9692955  46.1706334  49.6382738  53.9205234  45.3452321  48.5852263
  54.7858230  45.1495130  48.2258153  53.9882743  45.1162673  49.5121620
  63.5350364  55.6349902  42.0562457  62.7579807  55.2961062  41.6117619
  64.2141845  55.6402525  41.3817422  56.7948825  56.9134863  43.5962019
  56.2670187  56.1787623  43.2835256  56.2936328  57.6909539  43.3501987
  61.7741671  55.1083883  48.7129065  61.1165346  55.7983145  48.8009194
  62.5782070  55.4980315  49.0563051  51.5267553  47.5754529  45.9568630
  52.1011305  47.3529711  45.2241823  52.1138535  47.6443224  46.7097231
  60.5847130  53.4628256  46.7633007  61.0979012  54.0958248  47.2654716
  61.2348354  52.8629452  46.3976367  51.8537140  49.6058990  39.9764515
  51.0174452  49.9433677  40.2973790  51.7141909  49.4707970  39.0391652
  53.8290220  44.4495778  44.6843700  53.1754633  44.1344795  44.0600314
  53.7870695  43.8271519  45.4103523  54.9401425  54.7315073  36.5996992
  54.0328487  54.5004327  36.7988141  55.4372457  53.9352693  36.7870973
  57.8469504  63.4412580  39.5193678  57.1731203  63.7444277  40.1278636
  58.2335326  64.2441661  39.1699135  57.0627961  50.9377712  49.0091347
  56.1450522  51.1592659  48.8513035  57.4788104  51.0124022  48.1503055
  59.7941865  60.2810754  45.8261967  60.0864840  60.8415811  45.1074333
  60.3040486  60.5739315  46.5815127  46.6877829  52.5533182  45.1036184
  46.4902229  51.9602543  44.3787251  46.1324493  52.2485392  45.8212123
  54.6674553  52.4456289  47.2230777  54.7223163  51.4930125  47.1473254
  53.8565755  52.6015728  47.7072076  55.8165747  56.3736412  38.4609060
  55.3785176  55.6572271  38.0014698  56.5576187  56.6012527  37.8994152
  52.6066913  51.0633348  44.9821156  51.7934778  51.3627519  45.3886348
  53.1025907  50.6689037  45.6995638  54.7575491  61.0591105  46.9155421
  54.7151669  61.2851952  45.9863953  55.6738189  60.8254480  47.0641222
  58.2041124  51.5275173  53.8136050  58.5590512  51.7546646  54.6730516
  58.8513256  51.8593550  53.1913305  63.9338861  54.6493609  44.5185379
  63.7956760  54.8395205  43.5906568  63.5775080  55.4112992  44.9753430
  52.0980987  48.6351704  50.5982391  52.7380367  48.4940463  49.9005354
  51.2658518  48.3486217  50.2220993  52.8741291  57.9354134  46.7117383
  53.6681890  57.4404455  46.5099958  52.1632984  57.4071998  46.3485089
  57.6936136  60.3172230  51.0629751  57.7473158  60.8863166  51.8307467
  56.8250917  60.4874115  50.6983788  49.1824055  52.0797216  42.7877136
  48.2521643  52.0181672  43.0047098  49.2781527  51.5573169  41.9913777
  49.1009604  48.6052029  45.3755378  49.3616421  49.5197362  45.2664538
  49.9226776  48.1376472  45.5251991  50.5734529  50.0189786  52.5454202
  51.2457583  49.8107148  51.8966851  49.7464316  49.8211872  52.1059435
  64.8223790  56.7593836  52.0629536  65.0159681  57.6639647  52.3088811
  64.7224409  56.3001256  52.8968121  56.4760101  46.6451727  54.5619863
  55.8288016  47.3441677  54.4684340  57.2461117  47.0787871  54.9296111
  56.6524236  54.4832492  52.6216683  57.5816296  54.6343652  52.4485650
  56.2315266  54.5716513  51.7665329  55.4512567  58.5083156  50.3915221
  55.3123653  58.1401941  51.2641159  54.6627164  59.0230796  50.2199178
  56.0460719  63.6092253  41.7340757  56.2212475  63.1380296  42.5486380
  55.3593507  64.2358019  41.9622018  57.0017782  57.8864759  47.7804058
  56.6667615  57.8465529  48.6761708  56.5021728  57.2209475  47.3074469
  50.9762026  53.2932389  53.3056639  50.8381824  52.5612628  53.9068179
  51.8866950  53.2041289  53.0240827  53.6044327  53.0052348  52.7940319
  54.3143946  52.3645541  52.7526938  53.5613635  53.2565243  53.7166500
  52.3173261  49.9917566  54.6135959  51.7810618  49.5408305  55.2657555
  51.7289970  50.1263475  53.8706423  50.6121805  66.7581616  48.5080617
  50.8518403  67.3900140  49.1859636  49.7691001  66.4069656  48.7945976
  51.7275520  49.4506218  37.1762422  50.8504986  49.3295019  36.8124669
  52.2033273  48.6592296  36.9241311  61.5948513  57.9059286  53.9460878
  60.7075292  57.5685208  54.0687277  62.1647064  57.1742317  54.1829643
  43.2477660  54.2383377  47.2703929  43.9348700  53.9245108  46.6824945
  43.0925789  55.1424742  46.9971181  48.0512382  49.1273574  51.6988953
  47.9670571  48.5199244  50.9639363  47.2295089  49.6182592  51.6998449
  55.1249666  62.5660738  50.9122121  55.0519838  63.3715710  51.4241426
  54.6827060  62.7652704  50.0870143  54.9139446  61.8032508  44.4224943
  54.1306968  62.3454188  44.5163167  55.6132191  62.3206488  44.8219184
  58.2236096  47.6127138  47.0659148  58.7204796  46.8597100  46.7460218
  57.4523078  47.6491454  46.5002357  66.0765854  53.3167503  48.7077440
  66.0655730  54.1992219  48.3371373  65.2083233  52.9639054  48.5131977
  57.5848350  62.4647572  53.0680280  58.2976322  63.0995037  52.9956181
  57.0938379  62.5611438  52.2520282  59.3065877  56.3698825  44.6397572
  58.3722156  56.4900287  44.4702276  59.4842545  55.4671292  44.3757581
  54.8071065  49.7544521  46.7930833  54.4368852  49.2015561  47.4811738
  55.3030157  49.1502654  46.2405833  52.6360264  60.2142016  53.8885851
  53.3369723  60.8478499  54.0415245  52.1655379  60.5556747  53.1281490
  60.7614659  58.5559965  42.1733758  61.0374503  58.4416560  43.0827632
  59.8919158  58.1577450  42.1345931  60.6655091  44.5796731  49.2138507
  59.7518171  44.8100958  49.3820714  61.0948192  44.6635175  50.0652539
  60.4361549  52.7686623  51.7138401  59.7833000  53.0162530  51.0590854
  60.8141929  51.9550761  51.3800878  57.3968723  62.8046316  45.8166571
  57.5791118  61.9867972  46.2794324  58.2201709  63.0214008  45.3791461
  57.7310889  61.7314501  43.0781620  58.2598655  61.2206956  42.4651782
  57.9939108  61.4157032  43.9427153  48.2327982  59.7478371  50.8216953
  48.8181418  59.0022059  50.9544858  48.0352820  60.0582327  51.7053617
  51.0866637  62.7829618  45.8379396  50.4177012  63.2675746  45.3543436
  50.9479506  63.0298838  46.7522774  42.8245636  52.3183971  49.5421397
  42.8629736  51.7847562  50.3358515  42.3185929  51.7919176  48.9232374
  55.2271905  64.8173362  52.4362054  55.7790213  64.9804983  53.2011139
  55.5678099  65.4077799  51.7642079  50.2036399  47.1648511  53.0383939
  50.2677725  48.0263342  52.6261337  50.1403519  46.5522513  52.3056297
  49.6788671  49.2371644  56.6856973  50.3060710  48.8548721  57.2994497
  48.8216590  49.0185846  57.0512666  60.0782780  59.6434619  58.2910709
  60.6222684  60.2564577  57.7965663  59.4969625  60.2014197  58.8077722
  46.4554214  51.0448073  42.6175328  46.7507655  50.1358751  42.5642382
  45.5542250  51.0235812  42.2956330  58.3640293  62.7655337  49.4225736
  58.2391432  61.9645077  48.9136682  59.0219384  63.2601530  48.9339706
  49.9848461  49.1204070  48.6002876  49.2635047  49.7340037  48.4610350
  50.7741717  49.6561834  48.5219522  60.4275201  60.5664357  51.0505286
  59.4805537  60.4469708  50.9783613  60.7757974  59.6786855  51.1331548
  52.7874774  46.4558496  54.8743528  53.3109176  46.7020793  55.6369838
  52.5687108  47.2878531  54.4546666  48.1842055  48.7262171  42.7414653
  47.8554762  47.8459550  42.5589759  48.5381426  48.6709839  43.6291042
  57.4321634  60.3617073  47.2509639  57.2846597  59.4333781  47.4317209
  58.2575128  60.3837164  46.7666714  51.2983879  49.0135140  43.1090131
  51.6379951  49.5421062  42.3868739  51.7455999  49.3515547  43.8848697
  53.9927319  47.3972191  52.5593199  53.6524140  46.5980004  52.9613879
  53.2866326  47.6973902  51.9870032  54.6443791  44.4821504  51.0120522
  55.4669861  44.0081982  50.8899412  54.8881855  45.2611987  51.5119208
  52.1682370  51.1740624  48.8212500  52.0226951  51.4880927  49.7136782
  51.6907574  51.7925525  48.2683399  54.0278753  48.1643172  48.8693390
  54.0140322  47.2684266  48.5325688  54.7451181  48.1713836  49.5031676
  55.8804884  48.5980512  50.9146517  55.6222661  49.5197583  50.9130848
  55.3489924  48.2010947  51.6046982  60.8251072  61.7031300  43.6936603
  60.9987950  61.1377722  42.9410455  61.3179964  62.5032194  43.5116093
  46.6428032  53.7145969  51.7600162  46.0981500  54.4905777  51.8920436
  47.5207382  54.0616773  51.6019283  53.4315649  47.0457552  44.1380960
  53.5531560  46.1174199  44.3371848  53.1417691  47.0596238  43.2259276
  56.3006839  44.7312463  47.2747680  56.3228536  44.7951796  46.3199660
  56.7174898  43.8916972  47.4688186  66.6790464  54.4667722  45.3126903
  67.1221610  53.7175048  44.9146026  65.8016974  54.4577859  44.9300635
  61.8126245  61.0198064  40.7933501  62.5077150  61.6404757  41.0120816
  62.1549395  60.1693415  41.0685879  47.4294054  52.8415865  54.6530318
  46.6875790  52.9898500  55.2394949  47.1086798  53.1024131  53.7897068
  63.7117668  58.4697769  42.3220832  64.2368992  58.8085042  41.5970152
  63.6240021  57.5344785  42.1383966  55.3737717  62.3831843  54.4510708
  55.6824843  62.1380990  55.3233408  56.1713199  62.5878482  53.9629579
  55.3958329  64.5369753  46.6816085  54.9563319  64.0446131  47.3748942
  56.1466446  63.9942720  46.4408160  47.8750668  60.7281294  46.6840713
  48.7008688  60.4285065  46.3039357  47.5244720  59.9588916  47.1330502
  52.8432201  60.0807762  48.7538387  52.2212210  59.4178467  48.4540615
  53.5137068  60.1068894  48.0712034  46.0759273  58.6467620  47.6429647
  45.2391181  58.2189794  47.4613648  46.0482918  58.8400063  48.5800438
  52.4045708  58.6311685  42.2296847  52.5533828  59.3147150  41.5763520
  53.2112151  58.6116775  42.7446303  55.1456017  49.3120922  55.1017251
  54.2759326  49.6054488  54.8299840  55.3815497  49.8961367  55.8224515
  65.0227646  58.3720081  55.1846780  64.7312454  58.7350062  56.0210241
  64.4099777  57.6587089  55.0060112  66.2223328  55.9372961  47.7049350
  67.0570220  56.3762765  47.8686910  66.3582457  55.4611614  46.8857596
  63.2714834  53.4952696  53.6526838  63.7468956  53.6880342  52.8445689
  62.3480400  53.5511881  53.4070222  50.1598341  54.6576863  43.2357916
  49.9144383  53.7539193  43.4338126  50.3294255  54.6594013  42.2937394
  57.8495051  45.5300539  52.6182672  58.3676995  46.2661566  52.2929160
  57.4950183  45.8364532  53.4529431  49.4293988  50.3905220  40.7344078
  48.7363233  50.4649575  40.0784114  49.1845740  49.6265564  41.2565595
  58.1007645  41.9500822  48.1383568  58.3809399  41.2824011  48.7643995
  58.8858252  42.1429917  47.6258232  55.9041113  61.1259816  39.7008595
  55.3315080  61.7450003  39.2479067  56.4773907  61.6759177  40.2348517
  61.9716503  50.3718456  51.8855143  62.9233926  50.4716553  51.9067367
  61.8019954  49.5796724  52.3953228  59.9930883  47.4574039  52.0714544
  59.3980815  47.7379052  51.3761033  59.7080579  47.9467940  52.8431285
  59.1238373  61.4096966  40.8317177  60.0569046  61.3442527  41.0350052
  59.0361586  62.2453233  40.3731710  61.7526390  60.7262836  37.7921124
  61.6740021  60.3922700  38.6856882  62.5736057  61.2184604  37.7912597
  64.4504581  53.5924575  50.9997443  64.4180901  52.6540576  51.1857127
  65.0605205  53.6708612  50.2663268  56.2887912  52.4620628  37.0424647
  57.2347017  52.3326836  37.1113065  55.9102157  51.7235290  37.5194075
  54.4730829  50.3870605  36.9779532  53.5662284  50.0903717  37.0542246
  54.7506810  50.0900423  36.1113819  45.3908769  51.7076968  47.4278579
  45.0711554  50.8542276  47.1352953  44.8442198  51.9225546  48.1836546
  49.1688677  54.4239409  51.1448085  49.3874687  55.3556517  51.1636119
  49.5814451  54.0647384  51.9302889  56.0892895  44.9307494  43.1323774
  55.2793623  44.5854579  43.5079020  56.7777312  44.6215038  43.7211385
  58.0183443  44.0085541  44.7548070  58.5714482  44.4280995  45.4138093
  58.2553529  43.0821289  44.7971026  45.2597029  55.3279880  49.3971700
  44.5660501  54.9133832  48.8841655  46.0070020  55.3700416  48.8005119
  59.8465816  45.5191124  46.4648055  60.3465595  45.6307659  45.6562374
  60.4901424  45.2152177  47.1048863  47.1733772  55.2598133  47.2737715
  47.1504460  55.3585821  46.3219598  47.4834408  56.1063284  47.5954881
  49.8321150  57.3174288  51.3884330  50.7864403  57.2858231  51.3214261
  49.6333673  56.8564912  52.2034556  50.4220532  55.8875405  53.9555127
  51.2413421  56.3819483  53.9789965  50.6957340  54.9707373  53.9272695
  48.1871379  62.8593908  48.4054528  48.0525846  62.0994309  47.8392526
  47.7703441  63.5834808  47.9383316  59.3230342  58.0430832  37.4131103
  60.0266192  58.2480834  38.0288758  58.5992990  58.6107593  37.6780186
  51.3440504  63.7563225  48.6172970  51.2272889  64.7008657  48.5151660
  50.5232951  63.4536787  49.0058769  61.2317039  58.4813361  39.4629563
  62.0662643  58.0494559  39.2807038  61.0701382  58.3095374  40.3906457
  45.6755446  50.2213538  54.6547324  46.3214310  49.7112492  55.1434550
  45.4672597  50.9582220  55.2290750  54.1959057  44.4853583  40.4071221
  54.1837726  45.4295423  40.5639491  55.0882478  44.3023728  40.1130682
  52.3695019  64.4091487  51.8328899  53.2722265  64.4415097  52.1495394
  52.1432389  63.4791938  51.8475234  54.1248621  63.1622473  48.4938977
  53.1744252  63.1624335  48.3803350  54.4281107  62.4155208  47.9775012
  58.0111176  41.0796360  44.6617157  57.2443572  40.5254846  44.8073840
  58.4221881  41.1518228  45.5231309  50.0152937  47.3681155  58.7522339
  50.8784399  47.0117960  58.9625663  49.4418348  47.0295050  59.4397743
  62.0333022  71.5606021  41.1944755  62.8063898  71.0135008  41.0557630
  62.3858421  72.4250271  41.4059216  64.3699300  67.7198687  38.8263204
  64.6224820  67.1980209  38.0646667  63.4323859  67.5564833  38.9289888
  64.0895588  69.6226793  41.0287579  63.9731847  68.9471697  41.6968664
  64.1997848  69.1359167  40.2119732  66.0732616  64.1126840  39.7295617
  66.2407019  64.9807076  40.0966088  65.8829785  64.2754122  38.8056906
  63.8128729  79.3388139  44.3632415  63.7352759  80.2895964  44.4420896
  63.2090373  78.9934012  45.0207342  56.8736371  66.3943393  50.7407974
  57.1244409  67.2790403  51.0065550  57.4095919  66.2147994  49.9683066
  66.0867098  74.6970292  43.0837955  65.9512773  75.5421828  43.5122803
  66.6276911  74.8989570  42.3203889  59.5396496  72.2145730  43.6565880
  60.0521016  73.0088981  43.8071445  60.1919208  71.5172021  43.5899481
  57.5045412  70.5434385  44.4325451  58.3420634  70.9531393  44.2159158
  57.6823680  69.6033827  44.4025644  62.6930894  64.9350908  39.9764515
  61.8568207  65.2725595  40.2973790  62.5535664  64.7999888  39.0391652
  65.7795180  70.0606991  36.5996992  64.8722242  69.8296244  36.7988141
  66.2766212  69.2644610  36.7870973  68.6863259  78.7704498  39.5193678
  68.0124957  79.0736195  40.1278636  69.0729081  79.5733578  39.1699135
  66.8854474  78.9384171  41.7340757  67.0606229  78.4672214  42.5486380
  66.1987262  79.5649937  41.9622018  61.4515559  82.0873533  48.5080617
  61.6912157  82.7192057  49.1859636  60.6084756  81.7361573  48.7945976
  62.5669275  64.7798135  37.1762422  61.6898741  64.6586936  36.8124669
  63.0427028  63.9884214  36.9241311  54.0871415  69.5675295  47.2703929
  54.7742455  69.2537025  46.6824945  53.9319543  70.4716660  46.9971181
  65.9643421  77.8952656  50.9122121  65.8913592  78.7007627  51.4241426
  65.5220814  78.0944622  50.0870143  65.7533201  77.1324426  44.4224943
  64.9700722  77.6746106  44.5163167  66.4525946  77.6498405  44.8219184
  68.2362478  78.1338234  45.8166571  68.4184872  77.3159890  46.2794324
  69.0595464  78.3505926  45.3791461  68.5704643  77.0606419  43.0781620
  69.0992410  76.5498874  42.4651782  68.8332863  76.7448949  43.9427153
  61.9260391  78.1121536  45.8379396  61.2570767  78.5967663  45.3543436
  61.7873261  78.3590756  46.7522774  53.6639391  67.6475889  49.5421397
  53.7023490  67.1139479  50.3358515  53.1579684  67.1211094  48.9232374
  66.0665660  80.1465279  52.4362054  66.6183968  80.3096901  53.2011139
  66.4071853  80.7369717  51.7642079  57.2947968  66.3739991  42.6175328
  57.5901409  65.4650669  42.5642382  56.3936004  66.3527730  42.2956330
  69.2034047  78.0947255  49.4225736  69.0785187  77.2936995  48.9136682
  69.8613138  78.5893448  48.9339706  59.0235810  64.0554088  42.7414653
  58.6948516  63.1751467  42.5589759  59.3775181  64.0001757  43.6291042
  64.1245780  62.8401680  41.3083423  64.8454143  63.2182932  40.8047140
  63.5011084  63.5590557  41.4118401  71.6644827  77.0323217  43.6936603
  71.8381704  76.4669640  42.9410455  72.1573718  77.8324112  43.5116093
  57.4821787  69.0437886  51.7600162  56.9375255  69.8197694  51.8920436
  58.3601137  69.3908691  51.6019283  66.2352083  79.8661670  46.6816085
  65.7957074  79.3738049  47.3748942  66.9860200  79.3234638  46.4408160
  63.2439462  73.9603603  42.2296847  63.3927583  74.6439067  41.5763520
  64.0505906  73.9408693  42.7446303  60.2687743  65.7197138  40.7344078
  59.5756988  65.7941493  40.0784114  60.0239495  64.9557482  41.2565595
  66.7434868  76.4551733  39.7008595  66.1708835  77.0741920  39.2479067
  67.3167661  77.0051095  40.2348517  69.9632128  76.7388883  40.8317177
  70.8962801  76.6734445  41.0350052  69.8755340  77.5745150  40.3731710
  72.5920144  76.0554754  37.7921124  72.5133776  75.7214617  38.6856882
  73.4129811  76.5476522  37.7912597  67.1281666  67.7912546  37.0424647
  68.0740771  67.6618754  37.1113065  66.7495911  67.0527208  37.5194075
  65.3124583  65.7162522  36.9779532  64.4056039  65.4195635  37.0542246
  65.5900564  65.4192341  36.1113819  56.2302524  67.0368886  47.4278579
  55.9105308  66.1834194  47.1352953  55.6835952  67.2517464  48.1836546
  68.8577197  59.3377459  44.7548070  69.4108236  59.7572912  45.4138093
  69.0947284  58.4113207  44.7971026  64.0823368  62.5749458  37.1191512
  64.9442532  62.9004356  37.3787329  64.2673712  61.7880954  36.6064577
  56.0990784  70.6571797  49.3971700  55.4054255  70.2425750  48.8841655
  56.8463775  70.6992334  48.8005119  58.0127526  70.5890051  47.2737715
  57.9898214  70.6877738  46.3219598  58.3228163  71.4355202  47.5954881
  59.0265133  78.1885826  48.4054528  58.8919601  77.4286227  47.8392526
  58.6097195  78.9126726  47.9383316  70.1624096  73.3722749  37.4131103
  70.8659946  73.5772752  38.0288758  69.4386745  73.9399511  37.6780186
  62.1834259  79.0855143  48.6172970  62.0666643  80.0300575  48.5151660
  61.3626705  78.7828704  49.0058769  56.5149201  65.5505456  54.6547324
  57.1608064  65.0404410  55.1434550  56.3066352  66.2874138  55.2290750
  65.0352811  59.8145501  40.4071221  65.0231481  60.7587341  40.5639491
  65.9276233  59.6315646  40.1130682  63.2088773  79.7383405  51.8328899
  64.1116020  79.7707015  52.1495394  62.9826143  78.8083856  51.8475234
  64.9642375  78.4914391  48.4938977  64.0138006  78.4916253  48.3803350
  65.2674861  77.7447126  47.9775012  80.6995069  84.3274929  49.5584740
  81.3373479  84.2081677  48.8548080  80.5815911  85.2755773  49.6172692
  77.5084775  84.2802358  49.4946264  77.1703286  84.1643422  48.6066799
  78.3774543  83.8793523  49.4747270  73.3671591  86.1337834  45.4843155
  72.8036456  86.0427771  44.7159443  73.2523986  85.3137738  45.9645648
  77.9904558  85.4337209  55.4532470  77.9793199  85.0390008  54.5812973
  78.1525197  84.7003282  56.0466241  70.9136022  87.6289026  48.3227376
  71.7057314  87.2879850  47.9073675  71.1532673  87.7384001  49.2429529
  78.9471149  89.8008802  40.7957620  78.2959129  90.3862882  40.4091634
  79.7415512  90.3314997  40.8552658  72.8726776  86.8897939  41.1944755
  73.6457652  86.3426926  41.0557630  73.2252175  87.7542188  41.4059216
  74.7111819  88.2174321  54.4011654  74.4201685  89.1219952  54.2858320
  75.3468803  88.2590849  55.1155723  75.6368026  85.5951170  50.9913013
  76.2331598  85.3707192  50.2769976  75.6942997  84.8535915  51.5938461
  75.2093054  83.0490605  38.8263204  75.4618575  82.5272126  38.0646667
  74.2717613  82.8856750  38.9289888  80.2536337  82.0526383  46.6337948
  81.0399426  81.6345807  46.2828365  80.5175041  82.9572476  46.8019596
  80.4246414  87.4899234  41.3326604  79.7892247  87.5633860  42.0447509
  80.0943821  88.0792832  40.6545684  85.6544764  81.9901617  47.5370926
  86.3869936  81.4200833  47.7708756  84.8984120  81.6023217  47.9777432
  74.9289343  84.9518711  41.0287579  74.8125601  84.2763614  41.6968664
  75.0391603  84.4651085  40.2119732  77.2720884  84.4128858  44.7334269
  76.9079091  83.8859479  45.4447190  78.1288000  84.0227327  44.5600754
  76.9126371  79.4418758  39.7295617  77.0800773  80.3098994  40.0966088
  76.7223540  79.6046039  38.8056906  79.6701704  87.9035737  51.3961448
  79.3702427  88.8060775  51.2877255  79.3252764  87.6367920  52.2482600
  73.1214186  84.3549533  47.4298152  72.1964682  84.2225748  47.6375844
  73.3698599  85.1343753  47.9268094  83.0698848  80.4218277  49.0758885
  82.1615725  80.3533685  48.7817646  83.0186444  80.8990222  49.9040710
  76.8915592  81.8976415  40.7142284  76.7715217  82.3433466  41.5527764
  76.1968180  82.2461733  40.1555822  70.4822997  83.9982807  48.2641941
  70.6115378  84.2517286  49.1781353  69.8020448  84.5910515  47.9446596
  74.6522484  94.6680057  44.3632415  74.5746514  95.6187882  44.4420896
  74.0484127  94.3225929  45.0207342  77.1439714  81.8407922  57.0193782
  76.3673048  82.4001843  57.0096647  77.7830277  82.3264705  57.5408652
  84.9360494  78.6234715  50.8536759  84.2934874  78.9167248  50.2076553
  84.4315423  78.5087636  51.6589955  82.5900658  82.3697888  41.5422618
  83.5018514  82.6025275  41.3670316  82.0810305  82.9534933  40.9797697
  75.3986086  84.6493376  56.5811749  76.1400770  85.1878420  56.3046573
  74.6923071  85.2759665  56.7383301  80.8741426  86.7922516  55.1783911
  81.2824782  86.3504927  54.4338543  80.1518687  86.2175144  55.4318103
  77.2272496  81.7295123  52.5517468  78.0733691  82.1534537  52.6952117
  77.1671133  81.0728747  53.2456031  81.1970240  87.3523707  48.9336199
  80.5679103  87.5169421  48.2312267  80.8095902  87.7665316  49.7047164
  85.0759472  88.2878145  46.2880563  84.3910510  88.6677046  45.7377597
  85.1603321  88.8973471  47.0212511  80.3771941  79.3899491  54.2098641
  80.1332873  80.1441552  53.6732917  80.6531871  79.7684839  55.0445888
  82.3310404  85.9338104  52.8875907  82.5427299  86.5769864  52.2110288
  82.2840152  85.1000420  52.4197837  79.9336633  78.5455924  49.7912479
  79.0721112  78.8437178  50.0829216  79.9599067  78.7626323  48.8593512
  76.7498202  87.0898115  46.1986285  77.2136548  87.3685818  45.4090907
  76.4855000  86.1881560  46.0159375  73.6422283  86.6369596  49.1366048
  74.2123640  87.0656865  48.4983532  74.2330395  86.3552181  49.8350233
  75.6867088  83.2121267  43.0075850  76.3891131  83.6642311  43.4749776
  75.3547717  82.5705086  43.6355743  74.1347450  81.8033024  57.3827059
  73.5046110  82.4849305  57.6162456  74.0283538  81.6916106  56.4380197
  69.4292422  81.4704820  48.3092983  68.6391476  81.7262349  47.8333094
  69.9203669  82.2853158  48.4145024  83.4456232  88.8110059  51.0598264
  84.2673675  88.4090246  50.7780946  83.4418635  88.7078293  52.0114380
  71.3807167  81.8349399  45.2676460  70.5838331  81.9468093  45.7859956
  71.1532760  82.1736051  44.4017350  77.2112835  88.3594102  53.2158975
  77.2757268  88.8214510  54.0517146  76.5023759  87.7291467  53.3441284
  67.7130125  81.7235310  50.7407974  67.9638164  82.6082320  51.0065550
  68.2489673  81.5439912  49.9683066  91.5362225  85.1548808  47.4083236
  90.7825933  84.5856206  47.2527240  91.6709766  85.1211472  48.3553870
  76.9260853  90.0262210  43.0837955  76.7906528  90.8713746  43.5122803
  77.4670665  90.2281488  42.3203889  73.4128192  76.1053790  59.7452310
  73.0195138  75.5519988  60.4199954  74.2294333  76.4164368  60.1358828
  70.3790250  87.5437648  43.6565880  70.8914771  88.3380898  43.8071445
  71.0312963  86.8463938  43.5899481  72.1885135  90.6603404  45.7388633
  72.3651763  91.5821369  45.5509617  72.9841968  90.3461823  46.1683013
  71.4737491  82.7068036  55.6150796  71.3591007  81.8053293  55.9157895
  70.6182009  82.9531733  55.2635613  78.5529329  90.6485776  57.2138297
  78.1093183  89.8622155  56.8959202  79.2146543  90.8364927  56.5482188
  73.3116450  92.1781578  51.7398976  73.8623875  92.0498641  50.9675969
  72.4727926  92.4776467  51.3893868  80.6510567  90.9288576  55.2419698
  80.6329043  91.7497457  54.7499967  81.5730487  90.8042652  55.4669839
  77.1083621  88.4432706  56.0843207  77.6411958  87.6820994  55.8542515
  76.5797702  88.1506358  56.8267361  68.3439167  85.8726302  44.4325451
  69.1814389  86.2823311  44.2159158  68.5217435  84.9325744  44.4025644
  80.2403599  83.5401383  40.1209284  79.7250222  84.3105988  40.3597671
  79.9680908  82.8666519  40.7442345  77.8250710  78.3851084  45.1794522
  76.9692306  77.9957934  45.0000161  78.2377662  78.4643045  44.3194307
  85.2137873  86.2933738  42.0562457  84.4367316  85.9544897  41.6117619
  85.8929354  86.2986361  41.3817422  80.0289902  81.4128475  41.9469065
  79.7240038  81.7274624  42.7979208  80.9820344  81.4909895  41.9896398
  78.4736334  87.5718698  43.5962019  77.9457696  86.8371458  43.2835256
  77.9723837  88.3493375  43.3501987  83.4529180  85.7667719  48.7129065
  82.7952855  86.4566980  48.8009194  84.2569579  86.1564151  49.0563051
  82.2634639  84.1212092  46.7633007  82.7766521  84.7542083  47.2654716
  82.9135863  83.5213287  46.3976367  73.5324649  80.2642826  39.9764515
  72.6961961  80.6017512  40.2973790  73.3929418  80.1291805  39.0391652
  76.6188934  85.3898909  36.5996992  75.7115996  85.1588162  36.7988141
  77.1159966  84.5936528  36.7870973  79.5257013  94.0996416  39.5193678
  78.8518712  94.4028113  40.1278636  79.9122835  94.9025496  39.1699135
  78.7415470  81.5961547  49.0091347  77.8238031  81.8176494  48.8513035
  79.1575613  81.6707858  48.1503055  79.5250518  82.9952963  44.1394028
  80.2722336  83.5074360  43.8301150  79.7942107  82.6737015  44.9998421
  77.7977168  85.4911503  41.1220982  76.8888387  85.2070536  41.2193452
  77.8272251  85.9110582  40.2624289  83.0296435  89.1018093  44.8912149
  82.5758762  88.2609003  44.9477340  82.3990402  89.7379491  45.2286930
  81.9729355  80.0310079  46.1212817  81.2352111  79.5187465  46.4523059
  82.2256128  79.5910461  45.3096094  81.4729374  90.9394590  45.8261967
  81.7652349  91.4999647  45.1074333  81.9827995  91.2323151  46.5815127
  68.3665338  83.2117018  45.1036184  68.1689738  82.6186378  44.3787251
  67.8112002  82.9069228  45.8212123  76.3462062  83.1040124  47.2230777
  76.4010672  82.1513960  47.1473254  75.5353264  83.2599563  47.7072076
  77.4953255  87.0320247  38.4609060  77.0572685  86.3156106  38.0014698
  78.2363696  87.2596362  37.8994152  74.2854422  81.7217184  44.9821156
  73.4722287  82.0211354  45.3886348  74.7813416  81.3272873  45.6995638
  76.4363000  91.7174941  46.9155421  76.3939178  91.9435787  45.9863953
  77.3525698  91.4838315  47.0641222  79.8828633  82.1859008  53.8136050
  80.2378021  82.4130481  54.6730516  80.5300765  82.5177385  53.1913305
  85.6126370  85.3077444  44.5185379  85.4744269  85.4979040  43.5906568
  85.2562589  86.0696827  44.9753430  85.6395750  87.3753971  49.5296650
  86.0732257  87.2829260  50.3779704  86.3527331  87.3511472  48.8916666
  74.5528800  88.5937970  46.7117383  75.3469399  88.0988290  46.5099958
  73.8420493  88.0655833  46.3485089  79.3723645  90.9756065  51.0629751
  79.4260667  91.5447002  51.8307467  78.5038426  91.1457950  50.6983788
  70.8611564  82.7381052  42.7877136  69.9309152  82.6765507  43.0047098
  70.9569036  82.2157004  41.9913777  70.7797113  79.2635864  45.3755378
  71.0403930  80.1781198  45.2664538  71.6014285  78.7960307  45.5251991
  72.2522038  80.6773622  52.5454202  72.9245092  80.4690984  51.8966851
  71.4251825  80.4795708  52.1059435  86.5011299  87.4177672  52.0629536
  86.6947190  88.3223482  52.3088811  86.4011918  86.9585091  52.8968121
  81.5626408  87.5684415  57.6370416  81.4111915  87.3394966  56.7200500
  81.5531088  88.5255016  57.6501761  78.3311745  85.1416327  52.6216683
  79.2603805  85.2927487  52.4485650  77.9102775  85.2300348  51.7665329
  77.1300076  89.1666992  50.3915221  76.9911162  88.7985776  51.2641159
  76.3414673  89.6814631  50.2199178  77.7248228  94.2676088  41.7340757
  77.8999984  93.7964131  42.5486380  77.0381016  94.8941854  41.9622018
  78.6805291  88.5448594  47.7804058  78.3455124  88.5049364  48.6761708
  78.1809237  87.8793310  47.3074469  72.6549535  83.9516224  53.3056639
  72.5169333  83.2196463  53.9068179  73.5654459  83.8625125  53.0240827
  81.6164483  85.8904629  38.0541118  80.9993654  85.1651457  37.9574171
  81.1480972  86.6513989  37.7108192  75.2831836  83.6636184  52.7940319
  75.9931455  83.0229376  52.7526938  75.2401144  83.9149079  53.7166500
  83.2718615  90.6003537  55.7146898  83.2131161  89.9162757  55.0477481
  83.6738133  91.3422527  55.2627524  73.9960770  80.6501402  54.6135959
  73.4598127  80.1992140  55.2657555  73.4077479  80.7847311  53.8706423
  72.2909314  97.4165451  48.5080617  72.5305912  98.0483975  49.1859636
  71.4478510  97.0653491  48.7945976  73.4063029  80.1090053  37.1762422
  72.5292495  79.9878854  36.8124669  73.8820782  79.3176131  36.9241311
  83.2736022  88.5643121  53.9460878  82.3862801  88.2269043  54.0687277
  83.8434573  87.8326152  54.1829643  64.9265169  84.8967213  47.2703929
  65.6136209  84.5828943  46.6824945  64.7713298  85.8008577  46.9971181
  69.7299891  79.7857409  51.6988953  69.6458080  79.1783079  50.9639363
  68.9082598  80.2766428  51.6998449  76.8037175  93.2244573  50.9122121
  76.7307347  94.0299545  51.4241426  76.3614569  93.4236539  50.0870143
  76.5926955  92.4616343  44.4224943  75.8094477  93.0038024  44.5163167
  77.2919700  92.9790323  44.8219184  79.9023605  78.2710973  47.0659148
  80.3992305  77.5180935  46.7460218  79.1310587  78.3075290  46.5002357
  87.7553363  83.9751338  48.7077440  87.7443239  84.8576054  48.3371373
  86.8870742  83.6222889  48.5131977  79.2635859  93.1231407  53.0680280
  79.9763831  93.7578872  52.9956181  78.7725888  93.2195273  52.2520282
  80.9853386  87.0282660  44.6397572  80.0509665  87.1484123  44.4702276
  81.1630054  86.1255127  44.3757581  76.4858574  80.4128356  46.7930833
  76.1156361  79.8599396  47.4811738  76.9817666  79.8086489  46.2405833
  84.3725937  82.8699979  45.1747606  84.8386389  83.7027971  45.1007908
  84.8233438  82.4044961  45.8792864  74.3147772  90.8725851  53.8885851
  75.0157232  91.5062334  54.0415245  73.8442887  91.2140582  53.1281490
  82.4402168  89.2143801  42.1733758  82.7162012  89.1000395  43.0827632
  81.5706667  88.8161286  42.1345931  82.1149058  83.4270458  51.7138401
  81.4620509  83.6746366  51.0590854  82.4929438  82.6134597  51.3800878
  79.0756232  93.4630152  45.8166571  79.2578627  92.6451807  46.2794324
  79.8989218  93.6797844  45.3791461  79.4098398  92.3898337  43.0781620
  79.9386164  91.8790791  42.4651782  79.6726617  92.0740867  43.9427153
  78.1636631  84.1690269  58.2004438  77.4877268  84.0684399  58.8706813
  78.9864265  84.0129483  58.6640435  69.9115491  90.4062206  50.8216953
  70.4968927  89.6605894  50.9544858  69.7140329  90.7166163  51.7053617
  72.7654146  93.4413453  45.8379396  72.0964521  93.9259581  45.3543436
  72.6267015  93.6882674  46.7522774  64.5033145  82.9767806  49.5421397
  64.5417245  82.4431397  50.3358515  63.9973438  82.4503012  48.9232374
  76.9059414  95.4757197  52.4362054  77.4577722  95.6388818  53.2011139
  77.2465608  96.0661635  51.7642079  71.3576180  79.8955479  56.6856973
  71.9848219  79.5132557  57.2994497  70.5004099  79.6769681  57.0512666
  81.7570289  90.3018454  58.2910709  82.3010193  90.9148413  57.7965663
  81.1757134  90.8598033  58.8077722  68.1341723  81.7031908  42.6175328
  68.4295164  80.7942587  42.5642382  67.2329759  81.6819648  42.2956330
  80.0427802  93.4239172  49.4225736  79.9178941  92.6228912  48.9136682
  80.7006893  93.9185366  48.9339706  71.6635970  79.7787905  48.6002876
  70.9422556  80.3923873  48.4610350  72.4529226  80.3145670  48.5219522
  82.1062710  91.2248192  51.0505286  81.1593046  91.1053544  50.9783613
  82.4545483  90.3370691  51.1331548  69.8629564  79.3846006  42.7414653
  69.5342271  78.5043385  42.5589759  70.2168935  79.3293675  43.6291042
  79.1109143  91.0200909  47.2509639  78.9634106  90.0917616  47.4317209
  79.9362637  91.0420999  46.7666714  72.9771388  79.6718976  43.1090131
  73.3167460  80.2004897  42.3868739  73.4243508  80.0099382  43.8848697
  82.7143265  91.8429467  48.3374511  83.6389813  91.6372329  48.1998962
  82.5458569  91.5945869  49.2463853  74.9639535  78.1693597  41.3083423
  75.6847897  78.5474850  40.8047140  74.3404839  78.8882474  41.4118401
  79.1070658  78.8738746  42.2441756  79.3234272  79.7563384  41.9430584
  78.6264725  78.4824960  41.5147398  73.8469879  81.8324460  48.8212500
  73.7014460  82.1464763  49.7136782  73.3695083  82.4509360  48.2683399
  77.5592393  79.2564348  50.9146517  77.3010170  80.1781418  50.9130848
  77.0277433  78.8594782  51.6046982  82.5038581  92.3615135  43.6936603
  82.6775459  91.7961557  42.9410455  82.9967473  93.1616030  43.5116093
  68.3215541  84.3729804  51.7600162  67.7769009  85.1489612  51.8920436
  69.1994891  84.7200608  51.6019283  75.1103158  77.7041388  44.1380960
  75.2319069  76.7758034  44.3371848  74.8205200  77.7180074  43.2259276
  88.3577973  85.1251558  45.3126903  88.8009119  84.3758883  44.9146026
  87.4804483  85.1161694  44.9300635  83.4913754  91.6781899  40.7933501
  84.1864658  92.2988592  41.0120816  83.8336904  90.8277251  41.0685879
  69.1081563  83.4999700  54.6530318  68.3663299  83.6482336  55.2394949
  68.7874307  83.7607966  53.7897068  85.3905177  89.1281605  42.3220832
  85.9156501  89.4668878  41.5970152  85.3027530  88.1928620  42.1383966
  77.0525226  93.0415678  54.4510708  77.3612352  92.7964825  55.3233408
  77.8500708  93.2462317  53.9629579  77.0745838  95.1953588  46.6816085
  76.6350828  94.7029967  47.3748942  77.8253955  94.6526556  46.4408160
  69.5538177  91.3865129  46.6840713  70.3796197  91.0868901  46.3039357
  69.2032229  90.6172751  47.1330502  74.5219710  90.7391597  48.7538387
  73.8999719  90.0762302  48.4540615  75.1924577  90.7652729  48.0712034
  67.7546782  89.3051455  47.6429647  66.9178690  88.8773630  47.4613648
  67.7270427  89.4983899  48.5800438  74.5944237  79.2173385  58.3470893
  74.6432393  80.0935508  57.9648662  75.1366752  78.6750778  57.7742536
  85.0799083  89.7614508  57.6272030  84.2894627  89.7438647  57.0876529
  84.8432438  90.3002802  58.3821066  85.1996958  86.6106975  54.9404758
  85.2494963  86.4456982  55.8820281  85.0910881  85.7434234  54.5502639
  74.0833217  89.2895521  42.2296847  74.2321337  89.9730985  41.5763520
  74.8899660  89.2700611  42.7446303  82.4900720  82.5937903  56.2564065
  83.3910583  82.4544368  55.9648063  82.5648695  82.7592358  57.1962242
  76.8243526  79.9704758  55.1017251  75.9546835  80.2638324  54.8299840
  77.0603006  80.5545203  55.8224515  86.7015155  89.0303916  55.1846780
  86.4099963  89.3933897  56.0210241  86.0887286  88.3170925  55.0060112
  87.9010837  86.5956796  47.7049350  88.7357729  87.0346600  47.8686910
  88.0369966  86.1195449  46.8857596  84.9502343  84.1536531  53.6526838
  85.4256465  84.3464177  52.8445689  84.0267909  84.2095717  53.4070222
  71.8385850  85.3160698  43.2357916  71.5931892  84.4123028  43.4338126
  72.0081764  85.3177849  42.2937394  79.5282560  76.1884375  52.6182672
  80.0464504  76.9245401  52.2929160  79.1737692  76.4948368  53.4529431
  71.1081497  81.0489056  40.7344078  70.4150742  81.1233411  40.0784114
  70.8633249  80.2849399  41.2565595  77.5828622  91.7843651  39.7008595
  77.0102589  92.4033838  39.2479067  78.1561416  92.3343013  40.2348517
  83.6504012  81.0302291  51.8855143  84.6021435  81.1300389  51.9067367
  83.4807463  80.2380560  52.3953228  81.6718392  78.1157874  52.0714544
  81.0768324  78.3962887  51.3761033  81.3868088  78.6051775  52.8431285
  80.8025882  92.0680801  40.8317177  81.7356555  92.0026363  41.0350052
  80.7149095  92.9037068  40.3731710  83.4313899  91.3846671  37.7921124
  83.3527530  91.0506535  38.6856882  84.2523566  91.8768439  37.7912597
  86.1292090  84.2508411  50.9997443  86.0968410  83.3124411  51.1857127
  86.7392714  84.3292447  50.2663268  77.9675421  83.1204464  37.0424647
  78.9134526  82.9910672  37.1113065  77.5889666  82.3819126  37.5194075
  86.2786578  81.0419454  51.0455726  85.7625627  80.2577911  50.8585655
  87.1626527  80.7138171  51.2102246  91.9468640  85.3124418  50.1403480
  92.6772028  85.0509706  50.7011183  91.3375585  84.5753140  50.1805548
  90.0283937  83.4532280  50.7377931  89.3017101  83.3188245  50.1294423
  89.6131224  83.7609109  51.5434649  77.8514113  87.1722210  58.5025304
  78.7717123  87.3500809  58.6965351  77.8163696  86.2278255  58.3505003
  76.1518338  81.0454440  36.9779532  75.2449793  80.7487553  37.0542246
  76.4294319  80.7484258  36.1113819  67.0696278  82.3660804  47.4278579
  66.7499063  81.5126112  47.1352953  66.5229707  82.5809382  48.1836546
  70.8476186  85.0823245  51.1448085  71.0662196  86.0140352  51.1636119
  71.2601960  84.7231219  51.9302889  75.7204051  80.6556450  60.5350834
  75.6200778  81.6050807  60.4662925  75.5025593  80.3274689  59.6626904
  74.9217123  77.9041375  37.1191512  75.7836287  78.2296274  37.3787329
  75.1067467  77.1172871  36.6064577  66.9384538  85.9863715  49.3971700
  66.2448010  85.5717668  48.8841655  67.6857529  86.0284252  48.8005119
  75.5835321  84.0853589  59.3515896  75.1002403  84.8853949  59.5579785
  75.6696260  84.0961534  58.3983340  68.8521281  85.9181969  47.2737715
  68.8291969  86.0169656  46.3219598  69.1621917  86.7647120  47.5954881
  71.5108659  87.9758124  51.3884330  72.4651912  87.9442066  51.3214261
  71.3121182  87.5148748  52.2034556  72.1008041  86.5459240  53.9555127
  72.9200930  87.0403319  53.9789965  72.3744849  85.6291208  53.9272695
  81.8574637  78.9369992  43.3183083  80.9700492  79.2219643  43.1003278
  82.2728626  78.7763756  42.4710360  85.2089173  78.9616513  47.0337422
  85.9849563  79.4512966  47.3062039  84.4837307  79.3874567  47.4909292
  87.6461732  79.6744132  48.0911363  88.2406223  79.4339868  47.3804671
  87.7188316  78.9551263  48.7184899  69.8658888  93.5177743  48.4054528
  69.7313355  92.7578144  47.8392526  69.4490950  94.2418643  47.9383316
  81.0017851  88.7014667  37.4131103  81.7053701  88.9064669  38.0288758
  80.2780499  89.2691429  37.6780186  81.8315661  84.4524528  43.5333373
  81.7750862  84.9093080  42.6941005  82.3844003  83.6915213  43.3556216
  85.6420467  80.2414260  44.3583492  85.3857401  79.8410896  45.1891700
  85.0173335  80.9558054  44.2333632  89.9532805  82.9810333  46.8654784
  89.3932363  83.0503523  47.6386346  89.3476308  82.8051318  46.1454280
  73.0228013  94.4147060  48.6172970  72.9060398  95.3592493  48.5151660
  72.2020460  94.1120622  49.0058769  82.9104548  89.1397196  39.4629563
  83.7450152  88.7078395  39.2807038  82.7488891  88.9679210  40.3906457
  82.5650440  85.6429309  40.8285902  82.5099244  85.4773581  39.8874346
  81.9396495  86.3505342  40.9848092  67.3542955  80.8797374  54.6547324
  68.0001819  80.3696328  55.1434550  67.1460106  81.6166055  55.2290750
  79.8796347  87.9478221  60.1539465  80.7487507  88.1218874  59.7926100
  79.4003099  88.7672638  60.0315194  74.0482528  95.0675322  51.8328899
  74.9509774  95.0998933  52.1495394  73.8219898  94.1375773  51.8475234
  75.8036130  93.8206309  48.4938977  74.8531761  93.8208170  48.3803350
  76.1068616  93.0739043  47.9775012  71.6940446  78.0264991  58.7522339
  72.5571908  77.6701796  58.9625663  71.1205857  77.6878886  59.4397743
  91.5388823  99.6566847  49.5584740  92.1767233  99.5373595  48.8548080
  91.4209666 100.6047691  49.6172692  88.3478529  99.6094275  49.4946264
  88.0097041  99.4935340  48.6066799  89.2168298  99.2085440  49.4747270
  84.2065345 101.4629752  45.4843155  83.6430210 101.3719689  44.7159443
  84.0917740 100.6429656  45.9645648  88.8298312 100.7629127  55.4532470
  88.8186953 100.3681925  54.5812973  88.9918952 100.0295200  56.0466241
  81.7529777 102.9580943  48.3227376  82.5451069 102.6171768  47.9073675
  81.9926427 103.0675918  49.2429529  89.7864904 105.1300719  40.7957620
  89.1352883 105.7154800  40.4091634  90.5809267 105.6606914  40.8552658
  83.7120531 102.2189857  41.1944755  84.4851407 101.6718844  41.0557630
  84.0645930 103.0834106  41.4059216  85.5505573 103.5466239  54.4011654
  85.2595439 104.4511870  54.2858320  86.1862558 103.5882766  55.1155723
  86.4761780 100.9243087  50.9913013  87.0725353 100.6999110  50.2769976
  86.5336752 100.1827833  51.5938461  86.0486809  98.3782523  38.8263204
  86.3012329  97.8564044  38.0646667  85.1111368  98.2148668  38.9289888
  91.0930092  97.3818301  46.6337948  91.8793181  96.9637724  46.2828365
  91.3568796  98.2864393  46.8019596  91.2640169 102.8191151  41.3326604
  90.6286002 102.8925778  42.0447509  90.9337575 103.4084750  40.6545684
  96.4938519  97.3193534  47.5370926  97.2263691  96.7492751  47.7708756
  95.7377874  96.9315135  47.9777432  85.7683097 100.2810629  41.0287579
  85.6519356  99.6055532  41.6968664  85.8785357  99.7943003  40.2119732
  88.1114638  99.7420776  44.7334269  87.7472846  99.2151397  45.4447190
  88.9681754  99.3519245  44.5600754  94.0163939  91.0315108  51.9965535
  93.6847264  91.9010519  51.7726750  93.4209552  90.7151392  52.6759565
  87.7520125  94.7710675  39.7295617  87.9194528  95.6390912  40.0966088
  87.5617294  94.9337957  38.8056906  90.5095459 103.2327654  51.3961448
  90.2096182 104.1352693  51.2877255  90.1646518 102.9659838  52.2482600
  83.9607940  99.6841451  47.4298152  83.0358436  99.5517665  47.6375844
  84.2092353 100.4635670  47.9268094  93.9092602  95.7510195  49.0758885
  93.0009480  95.6825603  48.7817646  93.8580198  96.2282139  49.9040710
  87.7309346  97.2268333  40.7142284  87.6108971  97.6725384  41.5527764
  87.0361935  97.5753651  40.1555822  81.3216751  99.3274725  48.2641941
  81.4509132  99.5809204  49.1781353  80.6414202  99.9202433  47.9446596
  85.4916238 109.9971975  44.3632415  85.4140268 110.9479800  44.4420896
  84.8877882 109.6517847  45.0207342  87.9833468  97.1699840  57.0193782
  87.2066802  97.7293760  57.0096647  88.6224031  97.6556623  57.5408652
  95.7754249  93.9526633  50.8536759  95.1328629  94.2459166  50.2076553
  95.2709177  93.8379553  51.6589955  93.4294412  97.6989806  41.5422618
  94.3412269  97.9317193  41.3670316  92.9204059  98.2826850  40.9797697
  86.2379840  99.9785293  56.5811749  86.9794525 100.5170337  56.3046573
  85.5316826 100.6051582  56.7383301  91.7135180 102.1214434  55.1783911
  92.1218536 101.6796844  54.4338543  90.9912442 101.5467061  55.4318103
  88.0666250  97.0587041  52.5517468  88.9127445  97.4826454  52.6952117
  88.0064888  96.4020665  53.2456031  92.0363995 102.6815625  48.9336199
  91.4072857 102.8461339  48.2312267  91.6489657 103.0957234  49.7047164
  95.9153227 103.6170062  46.2880563  95.2304265 103.9968964  45.7377597
  95.9997076 104.2265389  47.0212511  91.2165695  94.7191409  54.2098641
  90.9726627  95.4733470  53.6732917  91.4925626  95.0976757  55.0445888
  93.1704158 101.2630021  52.8875907  93.3821053 101.9061781  52.2110288
  93.1233906 100.4292338  52.4197837  90.7730387  93.8747842  49.7912479
  89.9114866  94.1729096  50.0829216  90.7992822  94.0918241  48.8593512
  87.5891957 102.4190033  46.1986285  88.0530302 102.6977736  45.4090907
  87.3248755 101.5173477  46.0159375  84.4816038 101.9661514  49.1366048
  85.0517395 102.3948783  48.4983532  85.0724149 101.6844099  49.8350233
  86.5260843  98.5413185  43.0075850  87.2284886  98.9934229  43.4749776
  86.1941471  97.8997004  43.6355743  84.9741204  97.1324942  57.3827059
  84.3439865  97.8141222  57.6162456  84.8677292  97.0208023  56.4380197
  80.2686177  96.7996738  48.3092983  79.4785231  97.0554266  47.8333094
  80.7597424  97.6145076  48.4145024  94.2849986 104.1401977  51.0598264
  95.1067430 103.7382164  50.7780946  94.2812389 104.0370211  52.0114380
  82.2200922  97.1641317  45.2676460  81.4232085  97.2760011  45.7859956
  81.9926514  97.5027969  44.4017350  88.0506590 103.6886020  53.2158975
  88.1151022 104.1506427  54.0517146  87.3417513 103.0583385  53.3441284
  78.5523880  97.0527228  50.7407974  78.8031918  97.9374238  51.0065550
  79.0883428  96.8731830  49.9683066 102.3755979 100.4840725  47.4083236
 101.6219688  99.9148123  47.2527240 102.5103520 100.4503390  48.3553870
  87.7654607 105.3554128  43.0837955  87.6300282 106.2005663  43.5122803
  88.3064420 105.5573405  42.3203889  84.2521947  91.4345707  59.7452310
  83.8588892  90.8811906  60.4199954  85.0688087  91.7456286  60.1358828
  81.2184005 102.8729566  43.6565880  81.7308525 103.6672816  43.8071445
  81.8706717 102.1755856  43.5899481  83.0278889 105.9895322  45.7388633
  83.2045518 106.9113287  45.5509617  83.8235723 105.6753741  46.1683013
  87.1689908  92.8503587  57.3372567  87.9099621  93.4510740  57.2577029
  87.4007831  92.1081224  56.7790609  82.3131246  98.0359954  55.6150796
  82.1984761  97.1345211  55.9157895  81.4575764  98.2823651  55.2635613
  89.3923084 105.9777694  57.2138297  88.9486938 105.1914073  56.8959202
  90.0540297 106.1656845  56.5482188  84.1510205 107.5073496  51.7398976
  84.7017630 107.3790559  50.9675969  83.3121681 107.8068385  51.3893868
  91.4904322 106.2580494  55.2419698  91.4722797 107.0789375  54.7499967
  92.4124242 106.1334569  55.4669839  87.9477376 103.7724624  56.0843207
  88.4805713 103.0112912  55.8542515  87.4191457 103.4798275  56.8267361
  91.1147071  88.8784690  51.6136848  90.7711340  89.7686331  51.5375959
  91.4826033  88.6886347  50.7506433  79.1832921 101.2018220  44.4325451
  80.0208143 101.6115228  44.2159158  79.3611189 100.2617662  44.4025644
  91.0797354  98.8693301  40.1209284  90.5643977  99.6397905  40.3597671
  90.8074662  98.1958437  40.7442345  88.6644465  93.7143001  45.1794522
  87.8086061  93.3249852  45.0000161  89.0771416  93.7934962  44.3194307
  90.1943611  91.2489345  49.5786082  89.6908407  91.2119480  48.7653887
  90.4874218  92.1582087  49.6382738  86.4386497  91.3328074  48.5852263
  87.3039494  91.1370883  48.2258153  86.5064006  91.1038426  49.5121620
  96.0531628 101.6225655  42.0562457  95.2761070 101.2836815  41.6117619
  96.7323109 101.6278278  41.3817422  90.8683657  96.7420393  41.9469065
  90.5633792  97.0566542  42.7979208  91.8214099  96.8201813  41.9896398
  89.3130089 102.9010616  43.5962019  88.7851450 102.1663376  43.2835256
  88.8117591 103.6785292  43.3501987  94.2922935 101.0959637  48.7129065
  93.6346609 101.7858898  48.8009194  95.0963334 101.4856068  49.0563051
  84.0448816  93.5630282  45.9568630  84.6192568  93.3405464  45.2241823
  84.6319799  93.6318977  46.7097231  93.1028393  99.4504009  46.7633007
  93.6160275 100.0834001  47.2654716  93.7529617  98.8505205  46.3976367
  84.3718403  95.5934743  39.9764515  83.5355716  95.9309430  40.2973790
  84.2323173  95.4583723  39.0391652  86.3471484  90.4371531  44.6843700
  85.6935896  90.1220548  44.0600314  86.3051958  89.8147272  45.4103523
  87.4582689 100.7190826  36.5996992  86.5509750 100.4880080  36.7988141
  87.9553721  99.9228446  36.7870973  90.3650768 109.4288333  39.5193678
  89.6912466 109.7320030  40.1278636  90.7516590 110.2317414  39.1699135
  89.5809224  96.9253465  49.0091347  88.6631786  97.1468412  48.8513035
  89.9969368  96.9999775  48.1503055  90.3644272  98.3244880  44.1394028
  91.1116091  98.8366278  43.8301150  90.6335862  98.0028933  44.9998421
  88.6370922 100.8203421  41.1220982  87.7282141 100.5362454  41.2193452
  88.6666006 101.2402500  40.2624289  93.8690190 104.4310011  44.8912149
  93.4152517 103.5900921  44.9477340  93.2384156 105.0671409  45.2286930
  92.8123109  95.3601997  46.1212817  92.0745866  94.8479383  46.4523059
  93.0649883  94.9202378  45.3096094  92.3123129 106.2686507  45.8261967
  92.6046103 106.8291564  45.1074333  92.8221749 106.5615068  46.5815127
  92.9134736  88.1378249  46.7154586  93.2193613  87.2775612  46.4280501
  93.6387341  88.7295869  46.5153580  79.2059093  98.5408935  45.1036184
  79.0083492  97.9478296  44.3787251  78.6505757  98.2361145  45.8212123
  87.1855816  98.4332042  47.2230777  87.2404426  97.4805878  47.1473254
  86.3747018  98.5891481  47.7072076  88.3347010 102.3612165  38.4609060
  87.8966440 101.6448024  38.0014698  89.0757451 102.5888280  37.8994152
  85.1248176  97.0509101  44.9821156  84.3116042  97.3503272  45.3886348
  85.6207170  96.6564790  45.6995638  87.2756754 107.0466858  46.9155421
  87.2332933 107.2727705  45.9863953  88.1919453 106.8130233  47.0641222
  90.7222388  97.5150926  53.8136050  91.0771776  97.7422399  54.6730516
  91.3694519  97.8469303  53.1913305  96.4520125 100.6369362  44.5185379
  96.3138023 100.8270958  43.5906568  96.0956344 101.3988745  44.9753430
  84.6162251  94.6227457  50.5982391  85.2561630  94.4816216  49.9005354
  83.7839781  94.3361970  50.2220993  96.4789504 102.7045889  49.5296650
  96.9126011 102.6121178  50.3779704  97.1921085 102.6803389  48.8916666
  85.3922555 103.9229887  46.7117383  86.1863153 103.4280208  46.5099958
  84.6814247 103.3947751  46.3485089  90.2117399 106.3047983  51.0629751
  90.2654422 106.8738919  51.8307467  89.3432181 106.4749868  50.6983788
  81.7005318  98.0672969  42.7877136  80.7702906  98.0057425  43.0047098
  81.7962790  97.5448922  41.9913777  81.6190867  94.5927782  45.3755378
  81.8797685  95.5073115  45.2664538  82.4408040  94.1252225  45.5251991
  83.0915793  96.0065539  52.5454202  83.7638846  95.7982901  51.8966851
  82.2645579  95.8087625  52.1059435  97.3405054 102.7469590  52.0629536
  97.5340944 103.6515400  52.3088811  97.2405672 102.2877009  52.8968121
  88.9941365  92.6327480  54.5619863  88.3469280  93.3317430  54.4684340
  89.7642380  93.0663624  54.9296111  92.4020163 102.8976332  57.6370416
  92.2505669 102.6686884  56.7200500  92.3924842 103.8546934  57.6501761
  89.1705499 100.4708245  52.6216683  90.0997559 100.6219405  52.4485650
  88.7496529 100.5592266  51.7665329  87.9693831 104.4958909  50.3915221
  87.8304916 104.1277694  51.2641159  87.1808427 105.0106549  50.2199178
  88.5641983 109.5968006  41.7340757  88.7393738 109.1256049  42.5486380
  87.8774771 110.2233772  41.9622018  89.5199046 103.8740512  47.7804058
  89.1848879 103.8341282  48.6761708  89.0202992 103.2085228  47.3074469
  83.4943290  99.2808142  53.3056639  83.3563088  98.5488381  53.9068179
  84.4048213  99.1917042  53.0240827  92.4558238 101.2196546  38.0541118
  91.8387408 100.4943375  37.9574171  91.9874726 101.9805907  37.7108192
  86.1225591  98.9928101  52.7940319  86.8325209  98.3521294  52.7526938
  86.0794899  99.2440996  53.7166500  94.1112369 105.9295455  55.7146898
  94.0524915 105.2454675  55.0477481  94.5131888 106.6714445  55.2627524
  84.8354525  95.9793319  54.6135959  84.2991882  95.5284058  55.2657555
  84.2471233  96.1139228  53.8706423  83.1303068 112.7457369  48.5080617
  83.3699666 113.3775893  49.1859636  82.2872265 112.3945409  48.7945976
  84.2456784  95.4381971  37.1762422  83.3686250  95.3170772  36.8124669
  84.7214537  94.6468049  36.9241311  94.1129777 103.8935039  53.9460878
  93.2256555 103.5560961  54.0687277  94.6828328 103.1618070  54.1829643
  75.7658924 100.2259131  47.2703929  76.4529963  99.9120861  46.6824945
  75.6107052 101.1300495  46.9971181  80.5693646  95.1149327  51.6988953
  80.4851835  94.5074997  50.9639363  79.7476352  95.6058345  51.6998449
  87.6430930 108.5536491  50.9122121  87.5701101 109.3591463  51.4241426
  87.2008323 108.7528457  50.0870143  87.4320710 107.7908261  44.4224943
  86.6488231 108.3329941  44.5163167  88.1313455 108.3082241  44.8219184
  90.7417360  93.6002891  47.0659148  91.2386059  92.8472853  46.7460218
  89.9704341  93.6367207  46.5002357  98.5947117  99.3043256  48.7077440
  98.5836993 100.1867972  48.3371373  97.7264496  98.9514807  48.5131977
  90.1029613 108.4523325  53.0680280  90.8157586 109.0870790  52.9956181
  89.6119642 108.5487191  52.2520282  91.8247140 102.3574578  44.6397572
  90.8903419 102.4776040  44.4702276  92.0023809 101.4547045  44.3757581
  87.3252328  95.7420274  46.7930833  86.9550116  95.1891314  47.4811738
  87.8211421  95.1378407  46.2405833  95.2119692  98.1991897  45.1747606
  95.6780144  99.0319889  45.1007908  95.6627192  97.7336879  45.8792864
  85.1541527 106.2017769  53.8885851  85.8550986 106.8354252  54.0415245
  84.6836642 106.5432500  53.1281490  93.2795923 104.5435718  42.1733758
  93.5555767 104.4292313  43.0827632  92.4100422 104.1453203  42.1345931
  93.1836354  90.5672484  49.2138507  92.2699434  90.7976711  49.3820714
  93.6129456  90.6510928  50.0652539  92.9542813  98.7562376  51.7138401
  92.3014263  99.0038283  51.0590854  93.3323193  97.9426514  51.3800878
  89.9149987 108.7922069  45.8166571  90.0972381 107.9743725  46.2794324
  90.7382973 109.0089761  45.3791461  90.2492152 107.7190254  43.0781620
  90.7779919 107.2082709  42.4651782  90.5120372 107.4032785  43.9427153
  89.0030386  99.4982187  58.2004438  88.3271023  99.3976316  58.8706813
  89.8258020  99.3421401  58.6640435  80.7509245 105.7354124  50.8216953
  81.3362682 104.9897812  50.9544858  80.5534083 106.0458080  51.7053617
  83.6047900 108.7705371  45.8379396  82.9358276 109.2551499  45.3543436
  83.4660770 109.0174591  46.7522774  75.3426900  98.3059724  49.5421397
  75.3810999  97.7723315  50.3358515  74.8367193  97.7794929  48.9232374
  87.7453169 110.8049115  52.4362054  88.2971477 110.9680736  53.2011139
  88.0859362 111.3953552  51.7642079  82.7217662  93.1524264  53.0383939
  82.7858989  94.0139095  52.6261337  82.6584782  92.5398266  52.3056297
  82.1969935  95.2247397  56.6856973  82.8241973  94.8424474  57.2994497
  81.3397853  95.0061599  57.0512666  92.5964043 105.6310372  58.2910709
  93.1403947 106.2440330  57.7965663  92.0150888 106.1889950  58.8077722
  78.9735477  97.0323826  42.6175328  79.2688918  96.1234504  42.5642382
  78.0723513  97.0111565  42.2956330  90.8821556 108.7531090  49.4225736
  90.7572696 107.9520830  48.9136682  91.5400647 109.2477283  48.9339706
  82.5029724  95.1079823  48.6002876  81.7816310  95.7215790  48.4610350
  83.2922980  95.6437587  48.5219522  92.9456465 106.5540110  51.0505286
  91.9986800 106.4345461  50.9783613  93.2939238 105.6662608  51.1331548
  85.3056038  92.4434249  54.8743528  85.8290440  92.6896546  55.6369838
  85.0868371  93.2754284  54.4546666  80.7023319  94.7137924  42.7414653
  80.3736025  93.8335303  42.5589759  81.0562690  94.6585592  43.6291042
  89.9502898 106.3492826  47.2509639  89.8027860 105.4209534  47.4317209
  90.7756391 106.3712917  46.7666714  83.8165142  95.0010893  43.1090131
  84.1561215  95.5296815  42.3868739  84.2637263  95.3391300  43.8848697
  93.5537020 107.1721385  48.3374511  94.4783567 106.9664246  48.1998962
  93.3852323 106.9237786  49.2463853  86.5108583  93.3847944  52.5593199
  86.1705403  92.5855757  52.9613879  85.8047589  93.6849655  51.9870032
  87.1625055  90.4697257  51.0120522  87.9851124  89.9957735  50.8899412
  87.4063118  91.2487740  51.5119208  85.8033289  93.4985515  41.3083423
  86.5241652  93.8766768  40.8047140  85.1798593  94.2174392  41.4118401
  89.9464412  94.2030664  42.2441756  90.1628027  95.0855302  41.9430584
  89.4658479  93.8116877  41.5147398  84.6863634  97.1616377  48.8212500
  84.5408214  97.4756680  49.7136782  84.2088837  97.7801278  48.2683399
  86.5460016  94.1518925  48.8693390  86.5321585  93.2560019  48.5325688
  87.2632444  94.1589589  49.5031676  88.3986147  94.5856265  50.9146517
  88.1403925  95.5073336  50.9130848  87.8671187  94.1886700  51.6046982
  93.3432336 107.6907053  43.6936603  93.5169213 107.1253475  42.9410455
  93.8361227 108.4907947  43.5116093  79.1609296  99.7021722  51.7600162
  78.6162764 100.4781530  51.8920436  80.0388646 100.0492526  51.6019283
  85.9496912  93.0333306  44.1380960  86.0712824  92.1049952  44.3371848
  85.6598955  93.0471991  43.2259276  88.8188103  90.7188216  47.2747680
  88.8409800  90.7827549  46.3199660  89.2356162  89.8792725  47.4688186
  99.1971727 100.4543476  45.3126903  99.6402873  99.7050801  44.9146026
  98.3198237 100.4453612  44.9300635  94.3307508 107.0073817  40.7933501
  95.0258413 107.6280510  41.0120816  94.6730658 106.1569168  41.0685879
  79.9475318  98.8291618  54.6530318  79.2057054  98.9774253  55.2394949
  79.6268062  99.0899884  53.7897068  96.2298931 104.4573523  42.3220832
  96.7550256 104.7960795  41.5970152  96.1421284 103.5220538  42.1383966
  87.8918980 108.3707596  54.4510708  88.2006107 108.1256743  55.3233408
  88.6894462 108.5754235  53.9629579  87.9139592 110.5245506  46.6816085
  87.4744583 110.0321884  47.3748942  88.6647709 109.9818473  46.4408160
  80.3931931 106.7157047  46.6840713  81.2189951 106.4160819  46.3039357
  80.0425983 105.9464669  47.1330502  85.3613464 106.0683515  48.7538387
  84.7393474 105.4054220  48.4540615  86.0318331 106.0944647  48.0712034
  78.5940536 104.6343373  47.6429647  77.7572445 104.2065547  47.4613648
  78.5664182 104.8275816  48.5800438  85.4337992  94.5465303  58.3470893
  85.4826147  95.4227426  57.9648662  85.9760506  94.0042696  57.7742536
  95.9192838 105.0906426  57.6272030  95.1288381 105.0730565  57.0876529
  95.6826192 105.6294720  58.3821066  96.0390713 101.9398893  54.9404758
  96.0888718 101.7748900  55.8820281  95.9304636 101.0726152  54.5502639
  84.9226971 104.6187438  42.2296847  85.0715092 105.3022903  41.5763520
  85.7293415 104.5992528  42.7446303  93.3294475  97.9229821  56.2564065
  94.2304338  97.7836285  55.9648063  93.4042449  98.0884275  57.1962242
  87.6637280  95.2996675  55.1017251  86.7940590  95.5930241  54.8299840
  87.8996761  95.8837120  55.8224515  97.5408909 104.3595834  55.1846780
  97.2493718 104.7225815  56.0210241  96.9281041 103.6462842  55.0060112
  98.7404592 101.9248714  47.7049350  99.5751483 102.3638518  47.8686910
  98.8763721 101.4487367  46.8857596  95.7896098  99.4828449  53.6526838
  96.2650219  99.6756095  52.8445689  94.8661663  99.5387634  53.4070222
  82.6779604 100.6452616  43.2357916  82.4325646  99.7414946  43.4338126
  82.8475519 100.6469766  42.2937394  90.3676314  91.5176292  52.6182672
  90.8858258  92.2537319  52.2929160  90.0131447  91.8240286  53.4529431
  81.9475252  96.3780973  40.7344078  81.2544497  96.4525328  40.0784114
  81.7027004  95.6141317  41.2565595  90.6188908  87.9376575  48.1383568
  90.8990662  87.2699764  48.7643995  91.4039515  88.1305670  47.6258232
  88.4222377 107.1135569  39.7008595  87.8496344 107.7325756  39.2479067
  88.9955170 107.6634930  40.2348517  94.4897767  96.3594209  51.8855143
  95.4415190  96.4592306  51.9067367  94.3201217  95.5672477  52.3953228
  92.5112146  93.4449792  52.0714544  91.9162078  93.7254805  51.3761033
  92.2261843  93.9343693  52.8431285  91.6419637 107.3972719  40.8317177
  92.5750310 107.3318280  41.0350052  91.5542849 108.2328986  40.3731710
  94.2707653 106.7138589  37.7921124  94.1921285 106.3798453  38.6856882
  95.0917320 107.2060357  37.7912597  96.9685844  99.5800328  50.9997443
  96.9362165  98.6416329  51.1857127  97.5786468  99.6584365  50.2663268
  88.8069175  98.4496381  37.0424647  89.7528280  98.3202590  37.1113065
  88.4283420  97.7111043  37.5194075  97.1180333  96.3711372  51.0455726
  96.6019382  95.5869829  50.8585655  98.0020281  96.0430088  51.2102246
  94.7791060  90.1152387  47.0051539  94.5815881  89.8067476  47.8894871
  95.3890765  90.8414026  47.1349469 102.7862394 100.6416335  50.1403480
 103.5165783 100.3801623  50.7011183 102.1769340  99.9045057  50.1805548
 100.8677691  98.7824198  50.7377931 100.1410855  98.6480163  50.1294423
 100.4524978  99.0901026  51.5434649  88.6907868 102.5014128  58.5025304
  89.6110877 102.6792727  58.6965351  88.6557451 101.5570173  58.3505003
  86.9912092  96.3746358  36.9779532  86.0843548  96.0779471  37.0542246
  87.2688073  96.0776176  36.1113819  77.9090033  97.6952721  47.4278579
  77.5892817  96.8418029  47.1352953  77.3623461  97.9101299  48.1836546
  81.6869940 100.4115162  51.1448085  81.9055950 101.3432270  51.1636119
  82.0995714 100.0523137  51.9302889  88.6074158  90.9183248  43.1323774
  87.7974886  90.5730332  43.5079020  89.2958575  90.6090791  43.7211385
  90.5364706  89.9961294  44.7548070  91.0895745  90.4156748  45.4138093
  90.7734793  89.0697042  44.7971026  86.5597806  95.9848368  60.5350834
  86.4594533  96.9342725  60.4662925  86.3419348  95.6566607  59.6626904
  85.7610877  93.2333293  37.1191512  86.6230041  93.5588191  37.3787329
  85.9461221  92.4464789  36.6064577  77.7778293 101.3155633  49.3971700
  77.0841764 100.9009585  48.8841655  78.5251284 101.3576169  48.8005119
  93.9143514  92.1061819  44.2626735  93.3342183  92.7646624  43.8804787
  93.6479446  91.2839164  43.8514152  92.3647080  91.5066877  46.4648055
  92.8646858  91.6183412  45.6562374  93.0082688  91.2027930  47.1048863
  86.4229076  99.4145507  59.3515896  85.9396157 100.2145867  59.5579785
  86.5090015  99.4253452  58.3983340  79.6915035 101.2473886  47.2737715
  79.6685723 101.3461574  46.3219598  80.0015672 102.0939037  47.5954881
  82.3502413 103.3050042  51.3884330  83.3045667 103.2733984  51.3214261
  82.1514937 102.8440665  52.2034556  82.9401795 101.8751158  53.9555127
  83.7594684 102.3695236  53.9789965  83.2138603 100.9583126  53.9272695
  92.6968392  94.2661910  43.3183083  91.8094247  94.5511560  43.1003278
  93.1122381  94.1055673  42.4710360  96.0482928  94.2908431  47.0337422
  96.8243318  94.7804883  47.3062039  95.3231062  94.7166485  47.4909292
  98.4855486  95.0036050  48.0911363  99.0799977  94.7631786  47.3804671
  98.5582070  94.2843181  48.7184899  80.7052642 108.8469661  48.4054528
  80.5707110 108.0870062  47.8392526  80.2884704 109.5710561  47.9383316
  91.8411605 104.0306585  37.4131103  92.5447455 104.2356587  38.0288758
  91.1174254 104.5983346  37.6780186  92.6709415  99.7816446  43.5333373
  92.6144617 100.2384997  42.6941005  93.2237758  99.0207130  43.3556216
  96.4814221  95.5706178  44.3583492  96.2251155  95.1702813  45.1891700
  95.8567089  96.2849972  44.2333632 100.7926559  98.3102251  46.8654784
 100.2326117  98.3795440  47.6386346 100.1870062  98.1343236  46.1454280
  83.8621768 109.7438978  48.6172970  83.7454152 110.6884411  48.5151660
  83.0414214 109.4412540  49.0058769  93.7498302 104.4689114  39.4629563
  94.5843906 104.0370312  39.2807038  93.5882645 104.2971127  40.3906457
  93.4044195 100.9721227  40.8285902  93.3492998 100.8065498  39.8874346
  92.7790250 101.6797260  40.9848092  78.1936710  96.2089291  54.6547324
  78.8395573  95.6988245  55.1434550  77.9853861  96.9457973  55.2290750
  90.7190102 103.2770139  60.1539465  91.5881261 103.4510791  59.7926100
  90.2396853 104.0964556  60.0315194  86.7140320  90.4729336  40.4071221
  86.7018990  91.4171176  40.5639491  87.6063742  90.2899481  40.1130682
  84.8876282 110.3967240  51.8328899  85.7903529 110.4290850  52.1495394
  84.6613652 109.4667691  51.8475234  86.6429884 109.1498226  48.4938977
  85.6925515 109.1500088  48.3803350  86.9462370 108.4030961  47.9775012
  90.5292440  87.0672113  44.6617157  89.7624835  86.5130599  44.8073840
  90.9403145  87.1393981  45.5231309  82.5334201  93.3556908  58.7522339
  83.3965662  92.9993713  58.9625663  81.9599611  93.0170803  59.4397743
 102.3782578 114.9858765  49.5584740 103.0160987 114.8665512  48.8548080
 102.2603420 115.9339609  49.6172692  99.1872284 114.9386193  49.4946264
  98.8490795 114.8227258  48.6066799 100.0562052 114.5377358  49.4747270
  95.0459100 116.7921669  45.4843155  94.4823965 116.7011606  44.7159443
  94.9311495 115.9721574  45.9645648  99.6692067 116.0921045  55.4532470
  99.6580708 115.6973843  54.5812973  99.8312706 115.3587117  56.0466241
  92.5923531 118.2872861  48.3227376  93.3844823 117.9463686  47.9073675
  92.8320182 118.3967836  49.2429529  94.5514285 117.5481774  41.1944755
  95.3245161 117.0010761  41.0557630  94.9039684 118.4126024  41.4059216
  96.3899328 118.8758156  54.4011654  96.0989194 119.7803787  54.2858320
  97.0256312 118.9174684  55.1155723  97.3155535 116.2535005  50.9913013
  97.9119107 116.0291027  50.2769976  97.3730506 115.5119750  51.5938461
  96.8880563 113.7074440  38.8263204  97.1406084 113.1855962  38.0646667
  95.9505122 113.5440586  38.9289888 101.9323846 112.7110219  46.6337948
 102.7186935 112.2929642  46.2828365 102.1962550 113.6156311  46.8019596
 102.1033923 118.1483069  41.3326604 101.4679756 118.2217696  42.0447509
 101.7731330 118.7376668  40.6545684 107.3332273 112.6485452  47.5370926
 108.0657445 112.0784669  47.7708756 106.5771629 112.2607052  47.9777432
  96.6076852 115.6102546  41.0287579  96.4913110 114.9347450  41.6968664
  96.7179112 115.1234920  40.2119732  98.9508393 115.0712693  44.7334269
  98.5866600 114.5443314  45.4447190  99.8075509 114.6811162  44.5600754
 104.8557693 106.3607026  51.9965535 104.5241018 107.2302437  51.7726750
 104.2603307 106.0443310  52.6759565  98.5913880 110.1002593  39.7295617
  98.7588282 110.9682829  40.0966088  98.4011049 110.2629875  38.8056906
 101.3489213 118.5619572  51.3961448 101.0489936 119.4644611  51.2877255
 101.0040273 118.2951755  52.2482600  94.8001695 115.0133369  47.4298152
  93.8752191 114.8809583  47.6375844  95.0486108 115.7927588  47.9268094
 104.7486357 111.0802112  49.0758885 103.8403234 111.0117521  48.7817646
 104.6973953 111.5574057  49.9040710  98.5703101 112.5560251  40.7142284
  98.4502726 113.0017301  41.5527764  97.8755689 112.9045568  40.1555822
  92.1610506 114.6566642  48.2641941  92.2902887 114.9101121  49.1781353
  91.4807957 115.2494350  47.9446596  98.8227223 112.4991758  57.0193782
  98.0460557 113.0585678  57.0096647  99.4617786 112.9848541  57.5408652
 106.6148003 109.2818551  50.8536759 105.9722383 109.5751084  50.2076553
 106.1102932 109.1671471  51.6589955 104.2688167 113.0281724  41.5422618
 105.1806023 113.2609111  41.3670316 103.7597814 113.6118768  40.9797697
  97.0773595 115.3077211  56.5811749  97.8188279 115.8462255  56.3046573
  96.3710580 115.9343500  56.7383301 102.5528935 117.4506352  55.1783911
 102.9612291 117.0088762  54.4338543 101.8306196 116.8758979  55.4318103
  98.9060005 112.3878958  52.5517468  99.7521200 112.8118372  52.6952117
  98.8458642 111.7312583  53.2456031 102.8757749 118.0107542  48.9336199
 102.2466612 118.1753256  48.2312267 102.4883411 118.4249152  49.7047164
 102.0559450 110.0483327  54.2098641 101.8120382 110.8025387  53.6732917
 102.3319380 110.4268674  55.0445888 104.0097913 116.5921939  52.8875907
 104.2214808 117.2353699  52.2110288 103.9627661 115.7584256  52.4197837
 101.6124142 109.2039760  49.7912479 100.7508621 109.5021013  50.0829216
 101.6386576 109.4210159  48.8593512  98.4285711 117.7481950  46.1986285
  98.8924057 118.0269653  45.4090907  98.1642509 116.8465395  46.0159375
  95.3209792 117.2953432  49.1366048  95.8911149 117.7240700  48.4983532
  95.9117904 117.0136017  49.8350233  97.3654597 113.8705103  43.0075850
  98.0678640 114.3226146  43.4749776  97.0335226 113.2288922  43.6355743
  95.8134959 112.4616859  57.3827059  95.1833619 113.1433140  57.6162456
  95.7071047 112.3499941  56.4380197  91.1079931 112.1288655  48.3092983
  90.3178985 112.3846184  47.8333094  91.5991178 112.9436993  48.4145024
  93.0594676 112.4933235  45.2676460  92.2625840 112.6051929  45.7859956
  92.8320269 112.8319887  44.4017350  98.8900344 119.0177938  53.2158975
  98.9544777 119.4798345  54.0517146  98.1811268 118.3875303  53.3441284
  89.3917634 112.3819146  50.7407974  89.6425672 113.2666156  51.0065550
  89.9277182 112.2023747  49.9683066  98.6048362 120.6846045  43.0837955
  98.4694037 121.5297581  43.5122803  99.1458174 120.8865323  42.3203889
  95.0915701 106.7637625  59.7452310  94.6982647 106.2103824  60.4199954
  95.9081842 107.0748204  60.1358828  92.0577759 118.2021483  43.6565880
  92.5702280 118.9964734  43.8071445  92.7100472 117.5047774  43.5899481
  93.8672644 121.3187240  45.7388633  94.0439272 122.2405204  45.5509617
  94.6629477 121.0045659  46.1683013  98.0083662 108.1795504  57.3372567
  98.7493376 108.7802657  57.2577029  98.2401585 107.4373142  56.7790609
  93.1525000 113.3651872  55.6150796  93.0378516 112.4637129  55.9157895
  92.2969518 113.6115568  55.2635613  94.9903959 122.8365413  51.7398976
  95.5411384 122.7082477  50.9675969  94.1515435 123.1360302  51.3893868
  98.7871130 119.1016541  56.0843207  99.3199467 118.3404829  55.8542515
  98.2585211 118.8090193  56.8267361 101.9540825 104.2076607  51.6136848
 101.6105095 105.0978249  51.5375959 102.3219788 104.0178265  50.7506433
  90.0226676 116.5310138  44.4325451  90.8601898 116.9407146  44.2159158
  90.2004944 115.5909580  44.4025644 101.9191108 114.1985218  40.1209284
 101.4037731 114.9689823  40.3597671 101.6468416 113.5250354  40.7442345
  99.5038219 109.0434919  45.1794522  98.6479815 108.6541769  45.0000161
  99.9165171 109.1226880  44.3194307 101.0337366 106.5781262  49.5786082
 100.5302161 106.5411397  48.7653887 101.3267973 107.4874005  49.6382738
  97.2780252 106.6619992  48.5852263  98.1433248 106.4662801  48.2258153
  97.3457760 106.4330344  49.5121620 101.7077411 112.0712310  41.9469065
 101.4027547 112.3858460  42.7979208 102.6607853 112.1493730  41.9896398
 100.1523843 118.2302534  43.5962019  99.6245205 117.4955293  43.2835256
  99.6511346 119.0077210  43.3501987  94.8842571 108.8922200  45.9568630
  95.4586323 108.6697381  45.2241823  95.4713553 108.9610894  46.7097231
 103.9422148 114.7795927  46.7633007 104.4554030 115.4125919  47.2654716
 104.5923372 114.1797122  46.3976367  95.2112158 110.9226661  39.9764515
  94.3749470 111.2601348  40.2973790  95.0716927 110.7875641  39.0391652
  97.1865238 105.7663449  44.6843700  96.5329651 105.4512466  44.0600314
  97.1445713 105.1439189  45.4103523  98.2976443 116.0482744  36.5996992
  97.3903505 115.8171997  36.7988141  98.7947475 115.2520363  36.7870973
 100.4202979 112.2545382  49.0091347  99.5025540 112.4760329  48.8513035
 100.8363122 112.3291693  48.1503055 101.2038026 113.6536798  44.1394028
 101.9509845 114.1658195  43.8301150 101.4729616 113.3320851  44.9998421
  99.4764677 116.1495339  41.1220982  98.5675896 115.8654372  41.2193452
  99.5059760 116.5694417  40.2624289 103.6516864 110.6893914  46.1212817
 102.9139620 110.1771301  46.4523059 103.9043637 110.2494296  45.3096094
 103.7528491 103.4670166  46.7154586 104.0587368 102.6067530  46.4280501
 104.4781096 104.0587787  46.5153580  90.0452847 113.8700853  45.1036184
  89.8477247 113.2770214  44.3787251  89.4899511 113.5653063  45.8212123
  98.0249571 113.7623959  47.2230777  98.0798180 112.8097796  47.1473254
  97.2140773 113.9183399  47.7072076  99.1740764 117.6904083  38.4609060
  98.7360194 116.9739941  38.0014698  99.9151205 117.9180197  37.8994152
  95.9641931 112.3801019  44.9821156  95.1509796 112.6795190  45.3886348
  96.4600925 111.9856708  45.6995638 101.5616142 112.8442844  53.8136050
 101.9165530 113.0714317  54.6730516 102.2088274 113.1761220  53.1913305
  95.4556005 109.9519375  50.5982391  96.0955385 109.8108134  49.9005354
  94.6233536 109.6653888  50.2220993  96.2316309 119.2521805  46.7117383
  97.0256908 118.7572125  46.5099958  95.5208002 118.7239668  46.3485089
  92.5399073 113.3964887  42.7877136  91.6096661 113.3349342  43.0047098
  92.6356545 112.8740840  41.9913777  92.4584622 109.9219700  45.3755378
  92.7191439 110.8365033  45.2664538  93.2801794 109.4544142  45.5251991
  93.9309547 111.3357457  52.5454202  94.6032601 111.1274819  51.8966851
  93.1039334 111.1379543  52.1059435  99.8335119 107.9619398  54.5619863
  99.1863034 108.6609347  54.4684340 100.6036135 108.3955542  54.9296111
 100.0099254 115.8000163  52.6216683 100.9391314 115.9511322  52.4485650
  99.5890284 115.8884183  51.7665329  98.8087585 119.8250827  50.3915221
  98.6698671 119.4569612  51.2641159  98.0202182 120.3398467  50.2199178
 100.3592800 119.2032430  47.7804058 100.0242633 119.1633200  48.6761708
  99.8596746 118.5377146  47.3074469  94.3337044 114.6100060  53.3056639
  94.1956842 113.8780299  53.9068179  95.2441968 114.5208960  53.0240827
 103.2951992 116.5488464  38.0541118 102.6781163 115.8235292  37.9574171
 102.8268481 117.3097824  37.7108192  96.9619345 114.3220019  52.7940319
  97.6718964 113.6813211  52.7526938  96.9188653 114.5732914  53.7166500
  95.6748279 111.3085237  54.6135959  95.1385636 110.8575976  55.2657555
  95.0864987 111.4431146  53.8706423  95.0850538 110.7673888  37.1762422
  94.2080004 110.6462689  36.8124669  95.5608291 109.9759967  36.9241311
  86.6052678 115.5551048  47.2703929  87.2923718 115.2412778  46.6824945
  86.4500807 116.4592413  46.9971181  91.4087400 110.4441245  51.6988953
  91.3245589 109.8366914  50.9639363  90.5870107 110.9350263  51.6998449
 101.5811114 108.9294808  47.0659148 102.0779814 108.1764771  46.7460218
 100.8098096 108.9659125  46.5002357 102.6640895 117.6866495  44.6397572
 101.7297174 117.8067958  44.4702276 102.8417563 116.7838962  44.3757581
  98.1646083 111.0712191  46.7930833  97.7943870 110.5183232  47.4811738
  98.6605175 110.4670325  46.2405833 106.0513446 113.5283815  45.1747606
 106.5173898 114.3611806  45.1007908 106.5020947 113.0628796  45.8792864
  95.9935281 121.5309686  53.8885851  96.6944741 122.1646169  54.0415245
  95.5230396 121.8724418  53.1281490 104.0230109 105.8964402  49.2138507
 103.1093189 106.1268629  49.3820714 104.4523210 105.9802846  50.0652539
 103.7936567 114.0854294  51.7138401 103.1408018 114.3330201  51.0590854
 104.1716947 113.2718432  51.3800878  99.8424140 114.8274105  58.2004438
  99.1664777 114.7268234  58.8706813 100.6651774 114.6713319  58.6640435
  91.5903000 121.0646041  50.8216953  92.1756436 120.3189729  50.9544858
  91.3927838 121.3749998  51.7053617  94.4441655 124.0997289  45.8379396
  93.7752030 124.5843416  45.3543436  94.3054524 124.3466509  46.7522774
  86.1820654 113.6351642  49.5421397  86.2204754 113.1015232  50.3358515
  85.6760947 113.1086847  48.9232374  93.5611417 108.4816182  53.0383939
  93.6252743 109.3431013  52.6261337  93.4978537 107.8690184  52.3056297
  93.0363689 110.5539315  56.6856973  93.6635728 110.1716392  57.2994497
  92.1791608 110.3353517  57.0512666  89.8129232 112.3615744  42.6175328
  90.1082673 111.4526422  42.5642382  88.9117268 112.3403483  42.2956330
  93.3423479 110.4371740  48.6002876  92.6210065 111.0507708  48.4610350
  94.1316735 110.9729505  48.5219522  96.1449792 107.7726167  54.8743528
  96.6684194 108.0188463  55.6369838  95.9262126 108.6046202  54.4546666
  91.5417073 110.0429841  42.7414653  91.2129780 109.1627220  42.5589759
  91.8956444 109.9877510  43.6291042  94.6558897 110.3302811  43.1090131
  94.9954969 110.8588732  42.3868739  95.1031017 110.6683217  43.8848697
  97.3502337 108.7139862  52.5593199  97.0099158 107.9147675  52.9613879
  96.6441344 109.0141573  51.9870032  98.0018809 105.7989174  51.0120522
  98.8244879 105.3249652  50.8899412  98.2456873 106.5779658  51.5119208
  96.6427044 108.8277433  41.3083423  97.3635406 109.2058686  40.8047140
  96.0192348 109.5466310  41.4118401 100.7858167 109.5322582  42.2441756
 101.0021781 110.4147220  41.9430584 100.3052234 109.1408795  41.5147398
  95.5257388 112.4908295  48.8212500  95.3801969 112.8048598  49.7136782
  95.0482592 113.1093195  48.2683399  97.3853771 109.4810843  48.8693390
  97.3715340 108.5851936  48.5325688  98.1026199 109.4881507  49.5031676
  99.2379902 109.9148183  50.9146517  98.9797679 110.8365254  50.9130848
  98.7064942 109.5178618  51.6046982  90.0003050 115.0313639  51.7600162
  89.4556518 115.8073447  51.8920436  90.8782400 115.3784444  51.6019283
  96.7890667 108.3625223  44.1380960  96.9106578 107.4341869  44.3371848
  96.4992709 108.3763909  43.2259276  99.6581857 106.0480134  47.2747680
  99.6803554 106.1119467  46.3199660 100.0749916 105.2084642  47.4688186
  90.7869072 114.1583536  54.6530318  90.0450808 114.3066171  55.2394949
  90.4661816 114.4191801  53.7897068  91.2325686 122.0448964  46.6840713
  92.0583706 121.7452736  46.3039357  90.8819738 121.2756587  47.1330502
  96.2007219 121.3975433  48.7538387  95.5787228 120.7346138  48.4540615
  96.8712086 121.4236564  48.0712034  89.4334291 119.9635291  47.6429647
  88.5966199 119.5357465  47.4613648  89.4057936 120.1567734  48.5800438
  96.2731746 109.8757221  58.3470893  96.3219902 110.7519343  57.9648662
  96.8154261 109.3334614  57.7742536  95.7620726 119.9479356  42.2296847
  95.9108846 120.6314820  41.5763520  96.5687169 119.9284446  42.7446303
 104.1688229 113.2521738  56.2564065 105.0698092 113.1128203  55.9648063
 104.2436204 113.4176193  57.1962242  98.5031035 110.6288593  55.1017251
  97.6334344 110.9222159  54.8299840  98.7390515 111.2129038  55.8224515
 106.6289852 114.8120366  53.6526838 107.1043974 115.0048013  52.8445689
 105.7055418 114.8679552  53.4070222  93.5173359 115.9744534  43.2357916
  93.2719401 115.0706864  43.4338126  93.6869273 115.9761684  42.2937394
 101.2070069 106.8468210  52.6182672 101.7252012 107.5829237  52.2929160
 100.8525201 107.1532203  53.4529431  92.7869006 111.7072891  40.7344078
  92.0938251 111.7817246  40.0784114  92.5420758 110.9433235  41.2565595
 101.4582663 103.2668492  48.1383568 101.7384417 102.5991682  48.7643995
 102.2433270 103.4597588  47.6258232 105.3291521 111.6886126  51.8855143
 106.2808944 111.7884224  51.9067367 105.1594972 110.8964395  52.3953228
 103.3505901 108.7741710  52.0714544 102.7555833 109.0546722  51.3761033
 103.0655597 109.2635611  52.8431285  99.6462930 113.7788299  37.0424647
 100.5922035 113.6494507  37.1113065  99.2677175 113.0402961  37.5194075
 107.9574087 111.7003290  51.0455726 107.4413136 110.9161746  50.8585655
 108.8414036 111.3722006  51.2102246 105.6184814 105.4444305  47.0051539
 105.4209635 105.1359393  47.8894871 106.2284520 106.1705944  47.1349469
  99.5301622 117.8306045  58.5025304 100.4504632 118.0084644  58.6965351
  99.4951205 116.8862091  58.3505003  97.8305847 111.7038275  36.9779532
  96.9237302 111.4071388  37.0542246  98.1081828 111.4068094  36.1113819
  88.7483787 113.0244639  47.4278579  88.4286572 112.1709947  47.1352953
  88.2017216 113.2393217  48.1836546  92.5263695 115.7407080  51.1448085
  92.7449705 116.6724188  51.1636119  92.9389469 115.3815054  51.9302889
  99.4467913 106.2475165  43.1323774  98.6368641 105.9022250  43.5079020
 100.1352330 105.9382709  43.7211385 101.3758461 105.3253212  44.7548070
 101.9289500 105.7448665  45.4138093 101.6128547 104.3988960  44.7971026
  97.3991560 111.3140286  60.5350834  97.2988287 112.2634643  60.4662925
  97.1813102 110.9858525  59.6626904  96.6004632 108.5625211  37.1191512
  97.4623796 108.8880109  37.3787329  96.7854976 107.7756707  36.6064577
  88.6172047 116.6447550  49.3971700  87.9235519 116.2301503  48.8841655
  89.3645038 116.6868087  48.8005119 104.7537268 107.4353737  44.2626735
 104.1735937 108.0938541  43.8804787 104.4873201 106.6131082  43.8514152
 103.2040834 106.8358795  46.4648055 103.7040613 106.9475329  45.6562374
 103.8476442 106.5319848  47.1048863  97.2622830 114.7437424  59.3515896
  96.7789912 115.5437785  59.5579785  97.3483769 114.7545369  58.3983340
  90.5308790 116.5765804  47.2737715  90.5079478 116.6753491  46.3219598
  90.8409426 117.4230955  47.5954881  93.1896168 118.6341959  51.3884330
  94.1439421 118.6025902  51.3214261  92.9908691 118.1732583  52.2034556
  93.7795550 117.2043075  53.9555127  94.5988439 117.6987154  53.9789965
  94.0532358 116.2875043  53.9272695 103.5362146 109.5953828  43.3183083
 102.6488001 109.8803478  43.1003278 103.9516135 109.4347591  42.4710360
 106.8876682 109.6200349  47.0337422 107.6637072 110.1096801  47.3062039
 106.1624816 110.0458403  47.4909292 109.3249241 110.3327968  48.0911363
 109.9193732 110.0923704  47.3804671 109.3975825 109.6135098  48.7184899
  91.5446397 124.1761579  48.4054528  91.4100864 123.4161980  47.8392526
  91.1278459 124.9002479  47.9383316 103.5103170 115.1108363  43.5333373
 103.4538371 115.5676915  42.6941005 104.0631512 114.3499048  43.3556216
 107.3207976 110.8998095  44.3583492 107.0644910 110.4994731  45.1891700
 106.6960844 111.6141889  44.2333632 104.2437949 116.3013145  40.8285902
 104.1886753 116.1357416  39.8874346 103.6184004 117.0089178  40.9848092
  89.0330464 111.5381209  54.6547324  89.6789328 111.0280163  55.1434550
  88.8247615 112.2749891  55.2290750  97.5534075 105.8021254  40.4071221
  97.5412744 106.7463094  40.5639491  98.4457496 105.6191399  40.1130682
 101.3686194 102.3964030  44.6617157 100.6018590 101.8422517  44.8073840
 101.7796899 102.4685899  45.5231309  93.3727955 108.6848826  58.7522339
  94.2359417 108.3285631  58.9625663  92.7993366 108.3462721  59.4397743
  37.3420052   0.0169381  36.2830046  37.9798462  -0.1023871  35.5793386
  37.2240895   0.9650225  36.3417998  34.1509758  -0.0303191  36.2191571
  33.8128270  -0.1462126  35.3312106  35.0199526  -0.4312025  36.1992577
  34.6329541   1.1231661  42.1777776  34.6218182   0.7284459  41.3058280
  34.7950181   0.3897734  42.7711548  27.5561006   3.3183478  35.0472682
  28.3482298   2.9774302  34.6318982  27.7957656   3.4278453  35.9674836
  31.3536802   3.9068773  41.1256960  31.0626668   4.8114404  41.0103627
  31.9893787   3.9485301  41.8401030  32.2793009   1.2845622  37.7158320
  32.8756581   1.0601644  37.0015283  32.3367981   0.5430367  38.3183768
  42.2969747  -2.3203932  34.2616233  43.0294919  -2.8904715  34.4954062
  41.5409103  -2.7082331  34.7022738  39.8195168  -8.6082357  38.7210841
  39.4878493  -7.7386946  38.4972056  39.2240781  -8.9246073  39.4004872
  36.3126687   3.5930189  38.1206754  36.0127410   4.4955227  38.0122561
  35.9677747   3.3262372  38.9727907  39.7123831  -3.8887271  35.8004191
  38.8040708  -3.9571863  35.5062952  39.6611427  -3.4115326  36.6286017
  31.2947467  10.3574509  31.0877722  31.2171497  11.3082334  31.1666202
  30.6909111  10.0120381  31.7452648  33.7864697  -2.4697626  43.7439089
  33.0098031  -1.9103706  43.7341953  34.4255260  -1.9840843  44.2653959
  41.5785478  -5.6870833  37.5782065  40.9359858  -5.3938300  36.9321860
  41.0740406  -5.8017913  38.3835262  32.0411069   0.3387828  43.3057056
  32.7825754   0.8772872  43.0291879  31.3348055   0.9654116  43.4628608
  37.5166409   2.4816968  41.9029217  37.9249765   2.0399379  41.1583850
  36.7943670   1.9069596  42.1563410  33.8697479  -2.5810425  39.2762774
  34.7158674  -2.1571012  39.4197423  33.8096117  -3.2376801  39.9701337
  37.8395224   3.0418159  35.6581506  37.2104086   3.2063873  34.9557574
  37.4520886   3.4559768  36.4292470  41.7184455   3.9772597  33.0125870
  41.0335494   4.3571498  32.4622903  41.8028305   4.5867923  33.7457818
  37.0196924  -4.9206057  40.9343948  36.7757856  -4.1663996  40.3978223
  37.2956855  -4.5420709  41.7691195  38.9735387   1.6232556  39.6121213
  39.1852282   2.2664316  38.9355594  38.9265135   0.7894872  39.1443143
  33.3923185   2.7792567  32.9231591  33.8561531   3.0580270  32.1336214
  33.1279983   1.8776011  32.7404682  30.2847266   2.3264048  35.8611354
  30.8548624   2.7551317  35.2228839  30.8755378   2.0446633  36.5595540
  30.7772433  -2.5072524  44.1072366  30.1471094  -1.8256243  44.3407763
  30.6708521  -2.6189443  43.1625504  40.0881215   4.5004511  37.7843571
  40.9098659   4.0984698  37.5026252  40.0843618   4.3972745  38.7359687
  33.8537818   4.0488554  39.9404281  33.9182251   4.5108962  40.7762453
  33.1448742   3.4185919  40.0686591  48.1787208   0.8443260  34.1328542
  47.4250916   0.2750658  33.9772547  48.3134749   0.8105924  35.0799177
  28.8310118   6.3497856  32.4633940  29.0076746   7.2715821  32.2754924
  29.6266952   6.0356275  32.8928320  35.1954312   6.3380228  43.9383604
  34.7518167   5.5516607  43.6204508  35.8571526   6.5259379  43.2727494
  29.9541434   7.8676030  38.4644282  30.5048859   7.7393093  37.6921276
  29.1152910   8.1670919  38.1139175  37.2935551   6.6183028  41.9665005
  37.2754026   7.4391909  41.4745274  38.2155471   6.4937103  42.1915146
  33.7508605   4.1327158  42.8088513  34.2836941   3.3715446  42.5787821
  33.2222686   3.8400810  43.5512668  40.0954163   1.4562171  35.4374372
  39.4377838   2.1461432  35.5254500  40.8994563   1.8458603  35.7808358
  38.9059622  -0.1893457  33.4878313  39.4191504   0.4436535  33.9900023
  39.5560846  -0.7892261  33.1221673  35.3840453  -2.7144001  35.7336654
  34.4663014  -2.4929054  35.5758342  35.8000597  -2.6397691  34.8748361
  39.6721418   4.7912545  31.6157456  39.2183746   3.9503455  31.6722646
  39.0415385   5.4273943  31.9532236  38.1154358   6.6289042  32.5507274
  38.4077332   7.1894099  31.8319640  38.6252978   6.9217603  33.3060433
  33.0787983   7.4069393  33.6400727  33.0364162   7.6330239  32.7109259
  33.9950682   7.1732767  33.7886528  36.5253617  -2.1246540  40.5381357
  36.8803004  -1.8975067  41.3975822  37.1725748  -1.7928163  39.9158612
  42.2551354   0.9971896  31.2430686  42.1169252   1.1873492  30.3151875
  41.8987572   1.7591279  31.6998737  42.2820733   3.0648423  36.2541957
  42.7157240   2.9723712  37.1025011  42.9952314   3.0405924  35.6161973
  31.1953784   4.2832422  33.4362690  31.9894382   3.7882742  33.2345265
  30.4845476   3.7550285  33.0730396  36.0148628   6.6650517  37.7875058
  36.0685650   7.2341454  38.5552774  35.1463409   6.8352402  37.4229095
  43.1436283   3.1072124  38.7874842  43.3372173   4.0117934  39.0334117
  43.0436901   2.6479543  39.6213428  38.2051391   3.2578866  44.3615723
  38.0536898   3.0289418  43.4445807  38.1956071   4.2149468  44.3747068
  34.9736728   0.8310779  39.3461990  35.9028788   0.9821939  39.1730957
  34.5527758   0.9194800  38.4910636  33.7725060   4.8561444  37.1160527
  33.6336145   4.4880228  37.9886465  32.9839656   5.3709083  36.9444485
  34.3673212   9.9570540  28.4586064  34.5424967   9.4858583  29.2731686
  33.6806000  10.5836306  28.6867324  35.3230275   4.2343046  34.5049365
  34.9880107   4.1943816  35.4007015  34.8234220   3.5687762  34.0319775
  29.2974519  -0.3589324  40.0301946  29.1594317  -1.0909085  40.6313485
  30.2079442  -0.4480424  39.7486134  31.9256819  -0.6469364  39.5185626
  32.6356438  -1.2876172  39.4772244  31.8826128  -0.3956469  40.4411807
  39.9143598   6.2897989  42.4392205  39.8556144   5.6057209  41.7722788
  40.3163116   7.0316979  41.9872831  28.9334297  13.1059903  35.2325924
  29.1730895  13.7378427  35.9104942  28.0903493  12.7547943  35.5191283
  39.9161005   4.2537573  40.6706185  39.0287784   3.9163495  40.7932583
  40.4859556   3.5220604  40.9074950  33.4462159   8.9139025  37.6367428
  33.3732330   9.7193997  38.1486732  33.0039552   9.1130991  36.8115449
  33.2351938   8.1510795  31.1470249  32.4519460   8.6932476  31.2408474
  33.9344684   8.6684775  31.5464491  44.3978346  -0.3354210  35.4322746
  44.3868222   0.5470506  35.0616679  43.5295725  -0.6882659  35.2377283
  35.9060842   8.8125859  39.7925586  36.6188814   9.4473324  39.7201488
  35.4150871   8.9089725  38.9765588  37.6278369   2.7177112  31.3642878
  36.6934648   2.8378574  31.1947582  37.8055038   1.8149579  31.1002888
  41.0150921  -1.4405569  31.8992912  41.4811373  -0.6077577  31.8253215
  41.4658421  -1.9060587  32.6038171  30.9572756   6.5620303  40.6131157
  31.6582215   7.1956786  40.7660552  30.4867871   6.9035034  39.8526797
  38.7574042  -0.8835090  38.4383708  38.1045492  -0.6359182  37.7836160
  39.1354422  -1.6970952  38.1046185  35.7181216   9.1524603  32.5411878
  35.9003610   8.3346259  33.0039630  36.5414202   9.3692296  32.1036768
  36.0523381   8.0792789  29.8026926  36.5811148   7.5685243  29.1897089
  36.3151601   7.7635319  30.6672459  34.8061615  -0.1415279  44.9249745
  34.1302252  -0.2421149  45.5952120  35.6289249  -0.2976065  45.3885742
  26.5540474   6.0956658  37.5462260  27.1393911   5.3500346  37.6790164
  26.3565312   6.4060615  38.4298924  29.4079129   9.1307905  32.5624702
  28.7389504   9.6154033  32.0788742  29.2691999   9.3777126  33.4768081
  33.5484398  11.1651649  39.1607361  34.1002706  11.3283270  39.9256446
  33.8890591  11.7556087  38.4887386  38.3995272   5.9912906  45.0156015
  38.9435176   6.6042865  44.5210970  37.8182117   6.5492485  45.5323028
  36.6852785   9.1133624  36.1471043  36.5603924   8.3123364  35.6381988
  37.3431876   9.6079818  35.6585013  38.7487693   6.9142644  37.7750593
  37.8018029   6.7947996  37.7028920  39.0970466   6.0265142  37.8576854
  35.7534127   6.7095361  33.9754945  35.6059089   5.7812068  34.1562515
  36.5787620   6.7315451  33.4912020  39.3568248   7.5323919  35.0619818
  40.2814796   7.3266781  34.9244269  39.1883552   7.2840320  35.9709159
  39.1463565   8.0509587  30.4181909  39.3200442   7.4856009  29.6655762
  39.6392456   8.8510482  30.2361399  45.0002956   0.8146010  32.0372209
  45.4434102   0.0653335  31.6391332  44.1229466   0.8056146  31.6545941
  40.1338737   7.3676351  27.5178808  40.8289642   7.9883044  27.7366122
  40.4761887   6.5171702  27.7931186  42.0330160   4.8176057  29.0466138
  42.5581484   5.1563329  28.3215458  41.9452513   3.8823072  28.8629273
  33.6950209   8.7310130  41.1756015  34.0037335   8.4859277  42.0478715
  34.4925691   8.9356769  40.6874885  33.7170821  10.8848040  33.4061392
  33.2775811  10.3924419  34.0994248  34.4678938  10.3421008  33.1653467
  26.1963160   7.0759581  33.4086020  27.0221180   6.7763353  33.0284663
  25.8457212   6.3067203  33.8575808  31.1644693   6.4286049  35.4783693
  30.5424702   5.7656754  35.1785921  31.8349560   6.4547181  34.7957341
  41.7224066   5.4508960  44.3517336  40.9319610   5.4333099  43.8121836
  41.4857421   5.9897254  45.1066373  41.8421941   2.3001427  41.6650065
  41.8919946   2.1351434  42.6065588  41.7335865   1.4328686  41.2747946
  39.1325704  -1.7167645  42.9809372  40.0335567  -1.8561180  42.6893369
  39.2073678  -1.5513190  43.9207549  33.4668509  -4.3400790  41.8262558
  32.5971819  -4.0467224  41.5545147  33.7027989  -3.7560345  42.5469822
  43.3440138   4.7198368  41.9092086  43.0524947   5.0828349  42.7455547
  42.7312270   4.0065377  41.7305419  44.5435821   2.2851248  34.4294657
  45.3782712   2.7241052  34.5932217  44.6794949   1.8089901  33.6102902
  41.5927326  -0.1569017  40.3772144  42.0681448   0.0358629  39.5690996
  40.6692892  -0.1009831  40.1315528  40.2928995  -3.2803257  38.6100450
  41.2446418  -3.1805159  38.6312674  40.1232446  -4.0724988  39.1198534
  38.3143375  -6.1947674  38.7959851  37.7193307  -5.9142661  38.1006340
  38.0293072  -5.7053773  39.5676592  42.7717073  -0.0597137  37.7242750
  42.7393393  -0.9981137  37.9102434  43.3817697   0.0186899  36.9908575
  42.9211562  -3.2686094  37.7701033  42.4050610  -4.0527637  37.5830962
  43.8051510  -3.5967377  37.9347552  48.5893623   1.0018869  36.8648787
  49.3197012   0.7404158  37.4256490  47.9800569   0.2647591  36.9050855
  46.6708920  -0.8573268  37.4623238  45.9442084  -0.9917303  36.8539729
  46.2556207  -0.5496439  38.2679956  34.4939097   2.8616662  45.2270611
  35.4142106   3.0395261  45.4210657  34.4588680   1.9172707  45.0750310
  27.4901169   0.7717696  37.8693392  27.7087179   1.7034804  37.8881426
  27.9026943   0.4125671  38.6548196  32.3629035  -3.6549098  47.2596141
  32.2625761  -2.7054741  47.1908232  32.1450577  -3.9830859  46.3872211
  32.2260305  -0.2251959  46.0761202  31.7427386   0.5748401  46.2825092
  32.3121244  -0.2144014  45.1228646  28.1533642   3.6652576  38.1129636
  29.1076896   3.6336518  38.0459568  27.9546166   3.2043199  38.9279862
  28.7433024   2.2353692  40.6800434  29.5625913   2.7297770  40.7035271
  29.0169832   1.3185660  40.6518001  41.8514157  -5.3489035  33.7582729
  42.6274547  -4.8592582  34.0307346  41.1262291  -4.9230981  34.2154598
  44.2886715  -4.6361416  34.8156669  44.8831206  -4.8765680  34.1049978
  44.3613299  -5.3554285  35.4430206  26.5083871   9.2072195  35.1299834
  26.3738339   8.4472596  34.5637832  26.0915933   9.9313095  34.6628623
  46.5957788  -1.3295215  33.5900091  46.0357346  -1.2602026  34.3631653
  45.9901291  -1.5054230  32.8699587  29.6652997  10.1041512  35.3418277
  29.5485381  11.0486945  35.2396967  28.8445443   9.8015074  35.7304076
  36.5221331   3.6372673  46.8784772  37.3912490   3.8113325  46.5171406
  36.0428082   4.4567090  46.7560501  30.6907511  10.7569774  38.5574205
  31.5934758  10.7893384  38.8740700  30.4644881   9.8270225  38.5720541
  32.4461113   9.5100761  35.2184284  31.4956744   9.5102622  35.1048656
  32.7493599   8.7633495  34.7020318  48.1813806  15.3461299  36.2830046
  48.8192216  15.2268046  35.5793386  48.0634649  16.2942143  36.3417998
  44.9903513  15.2988727  36.2191571  44.6522024  15.1829792  35.3312106
  45.8593281  14.8979892  36.1992577  40.8490328  17.1524204  32.2088462
  40.2855193  17.0614141  31.4404750  40.7342723  16.3324108  32.6890954
  45.4723296  16.4523579  42.1777776  45.4611936  16.0576377  41.3058280
  45.6343935  15.7189652  42.7711548  38.3954760  18.6475395  35.0472682
  39.1876052  18.3066220  34.6318982  38.6351410  18.7570370  35.9674836
  46.4289887  20.8195171  27.5202927  45.7777867  21.4049252  27.1336941
  47.2234250  21.3501366  27.5797964  40.3545514  17.9084308  27.9190061
  41.1276390  17.3613296  27.7802937  40.7070913  18.7728558  28.1304523
  42.1930557  19.2360691  41.1256960  41.9020423  20.1406322  41.0103627
  42.8287541  19.2777218  41.8401030  43.1186764  16.6137539  37.7158320
  43.7150336  16.3893562  37.0015283  43.1761735  15.8722285  38.3183768
  42.6911792  14.0676975  25.5508511  42.9437313  13.5458496  24.7891974
  41.7536351  13.9043120  25.6535195  47.7355075  13.0712753  33.3583254
  48.5218164  12.6532176  33.0073671  47.9993779  13.9758845  33.5264903
  47.9065152  18.5085603  28.0571911  47.2710985  18.5820230  28.7692816
  47.5762559  19.0979202  27.3790990  53.1363502  13.0087986  34.2616233
  53.8688674  12.4387203  34.4954062  52.3802858  12.6209587  34.7022738
  42.4108081  15.9705081  27.7532886  42.2944339  15.2949984  28.4213970
  42.5210341  15.4837454  26.9365039  44.7539622  15.4315228  31.4579575
  44.3897829  14.9045849  32.1692497  45.6106738  15.0413697  31.2846061
  50.6588922   6.7209560  38.7210841  50.3272247   7.5904971  38.4972056
  50.0634536   6.4045844  39.4004872  44.3945109  10.4605127  26.4540924
  44.5619511  11.3285364  26.8211395  44.2042278  10.6232409  25.5302213
  47.1520442  18.9222106  38.1206754  46.8521165  19.8247145  38.0122561
  46.8071501  18.6554289  38.9727907  40.6032923  15.3735903  34.1543459
  39.6783420  15.2412117  34.3621150  40.8517337  16.1530122  34.6513401
  50.5517586  11.4404646  35.8004191  49.6434463  11.3720055  35.5062952
  50.5005181  11.9176591  36.6286017  44.3734330  12.9162785  27.4387591
  44.2533955  13.3619836  28.2773071  43.6786918  13.2648102  26.8801129
  37.9641734  15.0169177  34.9887248  38.0934116  15.2703656  35.9026659
  37.2839186  15.6096885  34.6691903  42.1341222  25.6866427  31.0877722
  42.0565251  26.6374252  31.1666202  41.5302865  25.3412299  31.7452648
  44.6258451  12.8594292  43.7439089  43.8491785  13.4188212  43.7341953
  45.2649014  13.3451075  44.2653959  52.4179232   9.6421085  37.5782065
  51.7753612   9.9353618  36.9321860  51.9134161   9.5274005  38.3835262
  50.0719396  13.3884258  28.2667925  50.9837252  13.6211645  28.0915622
  49.5629043  13.9721302  27.7043003  42.8804824  15.6679745  43.3057056
  43.6219508  16.2064789  43.0291879  42.1741809  16.2946034  43.4628608
  48.3560163  17.8108886  41.9029217  48.7643519  17.3691296  41.1583850
  47.6337425  17.2361513  42.1563410  44.7091233  12.7481493  39.2762774
  45.5552429  13.1720906  39.4197423  44.6489871  12.0915117  39.9701337
  48.6788978  18.3710076  35.6581506  48.0497840  18.5355791  34.9557574
  48.2914640  18.7851686  36.4292470  52.5578210  19.3064514  33.0125870
  51.8729248  19.6863416  32.4622903  52.6422059  19.9159841  33.7457818
  47.8590679  10.4085861  40.9343948  47.6151611  11.1627921  40.3978223
  48.1350609  10.7871209  41.7691195  49.8129142  16.9524473  39.6121213
  50.0246037  17.5956233  38.9355594  49.7658890  16.1186790  39.1443143
  47.4155370   9.5642294  36.5157786  46.5539850   9.8623548  36.8074523
  47.4417805   9.7812693  35.5838818  44.2316940  18.1084485  32.9231591
  44.6955285  18.3872188  32.1336214  43.9673738  17.2067929  32.7404682
  41.1241021  17.6555966  35.8611354  41.6942378  18.0843234  35.2228839
  41.7149133  17.3738551  36.5595540  43.1685826  14.2307637  29.7321156
  43.8709869  14.6828681  30.1995083  42.8366454  13.5891456  30.3601049
  41.6166187  12.8219394  44.1072366  40.9864848  13.5035674  44.3407763
  41.5102275  12.7102475  43.1625504  36.9111160  12.4891190  35.0338290
  36.1210214  12.7448718  34.5578401  37.4022407  13.3039527  35.1390330
  50.9274969  19.8296429  37.7843571  51.7492413  19.4276616  37.5026252
  50.9237372  19.7264663  38.7359687  38.8625905  12.8535769  31.9921767
  38.0657069  12.9654463  32.5105262  38.6351497  13.1922421  31.1262657
  44.6931573  19.3780472  39.9404281  44.7576005  19.8400879  40.7762453
  43.9842497  18.7477837  40.0686591  35.1948863  12.7421680  37.4653281
  35.4456901  13.6268690  37.7310857  35.7308411  12.5626282  36.6928373
  59.0180963  16.1735177  34.1328542  58.2644671  15.6042575  33.9772547
  59.1528504  16.1397842  35.0799177  44.4079591  21.0448580  29.8083262
  44.2725265  21.8900115  30.2368109  44.9489403  21.2467857  29.0449195
  40.8946930   7.1240159  46.4697617  40.5013876   6.5706358  47.1445261
  41.7113071   7.4350738  46.8604134  37.8608988  18.5624018  30.3811187
  38.3733509  19.3567268  30.5316751  38.5131701  17.8650308  30.3144788
  39.6703873  21.6789774  32.4633940  39.8470501  22.6007739  32.2754924
  40.4660706  21.3648193  32.8928320  43.8114891   8.5398038  44.0617873
  44.5524605   9.1405192  43.9822336  44.0432814   7.7975676  43.5035916
  38.9556229  13.7254406  42.3396103  38.8409744  12.8239663  42.6403202
  38.1000747  13.9718102  41.9880920  46.0348067  21.6672146  43.9383604
  45.5911921  20.8808525  43.6204508  46.6965281  21.8551297  43.2727494
  40.7935188  23.1967948  38.4644282  41.3442613  23.0685011  37.6921276
  39.9546664  23.4962837  38.1139175  48.1329305  21.9474946  41.9665005
  48.1147780  22.7683827  41.4745274  49.0549225  21.8229021  42.1915146
  44.5902359  19.4619075  42.8088513  45.1230696  18.7007364  42.5787821
  44.0616440  19.1692727  43.5512668  47.7572054   4.5679141  38.3382155
  47.4136324   5.4580783  38.2621266  48.1251017   4.3780799  37.4751740
  35.8257905  16.8912672  31.1570757  36.6633127  17.3009680  30.9404465
  36.0036172  15.9512114  31.1270951  47.7222337  14.5587752  26.8454590
  47.2068960  15.3292357  27.0842978  47.4499645  13.8852889  27.4687652
  45.3069448   9.4037453  31.9039829  44.4511044   9.0144304  31.7245467
  45.7196400   9.4829414  31.0439614  46.8368595   6.9383797  36.3031388
  46.3333390   6.9013932  35.4899194  47.1299201   7.8476539  36.3628045
  43.0811480   7.0222526  35.3097570  43.9464477   6.8265335  34.9503459
  43.1488989   6.7932878  36.2366927  52.6956611  17.3120107  28.7807764
  51.9186054  16.9731267  28.3362926  53.3748092  17.3172730  28.1062729
  47.5108640  12.4314845  28.6714371  47.2058776  12.7460994  29.5224515
  48.4639082  12.5096264  28.7141704  45.9555072  18.5905068  30.3207325
  45.4276433  17.8557827  30.0080563  45.4542575  19.3679744  30.0747294
  50.9347918  16.7854088  35.4374372  50.2771592  17.4753350  35.5254500
  51.7388317  17.1750520  35.7808358  40.6873799   9.2524734  32.6813937
  41.2617551   9.0299916  31.9487130  41.2744782   9.3213429  33.4342538
  49.7453377  15.1398461  33.4878313  50.2585258  15.7728453  33.9900023
  50.3954601  14.5399657  33.1221673  41.0143387  11.2829195  26.7009822
  40.1780699  11.6203882  27.0219097  40.8748156  11.1478175  25.7636959
  42.9896467   6.1265983  31.4089006  42.3360880   5.8115000  30.7845621
  42.9476941   5.5041724  32.1348829  44.1007672  16.4085278  23.3242298
  43.1934734  16.1774532  23.5233447  44.5978704  15.6122897  23.5116280
  47.0075751  25.1182785  26.2438984  46.3337450  25.4214482  26.8523942
  47.3941573  25.9211866  25.8944442  46.2234208  12.6147917  35.7336654
  45.3056769  12.8362864  35.5758342  46.6394351  12.6894227  34.8748361
  47.0069255  14.0139332  30.8639334  47.7541074  14.5260730  30.5546456
  47.2760845  13.6923385  31.7243728  45.2795905  16.5097873  27.8466288
  44.3707125  16.2256906  27.9438758  45.3090989  16.9296952  26.9869595
  50.5115173  20.1204463  31.6157456  50.0577500  19.2795372  31.6722646
  49.8809140  20.7565861  31.9532236  49.4548092  11.0496449  32.8458123
  48.7170849  10.5373835  33.1768366  49.7074866  10.6096830  32.0341400
  48.9548112  21.9580959  32.5507274  49.2471087  22.5186016  31.8319640
  49.4646733  22.2509520  33.3060433  49.5559720   3.8272701  33.4399893
  49.8618597   2.9670064  33.1525808  50.2812325   4.4190321  33.2398887
  35.8484076  14.2303387  31.8281491  35.6508476  13.6372748  31.1032557
  35.2930740  13.9255597  32.5457429  43.8280800  14.1226494  33.9476084
  43.8829409  13.1700330  33.8718560  43.0172002  14.2785933  34.4317382
  44.9771993  18.0506617  25.1854367  44.5391423  17.3342476  24.7260004
  45.7182434  18.2782732  24.6239458  41.7673159  12.7403553  31.7066463
  40.9541025  13.0397724  32.1131655  42.2632154  12.3459242  32.4240945
  43.9181737  22.7361310  33.6400727  43.8757916  22.9622157  32.7109259
  44.8344436  22.5024685  33.7886528  47.3647371  13.2045378  40.5381357
  47.7196759  13.4316851  41.3975822  48.0119502  13.5363755  39.9158612
  53.0945108  16.3263814  31.2430686  52.9563007  16.5165410  30.3151875
  52.7381327  17.0883197  31.6998737  41.2587234  10.3121909  37.3227698
  41.8986614  10.1710668  36.6250661  40.4264765  10.0256422  36.9466300
  53.1214488  18.3940341  36.2541957  53.5550994  18.3015630  37.1025011
  53.8346068  18.3697841  35.6161973  42.0347538  19.6124339  33.4362690
  42.8288137  19.1174659  33.2345265  41.3239230  19.0842202  33.0730396
  46.8542383  21.9942435  37.7875058  46.9079405  22.5633371  38.5552774
  45.9857164  22.1644320  37.4229095  38.3430302  13.7567421  29.5122443
  37.4127890  13.6951877  29.7292405  38.4387774  13.2343374  28.7159084
  38.2615851  10.2822234  32.1000684  38.5222668  11.1967567  31.9909845
  39.0833023   9.8146676  32.2497297  39.7340776  11.6959991  39.2699509
  40.4063829  11.4877353  38.6212158  38.9070562  11.4982077  38.8304741
  53.9830037  18.4364041  38.7874842  54.1765927  19.3409852  39.0334117
  53.8830655  17.9771460  39.6213428  45.6366348   8.3221932  41.2865170
  44.9894263   9.0211882  41.1929646  46.4067363   8.7558076  41.6541418
  49.0445146  18.5870784  44.3615723  48.8930652  18.3581336  43.4445807
  49.0349825  19.5441386  44.3747068  45.8130482  16.1602697  39.3461990
  46.7422542  16.3113857  39.1730957  45.3921512  16.2486718  38.4910636
  44.6118814  20.1853361  37.1160527  44.4729900  19.8172146  37.9886465
  43.8233410  20.7001001  36.9444485  45.2066966  25.2862458  28.4586064
  45.3818722  24.8150501  29.2731686  44.5199754  25.9128224  28.6867324
  46.1624029  19.5634964  34.5049365  45.8273862  19.5235734  35.4007015
  45.6627975  18.8979680  34.0319775  40.1368273  14.9702594  40.0301946
  39.9988071  14.2382833  40.6313485  41.0473197  14.8811494  39.7486134
  49.0983221  16.9090998  24.7786425  48.4812392  16.1837827  24.6819477
  48.6299709  17.6700359  24.4353499  42.7650574  14.6822553  39.5185626
  43.4750192  14.0415746  39.4772244  42.7219882  14.9335448  40.4411807
  50.7537353  21.6189907  42.4392205  50.6949899  20.9349127  41.7722788
  51.1556871  22.3608897  41.9872831  41.4779508  11.6687771  41.3381265
  40.9416865  11.2178510  41.9902862  40.8896216  11.8033680  40.5951730
  39.7728051  28.4351821  35.2325924  40.0124650  29.0670345  35.9104942
  38.9297248  28.0839861  35.5191283  50.7554760  19.5829491  40.6706185
  49.8681539  19.2455412  40.7932583  51.3253311  18.8512522  40.9074950
  32.4083907  15.9153582  33.9949236  33.0954947  15.6015312  33.4070251
  32.2532036  16.8194947  33.7216487  37.2118629  10.8043779  38.4234260
  37.1276818  10.1969449  37.6884670  36.3901335  11.2952797  38.4243756
  44.2855913  24.2430943  37.6367428  44.2126085  25.0485914  38.1486732
  43.8433306  24.4422909  36.8115449  44.0745693  23.4802713  31.1470249
  43.2913215  24.0224393  31.2408474  44.7738438  23.9976693  31.5464491
  47.3842343   9.2897342  33.7904455  47.8811042   8.5367305  33.4705525
  46.6129324   9.3261659  33.2247664  55.2372100  14.9937708  35.4322746
  55.2261977  15.8762423  35.0616679  54.3689480  14.6409259  35.2377283
  46.7454597  24.1417777  39.7925586  47.4582569  24.7765242  39.7201488
  46.2544625  24.2381643  38.9765588  48.4672124  18.0469030  31.3642878
  47.5328402  18.1670492  31.1947582  48.6448792  17.1441496  31.1002888
  43.9677312  11.4314725  33.5176139  43.5975099  10.8785766  34.2057045
  44.4636404  10.8272859  32.9651139  51.8544675  13.8886349  31.8992912
  52.3205127  14.7214341  31.8253215  52.3052175  13.4231331  32.6038171
  41.7966510  21.8912220  40.6131157  42.4975970  22.5248703  40.7660552
  41.3261625  22.2326952  39.8526797  49.9220906  20.2330170  28.8979064
  50.1980750  20.1186765  29.8072938  49.0525405  19.8347655  28.8591237
  49.8261338   6.2566936  35.9383814  48.9124418   6.4871163  36.1066021
  50.2554439   6.3405380  36.7897846  49.5967796  14.4456828  38.4383708
  48.9439246  14.6932735  37.7836160  49.9748176  13.6320966  38.1046185
  46.5574970  24.4816521  32.5411878  46.7397365  23.6638177  33.0039630
  47.3807956  24.6984213  32.1036768  46.8917136  23.4084706  29.8026926
  47.4204902  22.8977161  29.1897089  47.1545355  23.0927236  30.6672459
  45.6455369  15.1876639  44.9249745  44.9696006  15.0870768  45.5952120
  46.4683003  15.0315853  45.3885742  37.3934228  21.4248576  37.5462260
  37.9787665  20.6792263  37.6790164  37.1959067  21.7352532  38.4298924
  40.2472884  24.4599823  32.5624702  39.5783259  24.9445951  32.0788742
  40.1085753  24.7069043  33.4768081  31.9851883  13.9954176  36.2666703
  32.0235983  13.4617766  37.0603821  31.4792176  13.4689381  35.6477680
  44.3878152  26.4943566  39.1607361  44.9396460  26.6575188  39.9256446
  44.7284346  27.0848004  38.4887386  39.3642645   8.8418716  39.7629245
  39.4283972   9.7033547  39.3506643  39.3009766   8.2292718  39.0301604
  38.8394918  10.9141849  43.4102280  39.4666957  10.5318926  44.0239804
  37.9822837  10.6956051  43.7757972  49.2389026  21.3204824  45.0156015
  49.7828930  21.9334782  44.5210970  48.6575871  21.8784402  45.5323028
  35.6160461  12.7218278  29.3420635  35.9113902  11.8128956  29.2887688
  34.7148496  12.7006017  29.0201637  47.5246539  24.4425542  36.1471043
  47.3997679  23.6415282  35.6381988  48.1825631  24.9371735  35.6585013
  39.1454708  10.7974274  35.3248183  38.4241293  11.4110242  35.1855656
  39.9347963  11.3332039  35.2464829  49.5881448  22.2434562  37.7750593
  48.6411783  22.1239913  37.7028920  49.9364221  21.3557060  37.8576854
  41.9481021   8.1328701  41.5988835  42.4715423   8.3790998  42.3615144
  41.7293354   8.9648736  41.1791972  37.3448302  10.4032376  29.4659960
  37.0161008   9.5229754  29.2835066  37.6987673  10.3480044  30.3536349
  46.5927881  22.0387278  33.9754945  46.4452844  21.1103986  34.1562515
  47.4181375  22.0607369  33.4912020  40.4590125  10.6905345  29.8335437
  40.7986198  11.2191267  29.1114046  40.9062246  11.0285751  30.6094004
  50.1962003  22.8615837  35.0619818  51.1208550  22.6558698  34.9244269
  50.0277306  22.6132238  35.9709159  43.1533566   9.0742396  39.2838505
  42.8130387   8.2750209  39.6859185  42.4472572   9.3744107  38.7115339
  43.8050038   6.1591708  37.7365828  44.6276107   5.6852187  37.6144719
  44.0488102   6.9382192  38.2364515  42.4458273   9.1879967  28.0328730
  43.1666635   9.5661220  27.5292447  41.8223577   9.9068844  28.1363708
  46.5889395   9.8925116  28.9687062  46.8053010  10.7749754  28.6675891
  46.1083463   9.5011329  28.2392704  41.3288617  12.8510829  35.5457807
  41.1833198  13.1651132  36.4382089  40.8513820  13.4695729  34.9928706
  43.1885000   9.8413377  35.5938697  43.1746568   8.9454470  35.2570995
  43.9057428   9.8484041  36.2276983  45.0411130  10.2750717  37.6391824
  44.7828908  11.1967788  37.6376154  44.5096171   9.8781152  38.3292288
  49.9857319  23.3801504  30.4181909  50.1594197  22.8147927  29.6655762
  50.4786210  24.1802399  30.2361399  35.8034279  15.3916174  38.4845468
  35.2587747  16.1675982  38.6165743  36.6813629  15.7386978  38.3264590
  42.5921896   8.7227757  30.8626267  42.7137807   7.7944404  31.0617154
  42.3023938   8.7366443  29.9504582  45.4613086   6.4082668  33.9992987
  45.4834783   6.4722001  33.0444966  45.8781145   5.5687176  34.1933493
  55.8396710  16.1437927  32.0372209  56.2827856  15.3945253  31.6391332
  54.9623221  16.1348064  31.6545941  50.9732492  22.6968269  27.5178808
  51.6683396  23.3174962  27.7366122  51.3155642  21.8463620  27.7931186
  36.5900301  14.5186070  41.3775625  35.8482037  14.6668705  41.9640256
  36.2693045  14.7794335  40.5142374  52.8723915  20.1467974  29.0466138
  53.3975239  20.4855247  28.3215458  52.7846267  19.2114990  28.8629273
  44.5343963  24.0602048  41.1756015  44.8431090  23.8151195  42.0478715
  45.3319445  24.2648687  40.6874885  44.5564576  26.2139958  33.4061392
  44.1169566  25.7216336  34.0994248  45.3072692  25.6712925  33.1653467
  37.0356914  22.4051499  33.4086020  37.8614934  22.1055270  33.0284663
  36.6850966  21.6359121  33.8575808  42.0038448  21.7577967  35.4783693
  41.3818457  21.0948672  35.1785921  42.6743315  21.7839099  34.7957341
  35.2365520  20.3237825  34.3674953  34.3997428  19.8959999  34.1858955
  35.2089165  20.5170268  35.3045745  42.0762975  10.2359755  45.0716199
  42.1251131  11.1121878  44.6893969  42.6185489   9.6937148  44.4987843
  52.5617821  20.7800878  44.3517336  51.7713365  20.7625017  43.8121836
  52.3251175  21.3189172  45.1066373  52.6815696  17.6293344  41.6650065
  52.7313701  17.4643352  42.6065588  52.5729619  16.7620603  41.2747946
  41.5651955  20.3081890  28.9542154  41.7140075  20.9917354  28.3008827
  42.3718398  20.2886980  29.4691610  49.9719458  13.6124272  42.9809372
  50.8729321  13.4730737  42.6893369  50.0467433  13.7778727  43.9207549
  44.3062264  10.9891127  41.8262558  43.4365573  11.2824693  41.5545147
  44.5421744  11.5731572  42.5469822  54.1833893  20.0490286  41.9092086
  53.8918701  20.4120266  42.7455547  53.5706024  19.3357294  41.7305419
  55.3829575  17.6143166  34.4294657  56.2176466  18.0532970  34.5932217
  55.5188704  17.1381819  33.6102902  52.4321081  15.1722901  40.3772144
  52.9075203  15.3650547  39.5690996  51.5086646  15.2282086  40.1315528
  39.3204588  16.3347068  29.9603223  39.0750629  15.4309398  30.1583433
  39.4900502  16.3364218  29.0182701  47.0101297   7.2070744  39.3427978
  47.5283241   7.9431771  39.0174467  46.6556430   7.5134737  40.1774737
  38.5900235  12.0675425  27.4589384  37.8969480  12.1419780  26.8029420
  38.3451987  11.3035769  27.9810901  47.2613892   3.6271027  34.8628875
  47.5415645   2.9594216  35.4889302  48.0464499   3.8200122  34.3503539
  45.0647360  22.8030021  26.4253901  44.4921327  23.4220208  25.9724373
  45.6380154  23.3529382  26.9593823  51.1322750  12.0488661  38.6100450
  52.0840173  12.1486758  38.6312674  50.9626200  11.2566929  39.1198534
  49.1537129   9.1344244  38.7959851  48.5587062   9.4149257  38.1006340
  48.8686826   9.6238145  39.5676592  48.2844620  23.0867171  27.5562484
  49.2175293  23.0212732  27.7595359  48.1967833  23.9223438  27.0977016
  50.9132637  22.4033041  24.5166431  50.8346268  22.0692905  25.4102189
  51.7342303  22.8954809  24.5157903  53.6110828  15.2694780  37.7242750
  53.5787148  14.3310781  37.9102434  54.2211451  15.3478817  36.9908575
  45.4494159  14.1390833  23.7669954  46.3953263  14.0097041  23.8358372
  45.0708404  13.4005495  24.2439382  53.7605316  12.0605824  37.7701033
  53.2444365  11.2764280  37.5830962  54.6445265  11.7324540  37.9347552
  51.4216043   5.8046839  33.7296846  51.2240864   5.4961928  34.6140178
  52.0315749   6.5308478  33.8594775  59.4287378  16.3310787  36.8648787
  60.1590766  16.0696075  37.4256490  58.8194323  15.5939509  36.9050855
  57.5102675  14.4718650  37.4623238  56.7835838  14.3374615  36.8539729
  57.0949962  14.7795478  38.2679956  45.3332851  18.1908579  45.2270611
  46.2535861  18.3687178  45.4210657  45.2982434  17.2464625  45.0750310
  43.6337076  12.0640810  23.7024839  42.7268531  11.7673922  23.7787553
  43.9113057  11.7670628  22.8359125  34.5515016  13.3847173  34.1523885
  34.2317800  12.5312481  33.8598259  34.0048444  13.5995751  34.9081853
  38.3294924  16.1009614  37.8693392  38.5480933  17.0326722  37.8881426
  38.7420698  15.7417588  38.6548196  45.2499141   6.6077699  29.8569080
  44.4399870   6.2624784  30.2324326  45.9383558   6.2985243  30.4456692
  47.1789690   5.6855746  31.4793377  47.7320728   6.1051200  32.1383400
  47.4159776   4.7591494  31.5216333  43.2022789  11.6742820  47.2596141
  43.1019516  12.6237177  47.1908232  42.9844331  11.3461059  46.3872211
  34.4203276  17.0050085  36.1217007  33.7266748  16.5904037  35.6086961
  35.1676267  17.0470621  35.5250426  50.5568497   7.7956271  30.9872041
  49.9767166   8.4541075  30.6050094  50.2904430   6.9733616  30.5759459
  49.0072063   7.1961329  33.1893362  49.5071842   7.3077864  32.3807680
  49.6507671   6.8922382  33.8294170  43.0654059  15.1039959  46.0761202
  42.5821141  15.9040319  46.2825092  43.1514998  15.1147904  45.1228646
  36.3340019  16.9368338  33.9983022  36.3110707  17.0356026  33.0464905
  36.6440655  17.7833489  34.3200188  38.9927397  18.9944493  38.1129636
  39.9470650  18.9628436  38.0459568  38.7939920  18.5335117  38.9279862
  39.5826779  17.5645609  40.6800434  40.4019668  18.0589688  40.7035271
  39.8563586  16.6477578  40.6518001  49.3393375   9.9556362  30.0428389
  48.4519230  10.2406012  29.8248584  49.7547364   9.7950125  29.1955666
  52.6907911   9.9802883  33.7582729  53.4668301  10.4699335  34.0307346
  51.9656045  10.4060937  34.2154598  55.1280470  10.6930502  34.8156669
  55.7224960  10.4526238  34.1049978  55.2007053   9.9737633  35.4430206
  37.3477625  24.5364113  35.1299834  37.2132093  23.7764514  34.5637832
  36.9309688  25.2605013  34.6628623  48.4836588  19.7201036  24.1376409
  49.1872438  19.9251039  24.7534065  47.7599237  20.2877798  24.4025493
  49.3134399  15.4710898  30.2578680  49.2569600  15.9279449  29.4186312
  49.8662741  14.7101582  30.0801522  53.1239205  11.2600630  31.0828799
  52.8676139  10.8597265  31.9137007  52.4992073  11.9744423  30.9578938
  57.4351542  13.9996703  33.5900091  56.8751100  14.0689892  34.3631653
  56.8295046  13.8237687  32.8699587  40.5046751  25.4333430  35.3418277
  40.3879135  26.3778862  35.2396967  39.6839197  25.1306991  35.7304076
  50.3923286  20.1583566  26.1874869  51.2268890  19.7264764  26.0052344
  50.2307629  19.9865579  27.1151764  50.0469178  16.6615679  27.5531209
  49.9917982  16.4959950  26.6119653  49.4215233  17.3691712  27.7093399
  34.8361693  11.8983743  41.3792631  35.4820557  11.3882697  41.8679856
  34.6278844  12.6352425  41.9536056  47.3615085  18.9664591  46.8784772
  48.2306245  19.1405243  46.5171406  46.8821837  19.7859008  46.7560501
  43.3565303   6.1623788  27.1316527  43.3443973   7.1065628  27.2884798
  44.2488725   5.9793933  26.8375988  41.5301265  26.0861692  38.5574205
  42.4328512  26.1185302  38.8740700  41.3038635  25.1562143  38.5720541
  43.2854867  24.8392678  35.2184284  42.3350498  24.8394540  35.1048656
  43.5887353  24.0925413  34.7020318  47.1717423   2.7566565  31.3862464
  46.4049819   2.2025051  31.5319146  47.5828128   2.8288433  32.2476616
  39.1759184   9.0451360  45.4767645  40.0390645   8.6888165  45.6870970
  38.6024595   8.7065255  46.1643050  59.0207561  30.6753217  36.2830046
  59.6585971  30.5559964  35.5793386  58.9028404  31.6234061  36.3417998
  55.8297267  30.6280645  36.2191571  55.4915779  30.5121710  35.3312106
  56.6987035  30.2271810  36.1992577  51.6884083  32.4816121  32.2088462
  51.1248948  32.3906058  31.4404750  51.5736478  31.6616026  32.6890954
  56.3117050  31.7815497  42.1777776  56.3005691  31.3868295  41.3058280
  56.4737690  31.0481569  42.7711548  49.2348515  33.9767313  35.0472682
  50.0269807  33.6358137  34.6318982  49.4745165  34.0862288  35.9674836
  57.2683642  36.1487089  27.5202927  56.6171621  36.7341169  27.1336941
  58.0628004  36.6793284  27.5797964  51.1939269  33.2376226  27.9190061
  51.9670145  32.6905213  27.7802937  51.5464668  34.1020475  28.1304523
  53.0324311  34.5652608  41.1256960  52.7414177  35.4698239  41.0103627
  53.6681296  34.6069136  41.8401030  53.9580518  31.9429457  37.7158320
  54.5544090  31.7185479  37.0015283  54.0155490  31.2014202  38.3183768
  53.5305547  29.3968892  25.5508511  53.7831067  28.8750413  24.7891974
  52.5930106  29.2335038  25.6535195  58.5748829  28.4004671  33.3583254
  59.3611919  27.9824094  33.0073671  58.8387534  29.3050763  33.5264903
  58.7458907  33.8377521  28.0571911  58.1104740  33.9112147  28.7692816
  58.4156313  34.4271120  27.3790990  63.9757256  28.3379904  34.2616233
  64.7082428  27.7679121  34.4954062  63.2196612  27.9501504  34.7022738
  53.2501835  31.2996998  27.7532886  53.1338093  30.6241902  28.4213970
  53.3604095  30.8129372  26.9365039  55.5933376  30.7607145  31.4579575
  55.2291583  30.2337766  32.1692497  56.4500492  30.3705614  31.2846061
  55.2338863  25.7897045  26.4540924  55.4013266  26.6577281  26.8211395
  55.0436032  25.9524327  25.5302213  57.9914196  34.2514024  38.1206754
  57.6914919  35.1539063  38.0122561  57.6465256  33.9846207  38.9727907
  51.4426678  30.7027821  34.1543459  50.5177174  30.5704035  34.3621150
  51.6911091  31.4822040  34.6513401  61.3911340  26.7696564  35.8004191
  60.4828217  26.7011973  35.5062952  61.3398936  27.2468509  36.6286017
  55.2128084  28.2454702  27.4387591  55.0927709  28.6911753  28.2773071
  54.5180672  28.5940020  26.8801129  48.8035489  30.3461094  34.9887248
  48.9327870  30.5995573  35.9026659  48.1232940  30.9388802  34.6691903
  52.9734976  41.0158344  31.0877722  52.8959006  41.9666169  31.1666202
  52.3696620  40.6704217  31.7452648  55.4652206  28.1886210  43.7439089
  54.6885540  28.7480130  43.7341953  56.1042769  28.6742993  44.2653959
  60.9113150  28.7176176  28.2667925  61.8231006  28.9503562  28.0915622
  60.4022797  29.3013220  27.7043003  53.7198578  30.9971663  43.3057056
  54.4613263  31.5356707  43.0291879  53.0135564  31.6237952  43.4628608
  55.5484988  28.0773410  39.2762774  56.3946183  28.5012824  39.4197423
  55.4883626  27.4207035  39.9701337  59.5182732  33.7001994  35.6581506
  58.8891595  33.8647708  34.9557574  59.1308395  34.1143604  36.4292470
  58.2549125  24.8934212  36.5157786  57.3933604  25.1915465  36.8074523
  58.2811560  25.1104611  35.5838818  55.0710694  33.4376402  32.9231591
  55.5349040  33.7164105  32.1336214  54.8067492  32.5359847  32.7404682
  51.9634775  32.9847884  35.8611354  52.5336133  33.4135152  35.2228839
  52.5542887  32.7030468  36.5595540  54.0079580  29.5599555  29.7321156
  54.7103624  30.0120598  30.1995083  53.6760209  28.9183373  30.3601049
  52.4559942  28.1511311  44.1072366  51.8258603  28.8327592  44.3407763
  52.3496030  28.0394393  43.1625504  47.7504914  27.8183107  35.0338290
  46.9603968  28.0740636  34.5578401  48.2416162  28.6331445  35.1390330
  49.7019660  28.1827686  31.9921767  48.9050823  28.2946381  32.5105262
  49.4745252  28.5214339  31.1262657  55.5325327  34.7072390  39.9404281
  55.5969760  35.1692797  40.7762453  54.8236251  34.0769755  40.0686591
  46.0342617  28.0713598  37.4653281  46.2850656  28.9560608  37.7310857
  46.5702166  27.8918199  36.6928373  55.2473345  36.3740497  29.8083262
  55.1119020  37.2192033  30.2368109  55.7883158  36.5759775  29.0449195
  51.7340685  22.4532077  46.4697617  51.3407630  21.8998276  47.1445261
  52.5506825  22.7642656  46.8604134  48.7002742  33.8915935  30.3811187
  49.2127263  34.6859185  30.5316751  49.3525455  33.1942226  30.3144788
  50.5097627  37.0081692  32.4633940  50.6864255  37.9299656  32.2754924
  51.3054461  36.6940111  32.8928320  54.6508646  23.8689956  44.0617873
  55.3918359  24.4697109  43.9822336  54.8826568  23.1267594  43.5035916
  49.7949984  29.0546323  42.3396103  49.6803499  28.1531581  42.6403202
  48.9394501  29.3010020  41.9880920  56.8741821  36.9964064  43.9383604
  56.4305676  36.2100442  43.6204508  57.5359035  37.1843214  43.2727494
  51.6328943  38.5259865  38.4644282  52.1836368  38.3976929  37.6921276
  50.7940419  38.8254754  38.1139175  58.9723059  37.2766864  41.9665005
  58.9541535  38.0975745  41.4745274  59.8942980  37.1520939  42.1915146
  55.4296114  34.7910993  42.8088513  55.9624450  34.0299281  42.5787821
  54.9010195  34.4984645  43.5512668  58.5965809  19.8971059  38.3382155
  58.2530078  20.7872701  38.2621266  58.9644771  19.7072717  37.4751740
  46.6651659  32.2204590  31.1570757  47.5026881  32.6301598  30.9404465
  46.8429927  31.2804032  31.1270951  58.5616091  29.8879670  26.8454590
  58.0462715  30.6584275  27.0842978  58.2893400  29.2144806  27.4687652
  56.1463202  24.7329371  31.9039829  55.2904799  24.3436221  31.7245467
  56.5590154  24.8121332  31.0439614  57.6762349  22.2675714  36.3031388
  57.1727145  22.2305849  35.4899194  57.9692956  23.1768457  36.3628045
  53.9205235  22.3514444  35.3097570  54.7858232  22.1557253  34.9503459
  53.9882744  22.1224796  36.2366927  58.3502395  27.7606762  28.6714371
  58.0452530  28.0752911  29.5224515  59.3032837  27.8388182  28.7141704
  56.7948826  33.9196986  30.3207325  56.2670188  33.1849745  30.0080563
  56.2936329  34.6971662  30.0747294  51.5267554  24.5816652  32.6813937
  52.1011306  24.3591833  31.9487130  52.1138536  24.6505346  33.4342538
  51.8537141  26.6121113  26.7009822  51.0174453  26.9495799  27.0219097
  51.7141911  26.4770093  25.7636959  53.8290222  21.4557901  31.4089006
  53.1754634  21.1406918  30.7845621  53.7870696  20.8333641  32.1348829
  54.9401427  31.7377196  23.3242298  54.0328488  31.5066449  23.5233447
  55.4372459  30.9414815  23.5116280  57.8469505  40.4474703  26.2438984
  57.1731204  40.7506400  26.8523942  58.2335327  41.2503783  25.8944442
  57.0627962  27.9439834  35.7336654  56.1450523  28.1654781  35.5758342
  57.4788106  28.0186145  34.8748361  57.8463010  29.3431250  30.8639334
  58.5934829  29.8552647  30.5546456  58.1154599  29.0215303  31.7243728
  56.1189660  31.8389791  27.8466288  55.2100879  31.5548824  27.9438758
  56.1484744  32.2588869  26.9869595  60.2941847  26.3788366  32.8458123
  59.5564604  25.8665752  33.1768366  60.5468620  25.9388748  32.0341400
  59.7941867  37.2872877  32.5507274  60.0864841  37.8477934  31.8319640
  60.3040487  37.5801438  33.3060433  60.3953474  19.1564618  33.4399893
  60.7012351  18.2961982  33.1525808  61.1206079  19.7482238  33.2398887
  46.6877830  29.5595305  31.8281491  46.4902230  28.9664666  31.1032557
  46.1324494  29.2547515  32.5457429  54.6674554  29.4518411  33.9476084
  54.7223164  28.4992248  33.8718560  53.8565756  29.6077850  34.4317382
  55.8165748  33.3798534  25.1854367  55.3785178  32.6634393  24.7260004
  56.5576189  33.6074649  24.6239458  52.6066914  28.0695471  31.7066463
  51.7934779  28.3689642  32.1131655  53.1025908  27.6751160  32.4240945
  54.7575492  38.0653228  33.6400727  54.7151671  38.2914074  32.7109259
  55.6738191  37.8316603  33.7886528  58.2041126  28.5337296  40.5381357
  58.5590513  28.7608769  41.3975822  58.8513257  28.8655672  39.9158612
  52.0980989  25.6413827  37.3227698  52.7380368  25.5002586  36.6250661
  51.2658519  25.3548340  36.9466300  52.8741293  34.9416257  33.4362690
  53.6681891  34.4466577  33.2345265  52.1632985  34.4134120  33.0730396
  57.6936137  37.3234353  37.7875058  57.7473159  37.8925289  38.5552774
  56.8250918  37.4936238  37.4229095  49.1824056  29.0859339  29.5122443
  48.2521644  29.0243794  29.7292405  49.2781528  28.5635292  28.7159084
  49.1009605  25.6114152  32.1000684  49.3616422  26.5259485  31.9909845
  49.9226777  25.1438594  32.2497297  50.5734530  27.0251909  39.2699509
  51.2457584  26.8169271  38.6212158  49.7464317  26.8273995  38.8304741
  56.4760102  23.6513850  41.2865170  55.8288017  24.3503799  41.1929646
  57.2461118  24.0849994  41.6541418  59.8838900  33.9162702  44.3615723
  59.7324407  33.6873254  43.4445807  59.8743580  34.8733303  44.3747068
  56.6524237  31.4894615  39.3461990  57.5816297  31.6405774  39.1730957
  56.2315267  31.5778635  38.4910636  55.4512569  35.5145279  37.1160527
  55.3123654  35.1464063  37.9886465  54.6627165  36.0292918  36.9444485
  56.0460721  40.6154375  28.4586064  56.2212476  40.1442419  29.2731686
  55.3593509  41.2420142  28.6867324  57.0017784  34.8926882  34.5049365
  56.6667616  34.8527652  35.4007015  56.5021729  34.2271598  34.0319775
  50.9762028  30.2994512  40.0301946  50.8381826  29.5674751  40.6313485
  51.8866951  30.2103412  39.7486134  59.9376975  32.2382916  24.7786425
  59.3206146  31.5129744  24.6819477  59.4693464  32.9992276  24.4353499
  53.6044328  30.0114471  39.5185626  54.3143947  29.3707663  39.4772244
  53.5613637  30.2627366  40.4411807  61.5931107  36.9481824  42.4392205
  61.5343653  36.2641045  41.7722788  61.9950625  37.6900814  41.9872831
  52.3173262  26.9979689  41.3381265  51.7810619  26.5470427  41.9902862
  51.7289971  27.1325598  40.5951730  50.6121806  43.7643738  35.2325924
  50.8518404  44.3962262  35.9104942  49.7691002  43.4131778  35.5191283
  51.7275521  26.4568340  23.9007729  50.8504988  26.3357141  23.5369976
  52.2033274  25.6654419  23.6486618  43.2477661  31.2445500  33.9949236
  43.9348701  30.9307230  33.4070251  43.0925790  32.1486865  33.7216487
  48.0512384  26.1335697  38.4234260  47.9670572  25.5261366  37.6884670
  47.2295090  26.6244715  38.4243756  55.1249668  39.5722861  37.6367428
  55.0519839  40.3777832  38.1486732  54.6827061  39.7714826  36.8115449
  54.9139447  38.8094631  31.1470249  54.1306969  39.3516311  31.2408474
  55.6132193  39.3268610  31.5464491  58.2236097  24.6189260  33.7904455
  58.7204797  23.8659222  33.4705525  57.4523079  24.6553577  33.2247664
  57.5848351  39.4709695  39.7925586  58.2976323  40.1057160  39.7201488
  57.0938380  39.5673561  38.9765588  59.3065878  33.3760947  31.3642878
  58.3722157  33.4962410  31.1947582  59.4842547  32.4733414  31.1002888
  54.8071066  26.7606643  33.5176139  54.4368854  26.2077684  34.2057045
  55.3030159  26.1564777  32.9651139  52.6360265  37.2204138  40.6131157
  53.3369724  37.8540621  40.7660552  52.1655380  37.5618870  39.8526797
  60.6655092  21.5858854  35.9383814  59.7518172  21.8163081  36.1066021
  61.0948194  21.6697298  36.7897846  57.3968725  39.8108439  32.5411878
  57.5791119  38.9930095  33.0039630  58.2201711  40.0276131  32.1036768
  57.7310890  38.7376624  29.8026926  58.2598657  38.2269079  29.1897089
  57.9939110  38.4219154  30.6672459  56.4849124  30.5168557  44.9249745
  55.8089761  30.4162686  45.5952120  57.3076758  30.3607770  45.3885742
  48.2327983  36.7540493  37.5462260  48.8181420  36.0084181  37.6790164
  48.0352821  37.0644450  38.4298924  51.0866638  39.7891741  32.5624702
  50.4177013  40.2737868  32.0788742  50.9479508  40.0360961  33.4768081
  42.8245638  29.3246093  36.2666703  42.8629737  28.7909684  37.0603821
  42.3185930  28.7981299  35.6477680  55.2271907  41.8235484  39.1607361
  55.7790215  41.9867106  39.9256446  55.5678100  42.4139922  38.4887386
  50.2036400  24.1710634  39.7629245  50.2677726  25.0325465  39.3506643
  50.1403520  23.5584636  39.0301604  49.6788672  26.2433766  43.4102280
  50.3060711  25.8610844  44.0239804  48.8216591  26.0247968  43.7757972
  60.0782781  36.6496742  45.0156015  60.6222685  37.2626700  44.5210970
  59.4969626  37.2076320  45.5323028  46.4554215  28.0510196  29.3420635
  46.7507656  27.1420874  29.2887688  45.5542251  28.0297935  29.0201637
  58.3640294  39.7717460  36.1471043  58.2391433  38.9707200  35.6381988
  59.0219385  40.2663653  35.6585013  49.9848462  26.1266192  35.3248183
  49.2635048  26.7402160  35.1855656  50.7741718  26.6623957  35.2464829
  60.4275202  37.5726480  37.7750593  59.4805538  37.4531831  37.7028920
  60.7757975  36.6848978  37.8576854  52.7874776  23.4620619  41.5988835
  53.3109177  23.7082915  42.3615144  52.5687109  24.2940653  41.1791972
  48.1842057  25.7324293  29.4659960  47.8554763  24.8521672  29.2835066
  48.5381427  25.6771962  30.3536349  57.4321636  37.3679196  33.9754945
  57.2846598  36.4395903  34.1562515  58.2575129  37.3899287  33.4912020
  51.2983880  26.0197263  29.8335437  51.6379952  26.5483184  29.1114046
  51.7456000  26.3577669  30.6094004  53.9927321  24.4034314  39.2838505
  53.6524141  23.6042127  39.6859185  53.2866327  24.7036025  38.7115339
  54.6443793  21.4883626  37.7365828  55.4669862  21.0144104  37.6144719
  54.8881856  22.2674110  38.2364515  53.2852027  24.5171885  28.0328730
  54.0060390  24.8953137  27.5292447  52.6617331  25.2360761  28.1363708
  57.4283150  25.2217034  28.9687062  57.6446764  26.1041671  28.6675891
  56.9477217  24.8303247  28.2392704  52.1682371  28.1802747  35.5457807
  52.0226952  28.4943050  36.4382089  51.6907575  28.7987647  34.9928706
  54.0278754  25.1705295  35.5938697  54.0140323  24.2746388  35.2570995
  54.7451182  25.1775959  36.2276983  55.8804885  25.6042635  37.6391824
  55.6222663  26.5259706  37.6376154  55.3489925  25.2073070  38.3292288
  46.6428033  30.7208091  38.4845468  46.0981502  31.4967899  38.6165743
  47.5207383  31.0678896  38.3264590  53.4315650  24.0519675  30.8626267
  53.5531561  23.1236321  31.0617154  53.1417692  24.0658361  29.9504582
  56.3006840  21.7374586  33.9992987  56.3228537  21.8013919  33.0444966
  56.7174900  20.8979094  34.1933493  47.4294055  29.8477987  41.3775625
  46.6875791  29.9960623  41.9640256  47.1086800  30.1086253  40.5142374
  55.3737718  39.3893966  41.1756015  55.6824844  39.1443112  42.0478715
  56.1713200  39.5940604  40.6874885  55.3958330  41.5431875  33.4061392
  54.9563320  41.0508254  34.0994248  56.1466447  41.0004843  33.1653467
  47.8750669  37.7343416  33.4086020  48.7008689  37.4347188  33.0284663
  47.5244721  36.9651039  33.8575808  52.8432202  37.0869884  35.4783693
  52.2212211  36.4240589  35.1785921  53.5137069  37.1131016  34.7957341
  46.0759274  35.6529743  34.3674953  45.2391182  35.2251917  34.1858955
  46.0482919  35.8462186  35.3045745  52.9156730  25.5651672  45.0716199
  52.9644885  26.4413795  44.6893969  53.4579244  25.0229066  44.4987843
  52.4045709  35.6373808  28.9542154  52.5533829  36.3209272  28.3008827
  53.2112153  35.6178898  29.4691610  55.1456018  26.3183045  41.8262558
  54.2759327  26.6116611  41.5545147  55.3815498  26.9023490  42.5469822
  50.1598342  31.6638985  29.9603223  49.9144384  30.7601315  30.1583433
  50.3294257  31.6656136  29.0182701  57.8495052  22.5362662  39.3427978
  58.3676996  23.2723689  39.0174467  57.4950185  22.8426655  40.1774737
  49.4293990  27.3967343  27.4589384  48.7363235  27.4711698  26.8029420
  49.1845741  26.6327687  27.9810901  58.1007646  18.9562944  34.8628875
  58.3809400  18.2886133  35.4889302  58.8858253  19.1492040  34.3503539
  55.9041115  38.1321938  26.4253901  55.3315082  38.7512125  25.9724373
  56.4773908  38.6821300  26.9593823  59.9930884  24.4636162  38.7959851
  59.3980816  24.7441174  38.1006340  59.7080581  24.9530062  39.5676592
  59.1238374  38.4159088  27.5562484  60.0569048  38.3504650  27.7595359
  59.0361587  39.2515355  27.0977016  61.7526391  37.7324959  24.5166431
  61.6740023  37.3984822  25.4102189  62.5736058  38.2246727  24.5157903
  56.2887913  29.4682751  23.7669954  57.2347018  29.3388959  23.8358372
  55.9102158  28.7297413  24.2439382  62.2609798  21.1338757  33.7296846
  62.0634619  20.8253845  34.6140178  62.8709503  21.8600396  33.8594775
  56.1726606  33.5200497  45.2270611  57.0929615  33.6979096  45.4210657
  56.1376189  32.5756542  45.0750310  54.4730830  27.3932727  23.7024839
  53.5662286  27.0965840  23.7787553  54.7506811  27.0962545  22.8359125
  45.3908771  28.7139091  34.1523885  45.0711555  27.8604399  33.8598259
  44.8442199  28.9287669  34.9081853  49.1688678  31.4301532  37.8693392
  49.3874688  32.3618640  37.8881426  49.5814452  31.0709506  38.6548196
  56.0892896  21.9369617  29.8569080  55.2793624  21.5916702  30.2324326
  56.7777313  21.6277161  30.4456692  58.0183444  21.0147664  31.4793377
  58.5714483  21.4343117  32.1383400  58.2553531  20.0883412  31.5216333
  54.0416543  27.0034738  47.2596141  53.9413270  27.9529094  47.1908232
  53.8238086  26.6752976  46.3872211  53.2429615  24.2519663  23.8436818
  54.1048779  24.5774561  24.1032636  53.4279959  23.4651158  23.3309884
  45.2597031  32.3342002  36.1217007  44.5660502  31.9195955  35.6086961
  46.0070022  32.3762539  35.5250426  61.3962251  23.1248189  30.9872041
  60.8160920  23.7832993  30.6050094  61.1298184  22.3025534  30.5759459
  59.8465818  22.5253247  33.1893362  60.3465596  22.6369781  32.3807680
  60.4901426  22.2214300  33.8294170  53.9047814  30.4331876  46.0761202
  53.4214895  31.2332236  46.2825092  53.9908753  30.4439821  45.1228646
  47.1733773  32.2660256  33.9983022  47.1504461  32.3647943  33.0464905
  47.4834410  33.1125407  34.3200188  49.8321151  34.3236411  38.1129636
  50.7864405  34.2920353  38.0459568  49.6333675  33.8627035  38.9279862
  50.4220533  32.8937527  40.6800434  51.2413422  33.3881606  40.7035271
  50.6957341  31.9769495  40.6518001  60.1787129  25.2848279  30.0428389
  59.2912984  25.5697930  29.8248584  60.5941118  25.1242043  29.1955666
  63.5301666  25.3094800  33.7582729  64.3062056  25.7991253  34.0307346
  62.8049800  25.7352855  34.2154598  65.9674224  26.0222420  34.8156669
  66.5618715  25.7818156  34.1049978  66.0400808  25.3029550  35.4430206
  48.1871380  39.8656031  35.1299834  48.0525848  39.1056431  34.5637832
  47.7703442  40.5896930  34.6628623  59.3230343  35.0492954  24.1376409
  60.0266193  35.2542957  24.7534065  58.5992992  35.6169716  24.4025493
  60.1528153  30.8002815  30.2578680  60.0963355  31.2571367  29.4186312
  60.7056496  30.0393500  30.0801522  63.9632959  26.5892547  31.0828799
  63.7069893  26.1889183  31.9137007  63.3385827  27.3036341  30.9578938
  51.3440506  40.7625348  35.3418277  51.2272890  41.7070780  35.2396967
  50.5232952  40.4598909  35.7304076  61.2317040  35.4875483  26.1874869
  62.0662644  35.0556682  26.0052344  61.0701383  35.3157497  27.1151764
  60.8862932  31.9907597  27.5531209  60.8311736  31.8251868  26.6119653
  60.2608988  32.6983630  27.7093399  45.6755447  27.2275661  41.3792631
  46.3214311  26.7174615  41.8679856  45.4672599  27.9644343  41.9536056
  58.2008840  34.2956508  46.8784772  59.0699999  34.4697161  46.5171406
  57.7215591  35.1150925  46.7560501  54.1959058  21.4915706  27.1316527
  54.1837728  22.4357546  27.2884798  55.0882480  21.3085851  26.8375988
  52.3695020  41.4153609  38.5574205  53.2722267  41.4477220  38.8740700
  52.1432390  40.4854060  38.5720541  54.1248622  40.1684596  35.2184284
  53.1744253  40.1686458  35.1048656  54.4281108  39.4217331  34.7020318
  58.0111177  18.0858482  31.3862464  57.2443573  17.5316969  31.5319146
  58.4221882  18.1580351  32.2476616  50.0152938  24.3743278  45.4767645
  50.8784400  24.0180083  45.6870970  49.4418349  24.0357173  46.1643050
  68.1077396  51.4779007  27.5202927  67.4565376  52.0633087  27.1336941
  68.9021759  52.0085202  27.5797964  62.0333023  48.5668144  27.9190061
  62.8063899  48.0197131  27.7802937  62.3858422  49.4312393  28.1304523
  64.3699301  44.7260810  25.5508511  64.6224822  44.2042331  24.7891974
  63.4323860  44.5626955  25.6535195  66.0732618  41.1188963  26.4540924
  66.2407020  41.9869199  26.8211395  65.8829787  41.2816244  25.5302213
  66.0521839  43.5746620  27.4387591  65.9321464  44.0203671  28.2773071
  65.3574427  43.9231938  26.8801129  63.8128731  56.3450262  31.0877722
  63.7352760  57.2958087  31.1666202  63.2090374  55.9996134  31.7452648
  58.5898669  43.1475025  35.0338290  57.7997723  43.4032553  34.5578401
  59.0809916  43.9623363  35.1390330  60.5413414  43.5119604  31.9921767
  59.7444578  43.6238298  32.5105262  60.3139006  43.8506256  31.1262657
  56.8736372  43.4005515  37.4653281  57.1244410  44.2852525  37.7310857
  57.4095920  43.2210117  36.6928373  66.0867100  51.7032415  29.8083262
  65.9512774  52.5483951  30.2368109  66.6276912  51.9051693  29.0449195
  59.5396497  49.2207853  30.3811187  60.0521017  50.0151103  30.5316751
  60.1919210  48.5234143  30.3144788  57.5045414  47.5496507  31.1570757
  58.3420636  47.9593516  30.9404465  57.6823681  46.6095949  31.1270951
  62.6930896  41.9413031  26.7009822  61.8568208  42.2787717  27.0219097
  62.5535665  41.8062010  25.7636959  65.7795181  47.0669114  23.3242298
  64.8722243  46.8358367  23.5233447  66.2766213  46.2706733  23.5116280
  68.6863260  55.7766621  26.2438984  68.0124959  56.0798317  26.8523942
  69.0729082  56.5795701  25.8944442  57.5271585  44.8887223  31.8281491
  57.3295985  44.2956583  31.1032557  56.9718249  44.5839433  32.5457429
  66.6559502  48.7090452  25.1854367  66.2178932  47.9926311  24.7260004
  67.3969943  48.9366567  24.6239458  63.4460668  43.3987389  31.7066463
  62.6328534  43.6981559  32.1131655  63.9419663  43.0043078  32.4240945
  60.0217811  44.4151256  29.5122443  59.0915399  44.3535712  29.7292405
  60.1175283  43.8927209  28.7159084  59.9403360  40.9406069  32.1000684
  60.2010177  41.8551403  31.9909845  60.7620532  40.4730512  32.2497297
  66.8854475  55.9446293  28.4586064  67.0606231  55.4734336  29.2731686
  66.1987263  56.5712059  28.6867324  61.4515560  59.0935656  35.2325924
  61.6912159  59.7254180  35.9104942  60.6084757  58.7423696  35.5191283
  62.5669276  41.7860258  23.9007729  61.6898742  41.6649059  23.5369976
  63.0427029  40.9946336  23.6486618  54.0871416  46.5737418  33.9949236
  54.7742456  46.2599148  33.4070251  53.9319545  47.4778782  33.7216487
  58.8906138  41.4627614  38.4234260  58.8064327  40.8553284  37.6884670
  58.0688844  41.9536633  38.4243756  65.7533202  54.1386548  31.1470249
  64.9700724  54.6808229  31.2408474  66.4525947  54.6560528  31.5464491
  61.9260393  55.1183658  32.5624702  61.2570768  55.6029786  32.0788742
  61.7873262  55.3652879  33.4768081  53.6639392  44.6538011  36.2666703
  53.7023492  44.1201602  37.0603821  53.1579685  44.1273217  35.6477680
  66.0665661  57.1527402  39.1607361  66.6183969  57.3159023  39.9256446
  66.4071855  57.7431840  38.4887386  61.0430154  39.5002552  39.7629245
  61.1071481  40.3617383  39.3506643  60.9797275  38.8876553  39.0301604
  57.2947970  43.3802113  29.3420635  57.5901411  42.4712792  29.2887688
  56.3936005  43.3589853  29.0201637  60.8242217  41.4558110  35.3248183
  60.1028802  42.0694078  35.1855656  61.6135472  41.9915875  35.2464829
  59.0235811  41.0616211  29.4659960  58.6948517  40.1813590  29.2835066
  59.3775182  41.0063880  30.3536349  62.1377634  41.3489181  29.8335437
  62.4773707  41.8775102  29.1114046  62.5849755  41.6869587  30.6094004
  64.1245782  39.8463802  28.0328730  64.8454144  40.2245055  27.5292447
  63.5011086  40.5652679  28.1363708  66.2131472  54.7185883  41.1756015
  66.5218599  54.4735030  42.0478715  67.0106954  54.9232522  40.6874885
  66.2352084  56.8723793  33.4061392  65.7957075  56.3800172  34.0994248
  66.9860201  56.3296761  33.1653467  58.7144423  53.0635334  33.4086020
  59.5402443  52.7639106  33.0284663  58.3638475  52.2942956  33.8575808
  56.9153029  50.9821660  34.3674953  56.0784937  50.5543835  34.1858955
  56.8876674  51.1754104  35.3045745  63.2439464  50.9665725  28.9542154
  63.3927584  51.6501190  28.3008827  64.0505907  50.9470816  29.4691610
  60.9992097  46.9930903  29.9603223  60.7538138  46.0893233  30.1583433
  61.1688011  46.9948054  29.0182701  60.2687744  42.7259261  27.4589384
  59.5756989  42.8003616  26.8029420  60.0239496  41.9619604  27.9810901
  66.7434869  53.4613856  26.4253901  66.1708836  54.0804043  25.9724373
  67.3167663  54.0113218  26.9593823  72.5920146  53.0616876  24.5166431
  72.5133777  52.7276740  25.4102189  73.4129812  53.5538644  24.5157903
  67.1281668  44.7974669  23.7669954  68.0740772  44.6680877  23.8358372
  66.7495913  44.0589331  24.2439382  65.3124585  42.7224645  23.7024839
  64.4056040  42.4257758  23.7787553  65.5900566  42.4254463  22.8359125
  56.2302525  44.0431008  34.1523885  55.9105309  43.1896317  33.8598259
  55.6835953  44.2579587  34.9081853  64.0823369  39.5811580  23.8436818
  64.9442533  39.9066479  24.1032636  64.2673714  38.7943076  23.3309884
  59.0265134  55.1947948  35.1299834  58.8919602  54.4348349  34.5637832
  58.6097197  55.9188848  34.6628623  70.1624097  50.3784872  24.1376409
  70.8659947  50.5834874  24.7534065  69.4386746  50.9461634  24.4025493
  62.1834260  56.0917265  35.3418277  62.0666644  57.0362698  35.2396967
  61.3626706  55.7890827  35.7304076  72.0710795  50.8167401  26.1874869
  72.9056399  50.3848599  26.0052344  71.9095138  50.6449415  27.1151764
  56.5149202  42.5567579  41.3792631  57.1608065  42.0466533  41.8679856
  56.3066353  43.2936260  41.9536056  65.0352812  36.8207623  27.1316527
  65.0231482  37.7649463  27.2884798  65.9276234  36.6377769  26.8375988
  63.2088774  56.7445527  38.5574205  64.1116021  56.7769137  38.8740700
  62.9826144  55.8145978  38.5720541  64.9642376  55.4976514  35.2184284
  64.0138007  55.4978375  35.1048656  65.2674862  54.7509248  34.7020318
  70.9136024  64.6351148  35.0472682  71.7057316  64.2941973  34.6318982
  71.1532674  64.7446123  35.9674836  72.8726778  63.8960061  27.9190061
  73.6457654  63.3489049  27.7802937  73.2252177  64.7604311  28.1304523
  75.2093055  60.0552728  25.5508511  75.4618576  59.5334249  24.7891974
  74.2717615  59.8918873  25.6535195  74.9289344  61.9580834  27.7532886
  74.8125602  61.2825737  28.4213970  75.0391604  61.4713207  26.9365039
  70.3790251  64.5499771  30.3811187  70.8914772  65.3443021  30.5316751
  71.0312964  63.8526061  30.3144788  72.1885136  67.6665527  32.4633940
  72.3651764  68.5883492  32.2754924  72.9841970  67.3523946  32.8928320
  68.3439168  62.8788425  31.1570757  69.1814390  63.2885433  30.9404465
  68.5217436  61.9387867  31.1270951  80.2403600  60.5463506  26.8454590
  79.7250224  61.3168110  27.0842978  79.9680909  59.8728642  27.4687652
  73.5324650  57.2704948  26.7009822  72.6961962  57.6079635  27.0219097
  73.3929420  57.1353928  25.7636959  76.6188936  62.3961031  23.3242298
  75.7115997  62.1650285  23.5233447  77.1159967  61.5998650  23.5116280
  79.5257014  71.1058538  26.2438984  78.8518713  71.4090235  26.8523942
  79.9122836  71.9087619  25.8944442  77.7977169  62.4973626  27.8466288
  76.8888388  62.2132659  27.9438758  77.8272253  62.9172705  26.9869595
  68.3665339  60.2179140  31.8281491  68.1689739  59.6248501  31.1032557
  67.8112003  59.9131350  32.5457429  77.4953257  64.0382370  25.1854367
  77.0572687  63.3218229  24.7260004  78.2363698  64.2658485  24.6239458
  74.5528802  65.6000092  33.4362690  75.3469400  65.1050413  33.2345265
  73.8420494  65.0717956  33.0730396  70.8611565  59.7443174  29.5122443
  69.9309153  59.6827630  29.7292405  70.9569037  59.2219127  28.7159084
  72.2909315  74.4227574  35.2325924  72.5305913  75.0546098  35.9104942
  71.4478511  74.0715614  35.5191283  73.4063030  57.1152176  23.9007729
  72.5292497  56.9940976  23.5369976  73.8820783  56.3238254  23.6486618
  64.9265170  61.9029335  33.9949236  65.6136210  61.5891065  33.4070251
  64.7713299  62.8070700  33.7216487  69.9115492  67.4124329  37.5462260
  70.4968929  66.6668016  37.6790164  69.7140330  67.7228285  38.4298924
  64.5033147  59.9829929  36.2666703  64.5417246  59.4493519  37.0603821
  63.9973439  59.4565134  35.6477680  68.1341724  58.7094031  29.3420635
  68.4295165  57.8004709  29.2887688  67.2329760  58.6881770  29.0201637
  83.4913755  68.6844022  27.5178808  84.1864660  69.3050715  27.7366122
  83.8336905  67.8339373  27.7931186  69.5538178  68.3927252  33.4086020
  70.3796198  68.0931023  33.0284663  69.2032230  67.6234874  33.8575808
  67.7546783  66.3113578  34.3674953  66.9178691  65.8835752  34.1858955
  67.7270428  66.5046021  35.3045745  74.0833218  66.2957643  28.9542154
  74.2321338  66.9793108  28.3008827  74.8899661  66.2762733  29.4691610
  71.8385851  62.3222821  29.9603223  71.5931893  61.4185151  30.1583433
  72.0081766  62.3239971  29.0182701  71.1081499  58.0551178  27.4589384
  70.4150743  58.1295533  26.8029420  70.8633250  57.2911522  27.9810901
  77.5828624  68.7905774  26.4253901  77.0102591  69.4095961  25.9724373
  78.1561417  69.3405135  26.9593823  83.4313900  68.3908794  24.5166431
  83.3527532  68.0568658  25.4102189  84.2523567  68.8830562  24.5157903
  77.9675422  60.1266586  23.7669954  78.9134527  59.9972794  23.8358372
  77.5889667  59.3881248  24.2439382  76.1518339  58.0516563  23.7024839
  75.2449795  57.7549675  23.7787553  76.4294320  57.7546381  22.8359125
  74.9217124  54.9103498  23.8436818  75.7836288  55.2358396  24.1032636
  75.1067468  54.1234994  23.3309884  66.9384540  62.9925838  36.1217007
  66.2448011  62.5779790  35.6086961  67.6857531  63.0346374  35.5250426
  68.8521282  62.9244091  33.9983022  68.8291970  63.0231779  33.0464905
  69.1621919  63.7709242  34.3200188  69.8658889  70.5239866  35.1299834
  69.7313357  69.7640267  34.5637832  69.4490951  71.2480766  34.6628623
  81.0017852  65.7076789  24.1376409  81.7053702  65.9126792  24.7534065
  80.2780501  66.2753551  24.4025493  82.9104549  66.1459319  26.1874869
  83.7450153  65.7140517  26.0052344  82.7488892  65.9741332  27.1151764
  91.5388824  76.6628970  36.2830046  92.1767234  76.5435717  35.5793386
  91.4209667  77.6109814  36.3417998  88.3478531  76.6156398  36.2191571
  88.0097042  76.4997463  35.3312106  89.2168299  76.2147563  36.1992577
  84.2065346  78.4691874  32.2088462  83.6430211  78.3781811  31.4404750
  84.0917741  77.6491779  32.6890954  88.8298314  77.7691250  42.1777776
  88.8186954  77.3744048  41.3058280  88.9918953  77.0357322  42.7711548
  81.7529778  79.9643066  35.0472682  82.5451070  79.6233891  34.6318982
  81.9926428  80.0738041  35.9674836  89.7864905  82.1362842  27.5202927
  89.1352885  82.7216922  27.1336941  90.5809268  82.6669037  27.5797964
  83.7120532  79.2251979  27.9190061  84.4851408  78.6780966  27.7802937
  84.0645931  80.0896228  28.1304523  85.5505575  80.5528361  41.1256960
  85.2595441  81.4573992  41.0103627  86.1862559  80.5944889  41.8401030
  86.4761782  77.9305210  37.7158320  87.0725354  77.7061232  37.0015283
  86.5336753  77.1889955  38.3183768  86.0486810  75.3844645  25.5508511
  86.3012331  74.8626167  24.7891974  85.1111369  75.2210791  25.6535195
  91.0930093  74.3880424  33.3583254  91.8793182  73.9699847  33.0073671
  91.3568797  75.2926516  33.5264903  91.2640170  79.8253274  28.0571911
  90.6286003  79.8987900  28.7692816  90.9337577  80.4146873  27.3790990
  96.4938520  74.3255657  34.2616233  97.2263692  73.7554874  34.4954062
  95.7377876  73.9377257  34.7022738  85.7683099  77.2872751  27.7532886
  85.6519357  76.6117655  28.4213970  85.8785359  76.8005125  26.9365039
  88.1114640  76.7482898  31.4579575  87.7472847  76.2213519  32.1692497
  88.9681756  76.3581367  31.2846061  87.7520127  71.7772798  26.4540924
  87.9194529  72.6453034  26.8211395  87.5617296  71.9400080  25.5302213
  90.5095460  80.2389777  38.1206754  90.2096183  81.1414816  38.0122561
  90.1646519  79.9721960  38.9727907  83.9607941  76.6903574  34.1543459
  83.0358438  76.5579788  34.3621150  84.2092354  77.4697793  34.6513401
  87.7309347  74.2330456  27.4387591  87.6108973  74.6787506  28.2773071
  87.0361936  74.5815773  26.8801129  81.3216752  76.3336847  34.9887248
  81.4509133  76.5871326  35.9026659  80.6414204  76.9264555  34.6691903
  85.4916240  87.0034097  31.0877722  85.4140269  87.9541922  31.1666202
  84.8877883  86.6579970  31.7452648  93.4294414  74.7051929  28.2667925
  94.3412270  74.9379315  28.0915622  92.9204061  75.2888973  27.7043003
  86.2379842  76.9847416  43.3057056  86.9794526  77.5232460  43.0291879
  85.5316827  77.6113705  43.4628608  91.7135181  79.1276557  41.9029217
  92.1218537  78.6858967  41.1583850  90.9912443  78.5529184  42.1563410
  92.0363996  79.6877747  35.6581506  91.4072858  79.8523461  34.9557574
  91.6489658  80.1019357  36.4292470  95.9153228  80.6232185  33.0125870
  95.2304266  81.0031086  32.4622903  95.9997077  81.2327512  33.7457818
  93.1704159  78.2692144  39.6121213  93.3821055  78.9123904  38.9355594
  93.1233908  77.4354461  39.1443143  87.5891958  79.4252155  32.9231591
  88.0530303  79.7039858  32.1336214  87.3248756  78.5235600  32.7404682
  84.4816039  78.9723637  35.8611354  85.0517396  79.4010905  35.2228839
  85.0724151  78.6906221  36.5595540  86.5260844  75.5475308  29.7321156
  87.2284887  75.9996351  30.1995083  86.1941472  74.9059126  30.3601049
  94.2849987  81.1464099  37.7843571  95.1067431  80.7444287  37.5026252
  94.2812390  81.0432334  38.7359687  82.2200923  74.1703440  31.9921767
  81.4232087  74.2822134  32.5105262  81.9926515  74.5090092  31.1262657
  88.0506591  80.6948143  39.9404281  88.1151023  81.1568550  40.7762453
  87.3417515  80.0645508  40.0686591 102.3755980  77.4902848  34.1328542
 101.6219689  76.9210246  33.9772547 102.5103522  77.4565512  35.0799177
  87.7654609  82.3616250  29.8083262  87.6300283  83.2067786  30.2368109
  88.3064421  82.5635528  29.0449195  81.2184006  79.8791688  30.3811187
  81.7308526  80.6734939  30.5316751  81.8706719  79.1817979  30.3144788
  83.0278891  82.9957445  32.4633940  83.2045519  83.9175409  32.2754924
  83.8235724  82.6815864  32.8928320  89.3923085  82.9839817  43.9383604
  88.9486939  82.1976195  43.6204508  90.0540298  83.1718967  43.2727494
  84.1510206  84.5135618  38.4644282  84.7017631  84.3852682  37.6921276
  83.3121682  84.8130507  38.1139175  91.4904323  83.2642617  41.9665005
  91.4722798  84.0851498  41.4745274  92.4124243  83.1396692  42.1915146
  87.9477377  80.7786746  42.8088513  88.4805714  80.0175034  42.5787821
  87.4191458  80.4860398  43.5512668  79.1832923  78.2080343  31.1570757
  80.0208145  78.6177351  30.9404465  79.3611190  77.2679785  31.1270951
  91.0797355  75.8755423  26.8454590  90.5643978  76.6460028  27.0842978
  90.8074663  75.2020559  27.4687652  96.0531629  78.6287778  28.7807764
  95.2761072  78.2898937  28.3362926  96.7323110  78.6340401  28.1062729
  90.8683658  73.7482515  28.6714371  90.5633794  74.0628664  29.5224515
  91.8214100  73.8263935  28.7141704  89.3130090  79.9072739  30.3207325
  88.7851451  79.1725498  30.0080563  88.8117593  80.6847415  30.0747294
  94.2922936  78.1021759  35.4374372  93.6346610  78.7921021  35.5254500
  95.0963335  78.4918191  35.7808358  93.1028395  76.4566132  33.4878313
  93.6160276  77.0896124  33.9900023  93.7529619  75.8567327  33.1221673
  84.3718405  72.5996866  26.7009822  83.5355717  72.9371552  27.0219097
  84.2323174  72.4645846  25.7636959  87.4582690  77.7252949  23.3242298
  86.5509752  77.4942202  23.5233447  87.9553722  76.9290568  23.5116280
  90.3650769  86.4350456  26.2438984  89.6912468  86.7382153  26.8523942
  90.7516591  87.2379536  25.8944442  89.5809226  73.9315587  35.7336654
  88.6631787  74.1530534  35.5758342  89.9969369  74.0061898  34.8748361
  90.3644273  75.3307003  30.8639334  91.1116092  75.8428400  30.5546456
  90.6335863  75.0091056  31.7243728  88.6370923  77.8265544  27.8466288
  87.7282143  77.5424577  27.9438758  88.6666007  78.2464622  26.9869595
  93.8690191  81.4372133  31.6157456  93.4152518  80.5963043  31.6722646
  93.2384158  82.0733532  31.9532236  92.3123130  83.2748630  32.5507274
  92.6046104  83.8353687  31.8319640  92.8221751  83.5677191  33.3060433
  79.2059094  75.5471058  31.8281491  79.0083494  74.9540419  31.1032557
  78.6505758  75.2423268  32.5457429  87.1855817  75.4394164  33.9476084
  87.2404427  74.4868001  33.8718560  86.3747020  75.5953603  34.4317382
  88.3347011  79.3674287  25.1854367  87.8966441  78.6510146  24.7260004
  89.0757452  79.5950402  24.6239458  85.1248177  74.0571224  31.7066463
  84.3116043  74.3565395  32.1131655  85.6207172  73.6626913  32.4240945
  87.2756755  84.0528981  33.6400727  87.2332934  84.2789827  32.7109259
  88.1919454  83.8192356  33.7886528  96.4520126  77.6431484  31.2430686
  96.3138025  77.8333080  30.3151875  96.0956345  78.4050867  31.6998737
  96.4789506  79.7108011  36.2541957  96.9126012  79.6183301  37.1025011
  97.1921086  79.6865512  35.6161973  85.3922556  80.9292010  33.4362690
  86.1863155  80.4342330  33.2345265  84.6814248  80.4009873  33.0730396
  90.2117401  83.3110106  37.7875058  90.2654423  83.8801042  38.5552774
  89.3432182  83.4811991  37.4229095  81.7005320  75.0735092  29.5122443
  80.7702908  75.0119547  29.7292405  81.7962792  74.5511045  28.7159084
  97.3405055  79.7531712  38.7874842  97.5340945  80.6577523  39.0334117
  97.2405673  79.2939131  39.6213428  92.4020164  79.9038455  44.3615723
  92.2505670  79.6749007  43.4445807  92.3924843  80.8609056  44.3747068
  89.1705500  77.4770368  39.3461990  90.0997560  77.6281527  39.1730957
  88.7496530  77.5654388  38.4910636  87.9693832  81.5021032  37.1160527
  87.8304918  81.1339816  37.9886465  87.1808428  82.0168671  36.9444485
  88.5641984  86.6030128  28.4586064  88.7393740  86.1318172  29.2731686
  87.8774772  87.2295895  28.6867324  89.5199047  80.8802635  34.5049365
  89.1848880  80.8403405  35.4007015  89.0202993  80.2147351  34.0319775
  83.4943291  76.2870265  40.0301946  83.3563089  75.5550504  40.6313485
  84.4048215  76.1979165  39.7486134  92.4558239  78.2258669  24.7786425
  91.8387409  77.5005497  24.6819477  91.9874727  78.9868029  24.4353499
  86.1225592  75.9990224  39.5185626  86.8325210  75.3583416  39.4772244
  86.0794900  76.2503119  40.4411807  94.1112371  82.9357577  42.4392205
  94.0524917  82.2516798  41.7722788  94.5131889  83.6776567  41.9872831
  83.1303069  89.7519491  35.2325924  83.3699668  90.3838015  35.9104942
  82.2872266  89.4007531  35.5191283  84.2456785  72.4444093  23.9007729
  83.3686251  72.3232894  23.5369976  84.7214538  71.6530172  23.6486618
  94.1129778  80.8997161  40.6706185  93.2256557  80.5623083  40.7932583
  94.6828329  80.1680193  40.9074950  75.7658925  77.2321253  33.9949236
  76.4529965  76.9182983  33.4070251  75.6107054  78.1362618  33.7216487
  87.6430931  85.5598614  37.6367428  87.5701103  86.3653585  38.1486732
  87.2008324  85.7590580  36.8115449  87.4320711  84.7970384  31.1470249
  86.6488233  85.3392064  31.2408474  88.1313456  85.3144363  31.5464491
  98.5947118  76.3105379  35.4322746  98.5836995  77.1930094  35.0616679
  97.7264498  75.9576930  35.2377283  90.1029615  85.4585448  39.7925586
  90.8157587  86.0932913  39.7201488  89.6119643  85.5549314  38.9765588
  91.8247142  79.3636700  31.3642878  90.8903420  79.4838163  31.1947582
  92.0023810  78.4609167  31.1002888  87.3252330  72.7482396  33.5176139
  86.9550117  72.1953437  34.2057045  87.8211422  72.1440530  32.9651139
  95.2119693  75.2054020  31.8992912  95.6780145  76.0382011  31.8253215
  95.6627193  74.7399001  32.6038171  85.1541528  83.2079891  40.6131157
  85.8550988  83.8416374  40.7660552  84.6836643  83.5494623  39.8526797
  93.2795924  81.5497841  28.8979064  93.5555768  81.4354436  29.8072938
  92.4100423  81.1515326  28.8591237  89.9149988  85.7984192  32.5411878
  90.0972383  84.9805848  33.0039630  90.7382974  86.0151884  32.1036768
  90.2492154  84.7252377  29.8026926  90.7779920  84.2144832  29.1897089
  90.5120373  84.4094907  30.6672459  89.0030387  76.5044310  44.9249745
  88.3271024  76.4038439  45.5952120  89.8258021  76.3483523  45.3885742
  80.7509246  82.7416246  37.5462260  81.3362683  81.9959934  37.6790164
  80.5534085  83.0520203  38.4298924  83.6047902  85.7767494  32.5624702
  82.9358277  86.2613621  32.0788742  83.4660771  86.0236714  33.4768081
  75.3426901  75.3121846  36.2666703  75.3811001  74.7785437  37.0603821
  74.8367194  74.7857052  35.6477680  87.7453170  87.8111237  39.1607361
  88.2971478  87.9742859  39.9256446  88.0859364  88.4015675  38.4887386
  92.5964044  82.6372495  45.0156015  93.1403948  83.2502453  44.5210970
  92.0150889  83.1952073  45.5323028  78.9735479  74.0385949  29.3420635
  79.2688920  73.1296627  29.2887688  78.0723514  74.0173688  29.0201637
  90.8821557  85.7593213  36.1471043  90.7572697  84.9582953  35.6381988
  91.5400648  86.2539406  35.6585013  92.9456466  83.5602233  37.7750593
  91.9986801  83.4407584  37.7028920  93.2939239  82.6724731  37.8576854
  80.7023320  71.7200046  29.4659960  80.3736026  70.8397425  29.2835066
  81.0562691  71.6647715  30.3536349  89.9502899  83.3554949  33.9754945
  89.8027861  82.4271656  34.1562515  90.7756393  83.3775040  33.4912020
  93.5537021  84.1783508  35.0619818  94.4783568  83.9726369  34.9244269
  93.3852324  83.9299909  35.9709159  85.8033290  70.5047638  28.0328730
  86.5241653  70.8828890  27.5292447  85.1798595  71.2236514  28.1363708
  84.6863635  74.1678500  35.5457807  84.5408215  74.4818803  36.4382089
  84.2088838  74.7863400  34.9928706  93.3432337  84.6969175  30.4181909
  93.5169215  84.1315598  29.6655762  93.8361228  85.4970070  30.2361399
  79.1609297  76.7083844  38.4845468  78.6162765  77.4843652  38.6165743
  80.0388647  77.0554649  38.3264590  99.1971728  77.4605598  32.0372209
  99.6402874  76.7112923  31.6391332  98.3198239  77.4515734  31.6545941
  94.3307510  84.0135940  27.5178808  95.0258414  84.6342632  27.7366122
  94.6730660  83.1631291  27.7931186  96.2298933  81.4635645  29.0466138
  96.7550257  81.8022918  28.3215458  96.1421285  80.5282660  28.8629273
  87.8918981  85.3769719  41.1756015  88.2006108  85.1318866  42.0478715
  88.6894463  85.5816357  40.6874885  87.9139593  87.5307628  33.4061392
  87.4744584  87.0384007  34.0994248  88.6647710  86.9880596  33.1653467
  80.3931932  83.7219169  33.4086020  81.2189952  83.4222941  33.0284663
  80.0425984  82.9526792  33.8575808  85.3613466  83.0745637  35.4783693
  84.7393475  82.4116342  35.1785921  86.0318333  83.1006769  34.7957341
  78.5940538  81.6405496  34.3674953  77.7572446  81.2127670  34.1858955
  78.5664183  81.8337939  35.3045745  95.9192839  82.0968549  44.3517336
  95.1288382  82.0792688  43.8121836  95.6826193  82.6356842  45.1066373
  96.0390714  78.9461015  41.6650065  96.0888719  78.7811023  42.6065588
  95.9304637  78.0788274  41.2747946  84.9226973  81.6249561  28.9542154
  85.0715093  82.3085025  28.3008827  85.7293416  81.6054651  29.4691610
  97.5408911  81.3657957  41.9092086  97.2493719  81.7287937  42.7455547
  96.9281042  80.6524965  41.7305419  98.7404593  78.9310836  34.4294657
  99.5751484  79.3700640  34.5932217  98.8763722  78.4549490  33.6102902
  95.7896099  76.4890571  40.3772144  96.2650221  76.6818218  39.5690996
  94.8661664  76.5449757  40.1315528  82.6779606  77.6514738  29.9603223
  82.4325647  76.7477068  30.1583433  82.8475520  77.6531889  29.0182701
  81.9475253  73.3843096  27.4589384  81.2544498  73.4587451  26.8029420
  81.7027005  72.6203440  27.9810901  88.4222378  84.1197691  26.4253901
  87.8496345  84.7387878  25.9724373  88.9955172  84.6697053  26.9593823
  91.6419638  84.4034841  27.5562484  92.5750311  84.3380403  27.7595359
  91.5542851  85.2391108  27.0977016  94.2707655  83.7200712  24.5166431
  94.1921286  83.3860575  25.4102189  95.0917321  84.2122480  24.5157903
  96.9685846  76.5862451  37.7242750  96.9362166  75.6478452  37.9102434
  97.5786469  76.6646488  36.9908575  88.8069177  75.4558504  23.7669954
  89.7528281  75.3264712  23.8358372  88.4283422  74.7173166  24.2439382
 102.7862396  77.6478458  36.8648787 103.5165784  77.3863746  37.4256490
 102.1769341  76.9107180  36.9050855 100.8677693  75.7886320  37.4623238
 100.1410856  75.6542285  36.8539729 100.4524980  76.0963149  38.2679956
  88.6907869  79.5076250  45.2270611  89.6110879  79.6854849  45.4210657
  88.6557452  78.5632295  45.0750310  86.9912094  73.3808480  23.7024839
  86.0843549  73.0841593  23.7787553  87.2688075  73.0838298  22.8359125
  77.9090034  74.7014844  34.1523885  77.5892818  73.8480152  33.8598259
  77.3623462  74.9163422  34.9081853  81.6869942  77.4177285  37.8693392
  81.9055951  78.3494393  37.8881426  82.0995715  77.0585259  38.6548196
  85.7610878  70.2395416  23.8436818  86.6230042  70.5650314  24.1032636
  85.9461222  69.4526912  23.3309884  77.7778294  78.3217755  36.1217007
  77.0841766  77.9071708  35.6086961  78.5251285  78.3638292  35.5250426
  79.6915037  78.2536009  33.9983022  79.6685725  78.3523696  33.0464905
  80.0015673  79.1001160  34.3200188  82.3502414  80.3112164  38.1129636
  83.3045668  80.2796106  38.0459568  82.1514938  79.8502788  38.9279862
  82.9401797  78.8813280  40.6800434  83.7594686  79.3757359  40.7035271
  83.2138604  77.9645248  40.6518001  96.0482929  71.2970553  33.7582729
  96.8243319  71.7867006  34.0307346  95.3231063  71.7228608  34.2154598
  98.4855488  72.0098173  34.8156669  99.0799978  71.7693909  34.1049978
  98.5582071  71.2905303  35.4430206  80.7052643  85.8531784  35.1299834
  80.5707111  85.0932184  34.5637832  80.2884706  86.5772683  34.6628623
  91.8411606  81.0368707  24.1376409  92.5447456  81.2418710  24.7534065
  91.1174255  81.6045469  24.4025493  92.6709417  76.7878568  30.2578680
  92.6144618  77.2447120  29.4186312  93.2237759  76.0269253  30.0801522
  96.4814222  72.5768300  31.0828799  96.2251157  72.1764936  31.9137007
  95.8567091  73.2912094  30.9578938 100.7926560  75.3164374  33.5900091
 100.2326118  75.3857563  34.3631653 100.1870064  75.1405358  32.8699587
  83.8621769  86.7501101  35.3418277  83.7454153  87.6946533  35.2396967
  83.0414215  86.4474662  35.7304076  93.7498304  81.4751236  26.1874869
  94.5843908  81.0432435  26.0052344  93.5882647  81.3033250  27.1151764
  93.4044196  77.9783350  27.5531209  93.3493000  77.8127621  26.6119653
  92.7790251  78.6859383  27.7093399  90.7190103  80.2832261  46.8784772
  91.5881263  80.4572914  46.5171406  90.2396855  81.1026678  46.7560501
  86.7140321  67.4791459  27.1316527  86.7018991  68.4233299  27.2884798
  87.6063743  67.2961604  26.8375988  84.8876283  87.4029363  38.5574205
  85.7903530  87.4352973  38.8740700  84.6613653  86.4729813  38.5720541
  86.6429885  86.1560349  35.2184284  85.6925516  86.1562211  35.1048656
  86.9462371  85.4093084  34.7020318 102.3782579  91.9920887  36.2830046
 103.0160989  91.8727635  35.5793386 102.2603422  92.9401731  36.3417998
  99.1872285  91.9448316  36.2191571  98.8490797  91.8289380  35.3312106
 100.0562053  91.5439481  36.1992577  95.0459101  93.7983792  32.2088462
  94.4823966  93.7073729  31.4404750  94.9311496  92.9783696  32.6890954
  99.6692068  93.0983167  42.1777776  99.6580709  92.7035966  41.3058280
  99.8312708  92.3649240  42.7711548  92.5923533  95.2934984  35.0472682
  93.3844825  94.9525808  34.6318982  92.8320183  95.4029959  35.9674836
 100.6258659  97.4654760  27.5202927  99.9746639  98.0508840  27.1336941
 101.4203022  97.9960955  27.5797964  94.5514287  94.5543897  27.9190061
  95.3245163  94.0072884  27.7802937  94.9039686  95.4188146  28.1304523
  96.3899329  95.8820279  41.1256960  96.0989195  96.7865910  41.0103627
  97.0256314  95.9236807  41.8401030  97.3155536  93.2597128  37.7158320
  97.9119108  93.0353150  37.0015283  97.3730508  92.5181873  38.3183768
  96.8880564  90.7136563  25.5508511  97.1406085  90.1918084  24.7891974
  95.9505124  90.5502708  25.6535195 101.9323847  89.7172341  33.3583254
 102.7186937  89.2991764  33.0073671 102.1962552  90.6218433  33.5264903
 102.1033925  95.1545192  28.0571911 101.4679758  95.2279818  28.7692816
 101.7731331  95.7438790  27.3790990 107.3332274  89.6547574  34.2616233
 108.0657446  89.0846791  34.4954062 106.5771630  89.2669175  34.7022738
  96.6076853  92.6164669  27.7532886  96.4913111  91.9409572  28.4213970
  96.7179113  92.1297043  26.9365039  98.9508394  92.0774816  31.4579575
  98.5866601  91.5505437  32.1692497  99.8075510  91.6873285  31.2846061
 104.8557695  83.3669149  38.7210841 104.5241020  84.2364560  38.4972056
 104.2603308  83.0505433  39.4004872  98.5913881  87.1064716  26.4540924
  98.7588283  87.9744952  26.8211395  98.4011050  87.2691997  25.5302213
 101.3489214  95.5681695  38.1206754 101.0489937  96.4706733  38.0122561
 101.0040274  95.3013878  38.9727907  94.8001696  92.0195491  34.1543459
  93.8752192  91.8871706  34.3621150  95.0486109  92.7989711  34.6513401
 104.7486358  88.0864235  35.8004191 103.8403235  88.0179643  35.5062952
 104.6973954  88.5636180  36.6286017  98.5703102  89.5622373  27.4387591
  98.4502727  90.0079424  28.2773071  97.8755690  89.9107691  26.8801129
  92.1610507  91.6628765  34.9887248  92.2902888  91.9163244  35.9026659
  91.4807958  92.2556473  34.6691903  96.3309994 102.3326015  31.0877722
  96.2534024 103.2833840  31.1666202  95.7271638 101.9871887  31.7452648
  98.8227224  89.5053880  43.7439089  98.0460558  90.0647801  43.7341953
  99.4617787  89.9910663  44.2653959 106.6148004  86.2880673  37.5782065
 105.9722385  86.5813206  36.9321860 106.1102933  86.1733594  38.3835262
 104.2688168  90.0343846  28.2667925 105.1806024  90.2671233  28.0915622
 103.7597815  90.6180891  27.7043003  97.0773596  92.3139334  43.3057056
  97.8188281  92.8524378  43.0291879  96.3710582  92.9405622  43.4628608
 102.5528936  94.4568474  41.9029217 102.9612292  94.0150885  41.1583850
 101.8306197  93.8821102  42.1563410  98.9060006  89.3941081  39.2762774
  99.7521201  89.8180495  39.4197423  98.8458644  88.7374705  39.9701337
 102.8757750  95.0169665  35.6581506 102.2466613  95.1815379  34.9557574
 102.4883413  95.4311274  36.4292470 106.7546982  95.9524103  33.0125870
 106.0698021  96.3323004  32.4622903 106.8390832  96.5619429  33.7457818
 102.0559451  87.0545449  40.9343948 101.8120383  87.8087510  40.3978223
 102.3319382  87.4330797  41.7691195 104.0097914  93.5984062  39.6121213
 104.2214809  94.2415822  38.9355594 103.9627662  92.7646378  39.1443143
 101.6124143  86.2101882  36.5157786 100.7508622  86.5083136  36.8074523
 101.6386578  86.4272281  35.5838818  98.4285712  94.7544073  32.9231591
  98.8924058  95.0331776  32.1336214  98.1642510  93.8527517  32.7404682
  95.3209793  94.3015554  35.8611354  95.8911150  94.7302823  35.2228839
  95.9117905  94.0198139  36.5595540  97.3654598  90.8767225  29.7321156
  98.0678642  91.3288269  30.1995083  97.0335227  90.2351044  30.3601049
  95.8134960  89.4678982  44.1072366  95.1833620  90.1495263  44.3407763
  95.7071048  89.3562064  43.1625504  91.1079932  89.1350778  35.0338290
  90.3178986  89.3908306  34.5578401  91.5991180  89.9499116  35.1390330
 105.1243742  96.4756017  37.7843571 105.9461186  96.0736204  37.5026252
 105.1206145  96.3724251  38.7359687  93.0594678  89.4995357  31.9921767
  92.2625841  89.6114051  32.5105262  92.8320270  89.8382009  31.1262657
  98.8900345  96.0240060  39.9404281  98.9544778  96.4860468  40.7762453
  98.1811269  95.3937425  40.0686591  89.3917635  89.3881268  37.4653281
  89.6425674  90.2728278  37.7310857  89.9277184  89.2085870  36.6928373
 113.2149735  92.8194766  34.1328542 112.4613443  92.2502164  33.9772547
 113.3497276  92.7857430  35.0799177  98.6048363  97.6908168  29.8083262
  98.4694038  98.5359704  30.2368109  99.1458176  97.8927446  29.0449195
  95.0915703  83.7699748  46.4697617  94.6982648  83.2165946  47.1445261
  95.9081843  84.0810326  46.8604134  92.0577760  95.2083606  30.3811187
  92.5702281  96.0026856  30.5316751  92.7100473  94.5109896  30.3144788
  93.8672645  98.3249362  32.4633940  94.0439273  99.2467327  32.2754924
  94.6629479  98.0107781  32.8928320  98.0083664  85.1857627  44.0617873
  98.7493377  85.7864780  43.9822336  98.2401586  84.4435265  43.5035916
  93.1525002  90.3713994  42.3396103  93.0378517  89.4699251  42.6403202
  92.2969519  90.6177691  41.9880920 100.2316839  98.3131734  43.9383604
  99.7880694  97.5268113  43.6204508 100.8934053  98.5010885  43.2727494
  94.9903961  99.8427536  38.4644282  95.5411386  99.7144599  37.6921276
  94.1515436 100.1422425  38.1139175 102.3298077  98.5934534  41.9665005
 102.3116553  99.4143415  41.4745274 103.2517998  98.4688610  42.1915146
  98.7871132  96.1078664  42.8088513  99.3199468  95.3466952  42.5787821
  98.2585213  95.8152316  43.5512668 101.9540827  81.2138730  38.3382155
 101.6105096  82.1040371  38.2621266 102.3219789  81.0240387  37.4751740
  90.0226677  93.5372260  31.1570757  90.8601899  93.9469269  30.9404465
  90.2004945  92.5971702  31.1270951 101.9191109  91.2047341  26.8454590
 101.4037733  91.9751946  27.0842978 101.6468418  90.5312477  27.4687652
  99.5038220  86.0497042  31.9039829  98.6479817  85.6603892  31.7245467
  99.9165172  86.1289002  31.0439614 101.0337367  83.5843385  36.3031388
 100.5302163  83.5473520  35.4899194 101.3267974  84.4936128  36.3628045
  97.2780253  83.6682115  35.3097570  98.1433250  83.4724923  34.9503459
  97.3457762  83.4392466  36.2366927 106.8925383  93.9579696  28.7807764
 106.1154826  93.6190855  28.3362926 107.5716864  93.9632319  28.1062729
 101.7077412  89.0774433  28.6714371 101.4027548  89.3920582  29.5224515
 102.6607855  89.1555853  28.7141704 100.1523844  95.2364656  30.3207325
  99.6245206  94.5017416  30.0080563  99.6511347  96.0139333  30.0747294
 105.1316690  93.4313677  35.4374372 104.4740365  94.1212938  35.5254500
 105.9357090  93.8210109  35.7808358  94.8842572  85.8984323  32.6813937
  95.4586324  85.6759504  31.9487130  95.4713554  85.9673017  33.4342538
 103.9422149  91.7858049  33.4878313 104.4554031  92.4188041  33.9900023
 104.5923373  91.1859245  33.1221673  95.2112159  87.9288784  26.7009822
  94.3749471  88.2663470  27.0219097  95.0716929  87.7937763  25.7636959
  97.1865240  82.7725571  31.4089006  96.5329652  82.4574589  30.7845621
  97.1445714  82.1501312  32.1348829  98.2976444  93.0544867  23.3242298
  97.3903506  92.8234120  23.5233447  98.7947476  92.2582486  23.5116280
 100.4202980  89.2607505  35.7336654  99.5025541  89.4822452  35.5758342
 100.8363124  89.3353815  34.8748361 101.2038028  90.6598921  30.8639334
 101.9509847  91.1720318  30.5546456 101.4729617  90.3382973  31.7243728
  99.4764678  93.1557461  27.8466288  98.5675897  92.8716494  27.9438758
  99.5059762  93.5756540  26.9869595 104.7083945  96.7664051  31.6157456
 104.2546272  95.9254961  31.6722646 104.0777912  97.4025449  31.9532236
 103.6516865  87.6956037  32.8458123 102.9139622  87.1833423  33.1768366
 103.9043638  87.2556419  32.0341400 103.1516885  98.6040548  32.5507274
 103.4439859  99.1645605  31.8319640 103.6615505  98.8969109  33.3060433
 103.7528492  80.4732289  33.4399893 104.0587369  79.6129652  33.1525808
 104.4781097  81.0649909  33.2398887  90.0452848  90.8762976  31.8281491
  89.8477248  90.2832336  31.1032557  89.4899512  90.5715186  32.5457429
  98.0249572  90.7686082  33.9476084  98.0798182  89.8159918  33.8718560
  97.2140774  90.9245521  34.4317382  99.1740766  94.6966205  25.1854367
  98.7360196  93.9802064  24.7260004  99.9151207  94.9242320  24.6239458
  95.9641932  89.3863142  31.7066463  95.1509797  89.6857312  32.1131655
  96.4600926  88.9918831  32.4240945  98.1150510  99.3820899  33.6400727
  98.0726689  99.6081745  32.7109259  99.0313209  99.1484273  33.7886528
 101.5616144  89.8504966  40.5381357 101.9165531  90.0776439  41.3975822
 102.2088275  90.1823343  39.9158612 107.2913881  92.9723402  31.2430686
 107.1531779  93.1624998  30.3151875 106.9350099  93.7342785  31.6998737
  95.4556007  86.9581497  37.3227698  96.0955386  86.8170256  36.6250661
  94.6233537  86.6716011  36.9466300 107.3183260  95.0399929  36.2541957
 107.7519767  94.9475218  37.1025011 108.0314841  95.0157430  35.6161973
  96.2316311  96.2583928  33.4362690  97.0256909  95.7634248  33.2345265
  95.5208003  95.7301791  33.0730396 101.0511155  98.6402023  37.7875058
 101.1048177  99.2092960  38.5552774 100.1825936  98.8103908  37.4229095
  92.5399074  90.4027009  29.5122443  91.6096662  90.3411465  29.7292405
  92.6356546  89.8802962  28.7159084  92.4584623  86.9281822  32.1000684
  92.7191440  87.8427156  31.9909845  93.2801795  86.4606265  32.2497297
  93.9309548  88.3419579  39.2699509  94.6032602  88.1336942  38.6212158
  93.1039335  88.1441665  38.8304741 108.1798810  95.0823630  38.7874842
 108.3734700  95.9869440  39.0334117 108.0799428  94.6231049  39.6213428
  99.8335120  84.9681520  41.2865170  99.1863035  85.6671470  41.1929646
 100.6036136  85.4017664  41.6541418 103.2413918  95.2330373  44.3615723
 103.0899425  95.0040924  43.4445807 103.2318598  96.1900974  44.3747068
 100.0099255  92.8062285  39.3461990 100.9391315  92.9573445  39.1730957
  99.5890285  92.8946306  38.4910636  98.8087587  96.8312950  37.1160527
  98.6698672  96.4631734  37.9886465  98.0202183  97.3460589  36.9444485
  99.4035739 101.9322046  28.4586064  99.5787494 101.4610089  29.2731686
  98.7168527 102.5587812  28.6867324 100.3592802  96.2094552  34.5049365
 100.0242634  96.1695322  35.4007015  99.8596747  95.5439268  34.0319775
  94.3337046  91.6162182  40.0301946  94.1956844  90.8842421  40.6313485
  95.2441969  91.5271083  39.7486134 103.2951993  93.5550587  24.7786425
 102.6781164  92.8297415  24.6819477 102.8268482  94.3159947  24.4353499
  96.9619346  91.3282142  39.5185626  97.6718965  90.6875334  39.4772244
  96.9188654  91.5795037  40.4411807 104.9506125  98.2649495  42.4392205
 104.8918671  97.5808715  41.7722788 105.3525643  99.0068485  41.9872831
  95.6748280  88.3147360  41.3381265  95.1385637  87.8638098  41.9902862
  95.0864989  88.4493268  40.5951730  93.9696824 105.0811409  35.2325924
  94.2093422 105.7129933  35.9104942  93.1266020 104.7299449  35.5191283
  95.0850539  87.7736011  23.9007729  94.2080006  87.6524812  23.5369976
  95.5608292  86.9822089  23.6486618 104.9523532  96.2289079  40.6706185
 104.0650311  95.8915001  40.7932583 105.5222083  95.4972110  40.9074950
  86.6052679  92.5613171  33.9949236  87.2923719  92.2474901  33.4070251
  86.4500808  93.4654535  33.7216487  91.4087402  87.4503367  38.4234260
  91.3245590  86.8429037  37.6884670  90.5870108  87.9412386  38.4243756
  98.4824686 100.8890531  37.6367428  98.4094857 101.6945503  38.1486732
  98.0402079 101.0882497  36.8115449  98.2714465 100.1262301  31.1470249
  97.4881987 100.6683982  31.2408474  98.9707210 100.6436281  31.5464491
 101.5811115  85.9356931  33.7904455 102.0779815  85.1826893  33.4705525
 100.8098097  85.9721248  33.2247664 109.4340873  91.6397296  35.4322746
 109.4230749  92.5222012  35.0616679 108.5658252  91.2868847  35.2377283
 100.9423369 100.7877365  39.7925586 101.6551341 101.4224830  39.7201488
 100.4513398 100.8841231  38.9765588 102.6640896  94.6928618  31.3642878
 101.7297175  94.8130081  31.1947582 102.8417565  93.7901085  31.1002888
  98.1646084  88.0774314  33.5176139  97.7943872  87.5245354  34.2057045
  98.6605177  87.4732447  32.9651139 106.0513447  90.5345937  31.8992912
 106.5173900  91.3673929  31.8253215 106.5020948  90.0690919  32.6038171
  95.9935283  98.5371809  40.6131157  96.6944742  99.1708292  40.7660552
  95.5230398  98.8786540  39.8526797 104.1189679  96.8789759  28.8979064
 104.3949522  96.7646353  29.8072938 103.2494177  96.4807244  28.8591237
 104.0230110  82.9026524  35.9383814 103.1093190  83.1330751  36.1066021
 104.4523212  82.9864968  36.7897846 103.7936569  91.0916416  38.4383708
 103.1408019  91.3392324  37.7836160 104.1716949  90.2780555  38.1046185
 100.7543743 101.1276110  32.5411878 100.9366137 100.3097765  33.0039630
 101.5776729 101.3443802  32.1036768 101.0885908 100.0544295  29.8026926
 101.6173674  99.5436749  29.1897089 101.3514128  99.7386825  30.6672459
  99.8424142  91.8336227  44.9249745  99.1664779  91.7330357  45.5952120
 100.6651776  91.6775441  45.3885742  91.5903001  98.0708164  37.5462260
  92.1756438  97.3251852  37.6790164  91.3927839  98.3812121  38.4298924
  94.4441656 101.1059411  32.5624702  93.7752031 101.5905539  32.0788742
  94.3054526 101.3528632  33.4768081  86.1820656  90.6413764  36.2666703
  86.2204755  90.1077355  37.0603821  85.6760948  90.1148970  35.6477680
  98.5846925 103.1403155  39.1607361  99.1365233 103.3034776  39.9256446
  98.9253118 103.7307593  38.4887386  93.5611418  85.4878305  39.7629245
  93.6252744  86.3493136  39.3506643  93.4978538  84.8752306  39.0301604
  93.0363690  87.5601437  43.4102280  93.6635729  87.1778514  44.0239804
  92.1791609  87.3415639  43.7757972 103.4357799  97.9664412  45.0156015
 103.9797703  98.5794371  44.5210970 102.8544644  98.5243991  45.5323028
  89.8129233  89.3677866  29.3420635  90.1082674  88.4588545  29.2887688
  88.9117269  89.3465606  29.0201637 101.7215312 101.0885130  36.1471043
 101.5966451 100.2874870  35.6381988 102.3794403 101.5831324  35.6585013
  93.3423480  87.4433863  35.3248183  92.6210066  88.0569831  35.1855656
  94.1316736  87.9791628  35.2464829 103.7850220  98.8894150  37.7750593
 102.8380556  98.7699502  37.7028920 104.1332993  98.0016648  37.8576854
  96.1449794  84.7788289  41.5988835  96.6684195  85.0250586  42.3615144
  95.9262127  85.6108324  41.1791972  91.5417075  87.0491964  29.4659960
  91.2129781  86.1689343  29.2835066  91.8956445  86.9939633  30.3536349
 100.7896654  98.6846867  33.9754945 100.6421616  97.7563574  34.1562515
 101.6150147  98.7066957  33.4912020  94.6558898  87.3364934  29.8335437
  94.9954970  87.8650855  29.1114046  95.1031018  87.6745340  30.6094004
 104.3930775  99.5075425  35.0619818 105.3177323  99.3018287  34.9244269
 104.2246079  99.2591827  35.9709159  97.3502339  85.7201984  39.2838505
  97.0099159  84.9209798  39.6859185  96.6441345  86.0203695  38.7115339
  98.0018810  82.8051297  37.7365828  98.8244880  82.3311775  37.6144719
  98.2456874  83.5841781  38.2364515  96.6427045  85.8339555  28.0328730
  97.3635407  86.2120808  27.5292447  96.0192349  86.5528432  28.1363708
 100.7858168  86.5384704  28.9687062 101.0021782  87.4209342  28.6675891
 100.3052235  86.1470918  28.2392704  95.5257389  89.4970418  35.5457807
  95.3801970  89.8110721  36.4382089  95.0482593  90.1155318  34.9928706
  97.3853772  86.4872966  35.5938697  97.3715341  85.5914059  35.2570995
  98.1026200  86.4943629  36.2276983  99.2379903  86.9210306  37.6391824
  98.9797681  87.8427376  37.6376154  98.7064943  86.5240740  38.3292288
 104.1826092 100.0261093  30.4181909 104.3562969  99.4607515  29.6655762
 104.6754983 100.8261988  30.2361399  90.0003051  92.0375762  38.4845468
  89.4556519  92.8135570  38.6165743  90.8782401  92.3846566  38.3264590
  96.7890668  85.3687346  30.8626267  96.9106579  84.4403992  31.0617154
  96.4992710  85.3826032  29.9504582  99.6581858  83.0542256  33.9992987
  99.6803555  83.1181589  33.0444966 100.0749917  82.2146765  34.1933493
 110.0365483  92.7897516  32.0372209 110.4796629  92.0404841  31.6391332
 109.1591993  92.7807652  31.6545941 105.1701264  99.3427857  27.5178808
 105.8652169  99.9634550  27.7366122 105.5124414  98.4923208  27.7931186
  90.7869073  91.1645658  41.3775625  90.0450809  91.3128294  41.9640256
  90.4661818  91.4253924  40.5142374 107.0692687  96.7927563  29.0466138
 107.5944011  97.1314836  28.3215458 106.9815040  95.8574578  28.8629273
  98.7312736 100.7061636  41.1756015  99.0399862 100.4610783  42.0478715
  99.5288218 100.9108275  40.6874885  98.7533348 102.8599546  33.4061392
  98.3138338 102.3675925  34.0994248  99.5041465 102.3172514  33.1653467
  91.2325687  99.0511087  33.4086020  92.0583707  98.7514859  33.0284663
  90.8819739  98.2818709  33.8575808  96.2007220  98.4037555  35.4783693
  95.5787229  97.7408260  35.1785921  96.8712087  98.4298687  34.7957341
  89.4334292  96.9697413  34.3674953  88.5966200  96.5419588  34.1858955
  89.4057937  97.1629857  35.3045745  96.2731748  86.8819343  45.0716199
  96.3219903  87.7581466  44.6893969  96.8154262  86.3396736  44.4987843
 106.7586593  97.4260466  44.3517336 105.9682137  97.4084605  43.8121836
 106.5219948  97.9648760  45.1066373 106.8784468  94.2752933  41.6650065
 106.9282473  94.1102940  42.6065588 106.7698392  93.4080192  41.2747946
  95.7620727  96.9541478  28.9542154  95.9108847  97.6376943  28.3008827
  96.5687170  96.9346569  29.4691610 104.1688231  90.2583861  42.9809372
 105.0698093  90.1190326  42.6893369 104.2436205  90.4238316  43.9207549
  98.5031036  87.6350716  41.8262558  97.6334345  87.9284282  41.5545147
  98.7390516  88.2191161  42.5469822 108.3802665  96.6949874  41.9092086
 108.0887473  97.0579855  42.7455547 107.7674796  95.9816883  41.7305419
 109.5798347  94.2602754  34.4294657 110.4145239  94.6992558  34.5932217
 109.7157476  93.7841407  33.6102902 106.6289853  91.8182489  40.3772144
 107.1043975  92.0110135  39.5690996 105.7055419  91.8741675  40.1315528
  93.5173360  92.9806656  29.9603223  93.2719402  92.0768986  30.1583433
  93.6869275  92.9823807  29.0182701 101.2070070  83.8530333  39.3427978
 101.7252014  84.5891359  39.0174467 100.8525203  84.1594326  40.1774737
  92.7869008  88.7135014  27.4589384  92.0938252  88.7879369  26.8029420
  92.5420759  87.9495357  27.9810901 101.4582664  80.2730615  34.8628875
 101.7384418  79.6053804  35.4889302 102.2433271  80.4659711  34.3503539
  99.2616133  99.4489609  26.4253901  98.6890100 100.0679796  25.9724373
  99.8348926  99.9988971  26.9593823 105.3291522  88.6948249  38.6100450
 106.2808945  88.7946347  38.6312674 105.1594973  87.9026518  39.1198534
 103.3505902  85.7803832  38.7959851 102.7555834  86.0608845  38.1006340
 103.0655599  86.2697733  39.5676592 102.4813392  99.7326759  27.5562484
 103.4144065  99.6672321  27.7595359 102.3936605 100.5683026  27.0977016
 107.8079600  91.9154369  37.7242750 107.7755920  90.9770369  37.9102434
 108.4180224  91.9938405  36.9908575  99.6462931  90.7850422  23.7669954
 100.5922036  90.6556630  23.8358372  99.2677176  90.0465084  24.2439382
 107.9574089  88.7065412  37.7701033 107.4413137  87.9223869  37.5830962
 108.8414037  88.3784129  37.9347552 105.6184816  82.4506428  33.7296846
 105.4209637  82.1421516  34.6140178 106.2284521  83.1768067  33.8594775
 113.6256150  92.9770376  36.8648787 114.3559539  92.7155664  37.4256490
 113.0163096  92.2399097  36.9050855 111.7071447  91.1178238  37.4623238
 110.9804611  90.9834203  36.8539729 111.2918734  91.4255067  38.2679956
  99.5301624  94.8368168  45.2270611 100.4504633  95.0146767  45.4210657
  99.4951207  93.8924213  45.0750310  97.8305848  88.7100398  23.7024839
  96.9237304  88.4133511  23.7787553  98.1081829  88.4130216  22.8359125
  88.7483789  90.0306761  34.1523885  88.4286573  89.1772070  33.8598259
  88.2017217  90.2455340  34.9081853  92.5263696  92.7469202  37.8693392
  92.7449706  93.6786310  37.8881426  92.9389470  92.3877177  38.6548196
  99.4467914  83.2537288  29.8569080  98.6368642  82.9084373  30.2324326
 100.1352331  82.9444832  30.4456692 101.3758462  82.3315335  31.4793377
 101.9289501  82.7510788  32.1383400 101.6128549  81.4051083  31.5216333
  97.3991561  88.3202408  47.2596141  97.2988288  89.2696765  47.1908232
  97.1813103  87.9920647  46.3872211  96.6004633  85.5687333  23.8436818
  97.4623797  85.8942232  24.1032636  96.7854977  84.7818829  23.3309884
  88.6172049  93.6509673  36.1217007  87.9235520  93.2363626  35.6086961
  89.3645040  93.6930209  35.5250426 104.7537269  84.4415860  30.9872041
 104.1735938  85.1000664  30.6050094 104.4873202  83.6193204  30.5759459
 103.2040836  83.8420917  33.1893362 103.7040614  83.9537452  32.3807680
 103.8476444  83.5381970  33.8294170  97.2622832  91.7499547  46.0761202
  96.7789913  92.5499907  46.2825092  97.3483771  91.7607492  45.1228646
  90.5308791  93.5827927  33.9983022  90.5079479  93.6815614  33.0464905
  90.8409428  94.4293078  34.3200188  93.1896169  95.6404082  38.1129636
  94.1439423  95.6088024  38.0459568  92.9908693  95.1794706  38.9279862
  93.7795551  94.2105198  40.6800434  94.5988440  94.7049276  40.7035271
  94.0532359  93.2937166  40.6518001 103.5362147  86.6015950  30.0428389
 102.6488002  86.8865601  29.8248584 103.9516136  86.4409714  29.1955666
 106.8876683  86.6262471  33.7582729 107.6637074  87.1158924  34.0307346
 106.1624818  87.0520525  34.2154598 109.3249242  87.3390090  34.8156669
 109.9193733  87.0985826  34.1049978 109.3975826  86.6197221  35.4430206
  91.5446398 101.1823701  35.1299834  91.4100866 100.4224102  34.5637832
  91.1278460 101.9064601  34.6628623 102.6805361  96.3660625  24.1376409
 103.3841211  96.5710627  24.7534065 101.9568010  96.9337387  24.4025493
 103.5103171  92.1170486  30.2578680 103.4538372  92.5739037  29.4186312
 104.0631514  91.3561171  30.0801522 107.3207977  87.9060218  31.0828799
 107.0644911  87.5056854  31.9137007 106.6960845  88.6204012  30.9578938
 111.6320315  90.6456291  33.5900091 111.0719873  90.7149480  34.3631653
 111.0263818  90.4697276  32.8699587  94.7015524 102.0793018  35.3418277
  94.5847908 103.0238451  35.2396967  93.8807970 101.7766580  35.7304076
 104.5892058  96.8043154  26.1874869 105.4237662  96.3724352  26.0052344
 104.4276401  96.6325168  27.1151764 104.2437950  93.3075267  27.5531209
 104.1886754  93.1419539  26.6119653 103.6184006  94.0151300  27.7093399
  89.0330465  88.5443332  41.3792631  89.6789329  88.0342286  41.8679856
  88.8247616  89.2812013  41.9536056 101.5583858  95.6124179  46.8784772
 102.4275017  95.7864831  46.5171406 101.0790609  96.4318596  46.7560501
  97.5534076  82.8083376  27.1316527  97.5412746  83.7525216  27.2884798
  98.4457498  82.6253522  26.8375988  95.7270038 102.7321280  38.5574205
  96.6297284 102.7644890  38.8740700  95.5007408 101.8021731  38.5720541
  97.4823640 101.4852267  35.2184284  96.5319271 101.4854128  35.1048656
  97.7856126 100.7385001  34.7020318 101.3686195  79.4026153  31.3862464
 100.6018591  78.8484640  31.5319146 101.7796900  79.4748022  32.2476616
  93.3727956  85.6910949  45.4767645  94.2359418  85.3347754  45.6870970
  92.7993367  85.3524844  46.1643050 113.2176333 107.3212805  36.2830046
 113.8554743 107.2019552  35.5793386 113.0997176 108.2693649  36.3417998
 110.0266040 107.2740233  36.2191571 109.6884551 107.1581298  35.3312106
 110.8955808 106.8731398  36.1992577 110.5085823 108.4275085  42.1777776
 110.4974463 108.0327883  41.3058280 110.6706462 107.6941158  42.7711548
 103.4317287 110.6226901  35.0472682 104.2238579 110.2817726  34.6318982
 103.6713937 110.7321876  35.9674836 107.2293084 111.2112197  41.1256960
 106.9382950 112.1157828  41.0103627 107.8650068 111.2528724  41.8401030
 108.1549291 108.5889045  37.7158320 108.7512863 108.3645068  37.0015283
 108.2124262 107.8473791  38.3183768 112.7717602 105.0464259  33.3583254
 113.5580691 104.6283682  33.0073671 113.0356306 105.9510351  33.5264903
 115.6951449  98.6961066  38.7210841 115.3634774  99.5656477  38.4972056
 115.0997063  98.3797350  39.4004872 112.1882969 110.8973612  38.1206754
 111.8883692 111.7998651  38.0122561 111.8434028 110.6305795  38.9727907
 105.6395450 107.3487409  34.1543459 104.7145947 107.2163623  34.3621150
 105.8879863 108.1281628  34.6513401 115.5880113 103.4156152  35.8004191
 114.6796990 103.3471561  35.5062952 115.5367708 103.8928097  36.6286017
 103.0004261 106.9920683  34.9887248 103.1296642 107.2455162  35.9026659
 102.3201713 107.5848391  34.6691903 109.6620978 104.8345798  43.7439089
 108.8854312 105.3939718  43.7341953 110.3011541 105.3202581  44.2653959
 117.4541759 101.6172591  37.5782065 116.8116139 101.9105124  36.9321860
 116.9496687 101.5025511  38.3835262 107.9167351 107.6431251  43.3057056
 108.6582035 108.1816295  43.0291879 107.2104336 108.2697540  43.4628608
 113.3922690 109.7860392  41.9029217 113.8006046 109.3442802  41.1583850
 112.6699952 109.2113019  42.1563410 109.7453760 104.7232999  39.2762774
 110.5914956 105.1472412  39.4197423 109.6852398 104.0666623  39.9701337
 112.8953206 102.3837367  40.9343948 112.6514138 103.1379428  40.3978223
 113.1713136 102.7622715  41.7691195 114.8491668 108.9275979  39.6121213
 115.0608564 109.5707739  38.9355594 114.8021417 108.0938296  39.1443143
 112.4517897 101.5393800  36.5157786 111.5902376 101.8375054  36.8074523
 112.4780332 101.7564199  35.5838818 106.1603548 109.6307472  35.8611354
 106.7304905 110.0594740  35.2228839 106.7511660 109.3490057  36.5595540
 106.6528714 104.7970900  44.1072366 106.0227375 105.4787180  44.3407763
 106.5464802 104.6853981  43.1625504 101.9473687 104.4642696  35.0338290
 101.1572741 104.7200224  34.5578401 102.4384934 105.2791033  35.1390330
 103.8988432 104.8287275  31.9921767 103.1019595 104.9405969  32.5105262
 103.6714024 105.1673927  31.1262657 109.7294100 111.3531978  39.9404281
 109.7938532 111.8152385  40.7762453 109.0205024 110.7229343  40.0686591
 100.2311390 104.7173186  37.4653281 100.4819428 105.6020196  37.7310857
 100.7670938 104.5377788  36.6928373 105.9309457  99.0991665  46.4697617
 105.5376403  98.5457864  47.1445261 106.7475597  99.4102244  46.8604134
 108.8477418 100.5149545  44.0617873 109.5887131 101.1156698  43.9822336
 109.0795341  99.7727182  43.5035916 103.9918756 105.7005912  42.3396103
 103.8772271 104.7991169  42.6403202 103.1363274 105.9469609  41.9880920
 105.8297715 115.1719454  38.4644282 106.3805140 115.0436517  37.6921276
 104.9909191 115.4714343  38.1139175 109.6264886 111.4370581  42.8088513
 110.1593223 110.6758870  42.5787821 109.0978967 111.1444233  43.5512668
 112.7934581  96.5430647  38.3382155 112.4498850  97.4332289  38.2621266
 113.1613544  96.3532305  37.4751740 100.8620432 108.8664178  31.1570757
 101.6995654 109.2761186  30.9404465 101.0398699 107.9263620  31.1270951
 110.3431975 101.3788959  31.9039829 109.4873571 100.9895810  31.7245467
 110.7558927 101.4580920  31.0439614 111.8731121  98.9135303  36.3031388
 111.3695917  98.8765438  35.4899194 112.1661728  99.8228045  36.3628045
 108.1174007  98.9974032  35.3097570 108.9827004  98.8016841  34.9503459
 108.1851516  98.7684384  36.2366927 105.7236326 101.2276240  32.6813937
 106.2980078 101.0051422  31.9487130 106.3107309 101.2964935  33.4342538
 108.0258994  98.1017489  31.4089006 107.3723406  97.7866506  30.7845621
 107.9839468  97.4793230  32.1348829 111.2596734 104.5899423  35.7336654
 110.3419296 104.8114370  35.5758342 111.6756878 104.6645733  34.8748361
 114.5922247  95.8024207  33.4399893 114.8981124  94.9421570  33.1525808
 115.3174852  96.3941827  33.2398887 100.8846603 106.2054893  31.8281491
 100.6871003 105.6124254  31.1032557 100.3293267 105.9007103  32.5457429
 108.8643326 106.0978000  33.9476084 108.9191936 105.1451836  33.8718560
 108.0534528 106.2537439  34.4317382 106.8035686 104.7155059  31.7066463
 105.9903552 105.0149230  32.1131655 107.2994681 104.3210748  32.4240945
 112.4009898 105.1796884  40.5381357 112.7559286 105.4068357  41.3975822
 113.0482029 105.5115261  39.9158612 106.2949761 102.2873415  37.3227698
 106.9349140 102.1462174  36.6250661 105.4627292 102.0007928  36.9466300
 103.2978378 102.2573740  32.1000684 103.5585195 103.1719073  31.9909845
 104.1195550 101.7898183  32.2497297 104.7703303 103.6711497  39.2699509
 105.4426356 103.4628859  38.6212158 103.9433089 103.4733583  38.8304741
 110.6728875 100.2973438  41.2865170 110.0256790 100.9963388  41.1929646
 111.4429890 100.7309582  41.6541418 110.8493009 108.1354203  39.3461990
 111.7785069 108.2865363  39.1730957 110.4284039 108.2238224  38.4910636
 109.6481341 112.1604867  37.1160527 109.5092427 111.7923652  37.9886465
 108.8595937 112.6752507  36.9444485 105.1730800 106.9454100  40.0301946
 105.0350598 106.2134339  40.6313485 106.0835724 106.8563000  39.7486134
 107.8013101 106.6574059  39.5185626 108.5112719 106.0167252  39.4772244
 107.7582409 106.9086954  40.4411807 106.5142035 103.6439277  41.3381265
 105.9779392 103.1930016  41.9902862 105.9258743 103.7785186  40.5951730
  97.4446434 107.8905088  33.9949236  98.1317474 107.5766818  33.4070251
  97.2894563 108.7946453  33.7216487 102.2481156 102.7795285  38.4234260
 102.1639345 102.1720955  37.6884670 101.4263862 103.2704303  38.4243756
 112.4204870 101.2648849  33.7904455 112.9173569 100.5118811  33.4705525
 111.6491851 101.3013165  33.2247664 109.0039839 103.4066232  33.5176139
 108.6337626 102.8537272  34.2057045 109.4998931 102.8024365  32.9651139
 106.8329037 113.8663727  40.6131157 107.5338497 114.5000210  40.7660552
 106.3624152 114.2078458  39.8526797 114.8623865  98.2318442  35.9383814
 113.9486944  98.4622669  36.1066021 115.2916966  98.3156886  36.7897846
 114.6330323 106.4208334  38.4383708 113.9801773 106.6684241  37.7836160
 115.0110703 105.6072472  38.1046185 110.6817896 107.1628145  44.9249745
 110.0058533 107.0622274  45.5952120 111.5045530 107.0067359  45.3885742
 102.4296755 113.4000082  37.5462260 103.0150192 112.6543770  37.6790164
 102.2321594 113.7104038  38.4298924  97.0214410 105.9705682  36.2666703
  97.0598510 105.4369273  37.0603821  96.5154703 105.4440887  35.6477680
 104.4005172 100.8170222  39.7629245 104.4646499 101.6785053  39.3506643
 104.3372293 100.2044224  39.0301604 103.8757445 102.8893355  43.4102280
 104.5029484 102.5070432  44.0239804 103.0185364 102.6707557  43.7757972
 100.6522988 104.6969784  29.3420635 100.9476429 103.7880462  29.2887688
  99.7511023 104.6757523  29.0201637 104.1817235 102.7725781  35.3248183
 103.4603820 103.3861748  35.1855656 104.9710490 103.3083545  35.2464829
 106.9843548 100.1080207  41.5988835 107.5077950 100.3542504  42.3615144
 106.7655881 100.9400242  41.1791972 102.3810829 102.3783882  29.4659960
 102.0523535 101.4981261  29.2835066 102.7350200 102.3231550  30.3536349
 105.4952652 102.6656851  29.8335437 105.8348725 103.1942773  29.1114046
 105.9424773 103.0037258  30.6094004 108.1896093 101.0493902  39.2838505
 107.8492914 100.2501715  39.6859185 107.4835099 101.3495613  38.7115339
 108.8412565  98.1343215  37.7365828 109.6638634  97.6603693  37.6144719
 109.0850629  98.9133698  38.2364515 106.3651144 104.8262335  35.5457807
 106.2195724 105.1402638  36.4382089 105.8876347 105.4447236  34.9928706
 108.2247527 101.8164883  35.5938697 108.2109095 100.9205977  35.2570995
 108.9419955 101.8235547  36.2276983 110.0773657 102.2502223  37.6391824
 109.8191435 103.1719294  37.6376154 109.5458698 101.8532658  38.3292288
 100.8396806 107.3667680  38.4845468 100.2950274 108.1427488  38.6165743
 101.7176156 107.7138484  38.3264590 107.6284423 100.6979263  30.8626267
 107.7500334  99.7695910  31.0617154 107.3386465 100.7117949  29.9504582
 110.4975613  98.3834174  33.9992987 110.5197310  98.4473507  33.0444966
 110.9143672  97.5438683  34.1933493 101.6262828 106.4937576  41.3775625
 100.8844564 106.6420211  41.9640256 101.3055572 106.7545841  40.5142374
 100.2728046 112.2989331  34.3674953  99.4359955 111.8711505  34.1858955
 100.2451692 112.4921774  35.3045745 107.1125502 102.2111261  45.0716199
 107.1613658 103.0873384  44.6893969 107.6548016 101.6688654  44.4987843
 115.0081985 105.5875778  42.9809372 115.9091848 105.4482243  42.6893369
 115.0829960 105.7530233  43.9207549 109.3424791 102.9642633  41.8262558
 108.4728100 103.2576199  41.5545147 109.5784271 103.5483078  42.5469822
 117.4683608 107.1474407  40.3772144 117.9437729 107.3402053  39.5690996
 116.5449173 107.2033592  40.1315528 112.0463824  99.1822250  39.3427978
 112.5645768  99.9183277  39.0174467 111.6918957  99.4886243  40.1774737
 112.2976419  95.6022533  34.8628875 112.5778172  94.9345722  35.4889302
 113.0827025  95.7951628  34.3503539 116.1685277 104.0240167  38.6100450
 117.1202700 104.1238264  38.6312674 115.9988727 103.2318435  39.1198534
 114.1899656 101.1095750  38.7959851 113.5949588 101.3900763  38.1006340
 113.9049353 101.5989651  39.5676592 118.7967843 104.0357330  37.7701033
 118.2806892 103.2515786  37.5830962 119.6807792 103.7076046  37.9347552
 116.4578570  97.7798345  33.7296846 116.2603391  97.4713434  34.6140178
 117.0678276  98.5059984  33.8594775 110.3695378 110.1660085  45.2270611
 111.2898388 110.3438684  45.4210657 110.3344961 109.2216131  45.0750310
  99.5877543 105.3598679  34.1523885  99.2680327 104.5063987  33.8598259
  99.0410971 105.5747257  34.9081853 103.3657451 108.0761120  37.8693392
 103.5843460 109.0078228  37.8881426 103.7783224 107.7169095  38.6548196
 110.2861668  98.5829205  29.8569080 109.4762397  98.2376290  30.2324326
 110.9746085  98.2736749  30.4456692 112.2152217  97.6607252  31.4793377
 112.7683255  98.0802706  32.1383400 112.4522303  96.7343000  31.5216333
 108.2385316 103.6494326  47.2596141 108.1382043 104.5988683  47.1908232
 108.0206858 103.3212565  46.3872211  99.4565803 108.9801591  36.1217007
  98.7629275 108.5655543  35.6086961 100.2038794 109.0222127  35.5250426
 114.0434590  99.1712835  33.1893362 114.5434369  99.2829370  32.3807680
 114.6870198  98.8673888  33.8294170 108.1016586 107.0791465  46.0761202
 107.6183668 107.8791825  46.2825092 108.1877525 107.0899410  45.1228646
 101.3702546 108.9119844  33.9983022 101.3473234 109.0107532  33.0464905
 101.6803182 109.7584995  34.3200188 104.0289923 110.9695999  38.1129636
 104.9833177 110.9379942  38.0459568 103.8302447 110.5086623  38.9279862
 104.6189306 109.5397116  40.6800434 105.4382195 110.0341194  40.7035271
 104.8926113 108.6229084  40.6518001 117.7270438 101.9554389  33.7582729
 118.5030828 102.4450841  34.0307346 117.0018572 102.3812443  34.2154598
  99.8724220 103.8735249  41.3792631 100.5183083 103.3634203  41.8679856
  99.6641371 104.6103931  41.9536056 112.2079950  94.7318071  31.3862464
 111.4412346  94.1776557  31.5319146 112.6190655  94.8039939  32.2476616
 104.2121711 101.0202866  45.4767645 105.0753172 100.6639671  45.6870970
 103.6387121 100.6816761  46.1643050  46.0348068  -1.3265731  30.6628910
  45.5911922  -2.1129353  30.3449815  46.6965282  -1.1386581  29.9972801
  48.1329306  -1.0462931  28.6910312  48.1147782  -0.2254050  28.1990581
  49.0549226  -1.1708856  28.9160453  49.0445147  -4.4067093  31.0861030
  48.8930654  -4.6356542  30.1691113  49.0349827  -3.4496492  31.0992375
  50.7537354  -1.3747971  29.1637512  50.6949900  -2.0588751  28.4968095
  51.1556872  -0.6328981  28.7118138  49.2389028  -1.6733053  31.7401322
  49.7828932  -1.0603095  31.2456277  48.6575873  -1.1153475  32.2568335
  52.5617822  -2.2136999  31.0762643  51.7713366  -2.2312861  30.5367142
  52.3251177  -1.6748706  31.8311680  54.1833894  -2.9447591  28.6337393
  53.8918702  -2.5817611  29.4700854  53.5706025  -3.6580583  28.4550725
  47.3615086  -4.0273287  33.6030078  48.2306246  -3.8532634  33.2416713
  46.8821838  -3.2078870  33.4805808  59.0207562   7.6815339  23.0075353
  59.6585972   7.5622087  22.3038693  58.9028405   8.6296183  23.0663305
  55.8297268   7.6342767  22.9436878  55.4915780   7.5183832  22.0557412
  56.6987037   7.2333933  22.9237884  56.3117051   8.7877619  28.9023083
  56.3005692   8.3930417  28.0303587  56.4737691   8.0543692  29.4956855
  49.2348516  10.9829435  21.7717989  50.0269808  10.6420260  21.3564288
  49.4745166  11.0924410  22.6920142  53.0324313  11.5714731  27.8502267
  52.7414178  12.4760362  27.7348933  53.6681297  11.6131259  28.5646337
  53.9580519   8.9491579  24.4403627  54.5544092   8.7247602  23.7260590
  54.0155491   8.2076325  25.0429075  63.9757258   5.3442026  20.9861539
  64.7082430   4.7741243  21.2199369  63.2196613   4.9563627  21.4268045
  61.4982678  -0.9436400  25.4456148  61.1666003  -0.0740989  25.2217363
  60.9028291  -1.2600116  26.1250178  57.9914198  11.2576146  24.8452061
  57.6914921  12.1601185  24.7367868  57.6465257  10.9908330  25.6973214
  61.3911341   3.7758687  22.5249498  60.4828219   3.7074095  22.2308259
  61.3398937   4.2530632  23.3531324  52.9734977  18.0220467  17.8123028
  52.8959007  18.9728292  17.8911509  52.3696621  17.6766339  18.4697955
  55.4652207   5.1948332  30.4684395  54.6885541   5.7542252  30.4587260
  56.1042770   5.6805115  30.9899265  63.2572988   1.9775125  24.3027372
  62.6147368   2.2707658  23.6567167  62.7527916   1.8628045  25.1080569
  53.7198579   8.0033786  30.0302362  54.4613264   8.5418830  29.7537186
  53.0135565   8.6300074  30.1873914  59.1953919  10.1462926  28.6274524
  59.6037275   9.7045337  27.8829156  58.4731181   9.5715554  28.8808717
  55.5484989   5.0835533  26.0008081  56.3946184   5.5074946  26.1442730
  55.4883627   4.4269157  26.6946644  59.5182734  10.7064117  22.3826813
  58.8891596  10.8709831  21.6802881  59.1308396  11.1205726  23.1537777
  63.3971966  11.6418555  19.7371177  62.7123004  12.0217456  19.1868210
  63.4815815  12.2513881  20.4703124  58.6984434   2.7439901  27.6589254
  58.4545366   3.4981962  27.1223530  58.9744365   3.1225249  28.4936502
  60.6522897   9.2878514  26.3366520  60.8639792   9.9310273  25.6600901
  60.6052646   8.4540830  25.8688450  55.0710696  10.4438525  19.6476898
  55.5349041  10.7226228  18.8581520  54.8067494   9.5421969  19.4649989
  51.9634777   9.9910006  22.5856661  52.5336134  10.4197275  21.9474146
  52.5542889   9.7092591  23.2840847  52.4559943   5.1573434  30.8317672
  51.8258604   5.8389715  31.0653069  52.3496031   5.0456515  29.8870811
  61.7668725  12.1650469  24.5088877  62.5886169  11.7630656  24.2271559
  61.7631128  12.0618703  25.4604993  55.5325329  11.7134512  26.6649588
  55.5969761  12.1754920  27.5007760  54.8236253  11.0831877  26.7931898
  69.8574718   8.5089217  20.8573849  69.1038427   7.9396616  20.7017853
  69.9922259   8.4751882  21.8044484  51.7340686  -0.5405800  33.1942923
  51.3407632  -1.0939602  33.8690568  52.5506826  -0.2295222  33.5849441
  50.5097628  14.0143814  19.1879246  50.6864257  14.9361779  19.0000230
  51.3054462  13.7002233  19.6173626  54.6508647   0.8752079  30.7863180
  55.3918360   1.4759232  30.7067642  54.8826570   0.1329717  30.2281223
  49.7949985   6.0608446  29.0641410  49.6803500   5.1593703  29.3648509
  48.9394503   6.3072143  28.7126226  56.8741823  14.0026186  30.6628910
  56.4305677  13.2162565  30.3449815  57.5359036  14.1905337  29.9972801
  51.6328944  15.5321988  25.1889589  52.1836369  15.4039051  24.4166583
  50.7940420  15.8316877  24.8384482  58.9723061  14.2828986  28.6910312
  58.9541536  15.1037867  28.1990581  59.8942981  14.1583061  28.9160453
  55.4296115  11.7973116  29.5333820  55.9624452  11.0361404  29.3033128
  54.9010196  11.5046768  30.2757974  61.7741674   9.1208129  22.1619678
  61.1165348   9.8107390  22.2499807  62.5782073   9.5104561  22.5053665
  60.5847132   7.4752501  20.2123620  61.0979014   8.1082493  20.7145330
  61.2348356   6.8753697  19.8466980  57.0627963   4.9501957  22.4581961
  56.1450525   5.1716904  22.3003649  57.4788107   5.0248267  21.5993668
  61.3508929  12.4558503  18.3402763  60.8971256  11.6149413  18.3967953
  60.7202895  13.0919901  18.6777543  59.7941868  14.2935000  19.2752581
  60.0864842  14.8540057  18.5564946  60.3040488  14.5863561  20.0305740
  54.7575493  15.0715351  20.3646034  54.7151672  15.2976197  19.4354566
  55.6738192  14.8378725  20.5131835  58.2041127   5.5399418  27.2626663
  58.5590515   5.7670891  28.1221129  58.8513258   5.8717795  26.6403918
  63.9338864   8.6617854  17.9675992  63.7956762   8.8519450  17.0397181
  63.5775083   9.4237237  18.4244043  63.9608243  10.7294381  22.9787264
  64.3944750  10.6369670  23.8270318  64.6739824  10.7051882  22.3407280
  52.8741294  11.9478380  20.1607997  53.6681892  11.4528700  19.9590572
  52.1632986  11.4196243  19.7975702  57.6936138  14.3296475  24.5120364
  57.7473161  14.8987411  25.2798080  56.8250920  14.4998360  24.1474401
  50.5734532   4.0314031  25.9944816  51.2457585   3.8231393  25.3457464
  49.7464318   3.8336117  25.5550048  64.8223793  10.7718082  25.5120149
  65.0159683  11.6763892  25.7579424  64.7224411  10.3125501  26.3458734
  56.4760104   0.6575972  28.0110476  55.8288019   1.3565922  27.9174953
  57.2461119   1.0912116  28.3786725  59.8838902  10.9224824  31.0861030
  59.7324408  10.6935376  30.1691113  59.8743581  11.8795426  31.0992375
  56.6524238   8.4956737  26.0707296  57.5816298   8.6467897  25.8976263
  56.2315268   8.5840758  25.2155943  55.4512570  12.5207402  23.8405834
  55.3123656  12.1526186  24.7131772  54.6627166  13.0355041  23.6689792
  56.0460722  17.6216498  15.1831370  56.2212478  17.1504541  15.9976993
  55.3593510  18.2482264  15.4112631  57.0017785  11.8989004  21.2294672
  56.6667618  11.8589774  22.1252321  56.5021731  11.2333720  20.7565082
  50.9762029   7.3056634  26.7547253  50.8381827   6.5736873  27.3558792
  51.8866952   7.2165534  26.4731440  53.6044330   7.0176594  26.2430932
  54.3143948   6.3769786  26.2017551  53.5613638   7.2689488  27.1657113
  61.5931108  13.9543947  29.1637512  61.5343654  13.2703167  28.4968095
  61.9950627  14.6962937  28.7118138  52.3173264   4.0041812  28.0626572
  51.7810621   3.5532550  28.7148168  51.7289972   4.1387720  27.3197036
  50.6121807  20.7705861  21.9571230  50.8518405  21.4024385  22.6350249
  49.7691004  20.4193901  22.2436590  61.5948516  11.9183531  27.3951491
  60.7075294  11.5809453  27.5177890  62.1647067  11.1866562  27.6320257
  55.1249669  16.5784983  24.3612734  55.0519840  17.3839955  24.8732039
  54.6827062  16.7776949  23.5360756  54.9139449  15.8156753  17.8715556
  54.1306970  16.3578433  17.9653781  55.6132194  16.3330733  18.2709797
  66.0765856   7.3291748  22.1568053  66.0655732   8.2116464  21.7861986
  65.2083236   6.9763299  21.9622590  57.5848352  16.4771817  26.5170893
  58.2976325  17.1119282  26.4446795  57.0938381  16.5735683  25.7010895
  59.3065879  10.3823070  18.0888185  58.3722158  10.5024532  17.9192889
  59.4842548   9.4795537  17.8248195  62.6938431   6.2240389  18.6238219
  63.1598883   7.0568381  18.5498522  63.1445931   5.7585371  19.3283477
  52.6360266  14.2266261  27.3376464  53.3369726  14.8602744  27.4905858
  52.1655381  14.5680992  26.5772103  60.4361552   6.7810868  25.1629014
  59.7833002   7.0286776  24.5081467  60.8141932   5.9675006  24.8291492
  57.3968726  16.8170561  19.2657185  57.5791120  15.9992217  19.7284937
  58.2201712  17.0338254  18.8282075  57.7310891  15.7438747  16.5272233
  58.2598658  15.2331201  15.9142395  57.9939111  15.4281277  17.3917766
  56.4849125   7.5230679  31.6495051  55.8089762   7.4224809  32.3197427
  57.3076759   7.3669893  32.1131049  48.2327984  13.7602616  24.2707567
  48.8181421  13.0146304  24.4035471  48.0352823  14.0706573  25.1544231
  51.0866639  16.7953863  19.2870009  50.4177015  17.2799991  18.8034049
  50.9479509  17.0423084  20.2013388  55.2271908  18.8297607  25.8852667
  55.7790216  18.9929228  26.6501753  55.5678101  19.4202045  25.2132692
  49.6788674   3.2495889  30.1347586  50.3060712   2.8672966  30.7485111
  48.8216593   3.0310091  30.5003279  60.0782782  13.6558864  31.7401322
  60.6222686  14.2688823  31.2456277  59.4969627  14.2138443  32.2568335
  58.3640295  16.7779582  22.8716350  58.2391435  15.9769322  22.3627295
  59.0219386  17.2725776  22.3830320  60.4275204  14.5788602  24.4995900
  59.4805539  14.4593954  24.4274226  60.7757977  13.6911100  24.5822161
  52.7874777   0.4682741  28.3234142  53.3109179   0.7145038  29.0860451
  52.5687110   1.3002776  27.9037279  57.4321637  14.3741319  20.7000252
  57.2846599  13.4458026  20.8807822  58.2575130  14.3961409  20.2157327
  61.0355759  15.1969877  21.7865125  61.9602306  14.9912739  21.6489576
  60.8671062  14.9486278  22.6954466  53.9927322   1.4096436  26.0083812
  53.6524142   0.6104249  26.4104492  53.2866328   1.7098147  25.4360645
  55.8804886   2.6104758  24.3637131  55.6222664   3.5321828  24.3621461
  55.3489927   2.2135192  25.0537595  60.8251075  15.7155545  17.1427216
  60.9987952  15.1501967  16.3901069  61.3179966  16.5156440  16.9606706
  46.6428035   7.7270214  25.2090775  46.0981503   8.5030022  25.3411049
  47.5207385   8.0741018  25.0509896  66.6790466   8.4791968  18.7617516
  67.1221612   7.7299293  18.3636639  65.8016976   8.4702104  18.3791248
  61.8126247  15.0322309  14.2424114  62.5077152  15.6529002  14.4611429
  62.1549398  14.1817660  14.5176492  47.4294057   6.8540110  28.1020932
  46.6875793   7.0022745  28.6885562  47.1086801   7.1148376  27.2387681
  63.7117671  12.4822015  15.7711445  64.2368995  12.8209287  15.0460765
  63.6240023  11.5469030  15.5874580  55.3737719  16.3956088  27.9001322
  55.6824846  16.1505235  28.7724021  56.1713201  16.6002727  27.4120192
  55.3958331  18.5493998  20.1306698  54.9563322  18.0570377  20.8239555
  56.1466448  18.0066966  19.8898774  47.8750670  14.7405539  20.1331326
  48.7008690  14.4409311  19.7529970  47.5244722  13.9713161  20.5821115
  52.8432203  14.0932007  22.2029000  52.2212213  13.4302712  21.9031228
  53.5137070  14.1193139  21.5202648  52.9156731   2.5713795  31.7961506
  52.9644886   3.4475918  31.4139276  53.4579245   2.0291188  31.2233149
  63.4011577  13.1154918  31.0762643  62.6107120  13.0979057  30.5367142
  63.1644931  13.6543212  31.8311680  63.5209452   9.9647385  28.3895372
  63.5707457   9.7997392  29.3310894  63.4123375   9.0974644  27.9993252
  60.8113214   5.9478313  29.7054678  61.7123077   5.8084778  29.4138676
  60.8861189   6.1132768  30.6452856  55.1456019   3.3245167  28.5507865
  54.2759329   3.6178734  28.2790453  55.3815500   3.9085612  29.2715128
  65.0227648  12.3844326  28.6337393  64.7312457  12.7474307  29.4700854
  64.4099780  11.6711334  28.4550725  66.2223331   9.9497206  21.1539963
  67.0570222  10.3887010  21.3177524  66.3582460   9.4735859  20.3348209
  63.2714837   7.5076941  27.1017451  63.7468958   7.7004587  26.2936303
  62.3480402   7.5636127  26.8560835  57.8495053  -0.4575216  26.0673285
  58.3676997   0.2785811  25.7419774  57.4950186  -0.1511222  26.9020044
  61.9716506   4.3842701  25.3345757  62.9233929   4.4840799  25.3557981
  61.8019956   3.5920969  25.8443841  59.9930885   1.4698284  25.5205158
  59.3980817   1.7503297  24.8251646  59.7080582   1.9592185  26.2921899
  64.4504583   7.6048821  24.4488056  64.4180904   6.6664821  24.6347740
  65.0605207   7.6832857  23.7153881  64.5999072   4.3959864  24.4946340
  64.0838121   3.6118321  24.3076268  65.4839020   4.0678581  24.6592859
  70.2681133   8.6664827  23.5894093  70.9984522   8.4050116  24.1501797
  69.6588079   7.9293549  23.6296161  68.3496430   6.8072690  24.1868544
  67.6229594   6.6728655  23.5785036  67.9343717   7.1149519  24.9925262
  56.1726607  10.5262620  31.9515917  57.0929616  10.7041219  32.1455964
  56.1376190   9.5818665  31.7995617  49.1688679   8.4363654  24.5938699
  49.3874689   9.3680762  24.6126732  49.5814453   8.0771629  25.3793502
  54.0416545   4.0096860  33.9841447  53.9413272   4.9591217  33.9153539
  53.8238087   3.6815099  33.1117518  53.9047815   7.4393999  32.8006509
  53.4214897   8.2394359  33.0070398  53.9908754   7.4501944  31.8473953
  49.8321152  11.3298534  24.8374943  50.7864406  11.2982476  24.7704874
  49.6333676  10.8689157  25.6525169  50.4220534   9.8999650  27.4045741
  51.2413423  10.3943728  27.4280578  50.6957342   8.9831618  27.3763308
  63.5301667   2.3156923  20.4828035  64.3062057   2.8053375  20.7552652
  62.8049801   2.7414977  20.9399905  65.9674225   3.0284542  21.5401976
  66.5618716   2.7880278  20.8295284  66.0400809   2.3091673  22.1675512
  48.1871381  16.8718153  21.8545141  48.0525849  16.1118554  21.2883139
  47.7703443  17.5959053  21.3873930  68.2745298   6.3350743  20.3145397
  67.7144856   6.4043932  21.0876959  67.6688801   6.1591728  19.5944893
  51.3440507  17.7687470  22.0663583  51.2272891  18.7132903  21.9642274
  50.5232953  17.4661032  22.4549383  45.6755449   4.2337784  28.1037938
  46.3214312   3.7236738  28.5925163  45.4672600   4.9706465  28.6781363
  58.2008841  11.3018631  33.6030078  59.0700000  11.4759283  33.2416713
  57.7215592  12.1213048  33.4805808  52.3695021  18.4215732  25.2819512
  53.2722268  18.4539342  25.5986007  52.1432391  17.4916183  25.2965848
  54.1248623  17.1746719  21.9429591  53.1744254  17.1748580  21.8293963
  54.4281109  16.4279453  21.4265625  50.0152940   1.3805401  32.2012952
  50.8784401   1.0242206  32.4116276  49.4418350   1.0419295  32.8888356
  69.8601317  23.0107257  23.0075353  70.4979727  22.8914004  22.3038693
  69.7422159  23.9588101  23.0663305  66.6691023  22.9634685  22.9436878
  66.3309534  22.8475750  22.0557412  67.5380791  22.5625850  22.9237884
  62.5277839  24.8170162  18.9333769  61.9642704  24.7260098  18.1650056
  62.4130234  23.9970066  19.4136261  67.1510806  24.1169537  28.9023083
  67.1399447  23.7222335  28.0303587  67.3131445  23.3835609  29.4956855
  60.0742270  26.3121353  21.7717989  60.8663562  25.9712178  21.3564288
  60.3138921  26.4216328  22.6920142  68.1077397  28.4841129  14.2448233
  67.4565377  29.0695210  13.8582247  68.9021760  29.0147324  14.3043271
  62.0333024  25.5730266  14.6435368  62.8063900  25.0259253  14.5048244
  62.3858423  26.4374516  14.8549829  63.8718067  26.9006649  27.8502267
  63.5807933  27.8052279  27.7348933  64.5075051  26.9423176  28.5646337
  64.7974274  24.2783497  24.4403627  65.3937846  24.0539520  23.7260590
  64.8549245  23.5368243  25.0429075  64.3699302  21.7322933  12.2753818
  64.6224823  21.2104454  11.5137281  63.4323861  21.5689078  12.3780501
  69.4142585  20.7358711  20.0828561  70.2005674  20.3178134  19.7318978
  69.6781289  21.6404803  20.2510209  69.5852662  26.1731561  14.7817218
  68.9498495  26.2466188  15.4938122  69.2550069  26.7625160  14.1036297
  74.8151012  20.6733944  20.9861539  75.5476184  20.1033161  21.2199369
  74.0590368  20.2855545  21.4268045  64.0895591  23.6351038  14.4778193
  63.9731849  22.9595942  15.1459277  64.1997851  23.1483412  13.6610346
  66.4327132  23.0961186  18.1824882  66.0685339  22.5691807  18.8937803
  67.2894248  22.7059655  18.0091367  72.3376433  14.3855518  25.4456148
  72.0059757  15.2550929  25.2217363  71.7422046  14.0691802  26.1250178
  66.0732619  18.1251085  13.1786230  66.2407021  18.9931322  13.5456701
  65.8829788  18.2878367  12.2547520  68.8307952  26.5868064  24.8452061
  68.5308675  27.4893103  24.7367868  68.4859012  26.3200247  25.6973214
  62.2820434  23.0381861  20.8788765  61.3570930  22.9058075  21.0866457
  62.5304847  23.8176080  21.3758708  72.2305096  19.1050604  22.5249498
  71.3221973  19.0366013  22.2308259  72.1792692  19.5822549  23.3531324
  66.0521840  20.5808743  14.1632897  65.9321465  21.0265794  15.0018378
  65.3574428  20.9294060  13.6046435  59.6429245  22.6815135  21.7132554
  59.7721626  22.9349613  22.6271966  58.9626696  23.2742843  21.3937209
  63.8128732  33.3512385  17.8123028  63.7352762  34.3020210  17.8911509
  63.2090375  33.0058257  18.4697955  66.3045962  20.5240250  30.4684395
  65.5279296  21.0834170  30.4587260  66.9436525  21.0097033  30.9899265
  74.0966742  17.3067043  24.3027372  73.4541123  17.5999576  23.6567167
  73.5921671  17.1919963  25.1080569  71.7506906  21.0530216  14.9913231
  72.6624762  21.2857603  14.8160929  71.2416553  21.6367260  14.4288310
  64.5592334  23.3325703  30.0302362  65.3007018  23.8710747  29.7537186
  63.8529319  23.9591992  30.1873914  70.0347674  25.4754844  28.6274524
  70.4431030  25.0337254  27.8829156  69.3124935  24.9007471  28.8808717
  66.3878744  20.4127451  26.0008081  67.2339939  20.8366864  26.1442730
  66.3277381  19.7561075  26.6946644  70.3576488  26.0356034  22.3826813
  69.7285351  26.2001749  21.6802881  69.9702150  26.4497644  23.1537777
  74.2365720  26.9710472  19.7371177  73.5516758  27.3509374  19.1868210
  74.3209569  27.5805799  20.4703124  69.5378189  18.0731819  27.6589254
  69.2939121  18.8273879  27.1223530  69.8138119  18.4517166  28.4936502
  71.4916652  24.6170431  26.3366520  71.7033547  25.2602191  25.6600901
  71.4446400  23.7832748  25.8688450  69.0942881  17.2288252  23.2403092
  68.2327360  17.5269505  23.5319830  69.1205315  17.4458651  22.3084125
  65.9104450  25.7730442  19.6476898  66.3742796  26.0518145  18.8581520
  65.6461248  24.8713887  19.4649989  62.8028531  25.3201924  22.5856661
  63.3729888  25.7489192  21.9474146  63.3936643  25.0384509  23.2840847
  64.8473336  21.8953595  16.4566463  65.5497380  22.3474639  16.9240389
  64.5153965  21.2537414  17.0846356  63.2953698  20.4865351  30.8317672
  62.6652358  21.1681632  31.0653069  63.1889786  20.3748433  29.8870811
  58.5898670  20.1537147  21.7583597  57.7997724  20.4094676  21.2823707
  59.0809918  20.9685485  21.8635637  72.6062480  27.4942387  24.5088877
  73.4279923  27.0922574  24.2271559  72.6024883  27.3910621  25.4604993
  60.5413416  20.5181727  18.7167073  59.7444579  20.6300421  19.2350569
  60.3139008  20.8568379  17.8507964  66.3719083  27.0426430  26.6649588
  66.4363516  27.5046837  27.5007760  65.6630007  26.4123795  26.7931898
  56.8736373  20.4067638  24.1898587  57.1244412  21.2914648  24.4556163
  57.4095922  20.2272239  23.4173679  80.6968473  23.8381135  20.8573849
  79.9432181  23.2688533  20.7017853  80.8316014  23.8043800  21.8044484
  66.0867101  28.7094537  16.5328568  65.9512776  29.5546073  16.9613416
  66.6276913  28.9113815  15.7694502  62.5734440  14.7886117  33.1942923
  62.1801386  14.2352316  33.8690568  63.3900581  15.0996696  33.5849441
  59.5396498  26.2269975  17.1056493  60.0521019  27.0213226  17.2562058
  60.1919211  25.5296266  17.0390095  61.3491383  29.3435732  19.1879246
  61.5258011  30.2653696  19.0000230  62.1448216  29.0294151  19.6173626
  65.4902401  16.2043996  30.7863180  66.2312115  16.8051150  30.7067642
  65.7220324  15.4621634  30.2281223  60.6343739  21.3900364  29.0641410
  60.5197255  20.4885621  29.3648509  59.7788257  21.6364060  28.7126226
  62.4722698  30.8613906  25.1889589  63.0230123  30.7330969  24.4166583
  61.6334174  31.1608795  24.8384482  66.2689869  27.1265033  29.5333820
  66.8018206  26.3653322  29.3033128  65.7403950  26.8338685  30.2757974
  69.4359564  12.2325099  25.0627462  69.0923834  13.1226741  24.9866572
  69.8038527  12.0426757  24.1997047  57.5045415  24.5558630  17.8816064
  58.3420637  24.9655638  17.6649772  57.6823683  23.6158072  17.8516258
  69.4009847  22.2233710  13.5699897  68.8856471  22.9938315  13.8088284
  69.1287156  21.5498847  14.1932958  66.9856958  17.0683411  18.6285135
  66.1298554  16.6790262  18.4490774  67.3983910  17.1475372  17.7684921
  68.5156105  14.6029755  23.0276695  68.0120900  14.5659890  22.2144500
  68.8086712  15.5122497  23.0873352  64.7598991  14.6868484  22.0342877
  65.6251987  14.4911293  21.6748766  64.8276500  14.4578836  22.9612233
  74.3744121  24.9766065  15.5053070  73.5973564  24.6377225  15.0608232
  75.0535602  24.9818688  14.8308035  69.1896150  20.0960803  15.3959678
  68.8846286  20.4106952  16.2469821  70.1426592  20.1742222  15.4387011
  67.6342582  26.2551026  17.0452632  67.1063944  25.5203785  16.7325869
  67.1330085  27.0325702  16.7992600  72.6135428  24.4500046  22.1619678
  71.9559103  25.1399308  22.2499807  73.4175827  24.8396478  22.5053665
  62.3661310  16.9170692  19.4059243  62.9405062  16.6945874  18.6732436
  62.9532292  16.9859387  20.1587845  71.4240887  22.8044419  20.2123620
  71.9372769  23.4374411  20.7145330  72.0742111  22.2045615  19.8466980
  62.6930897  18.9475153  13.4255129  61.8568209  19.2849840  13.7464403
  62.5535666  18.8124133  12.4882266  64.6683977  13.7911941  18.1334313
  64.0148390  13.4760958  17.5090928  64.6264452  13.1687682  18.8594136
  65.7795182  24.0731236  10.0487605  64.8722244  23.8420490  10.2478754
  66.2766214  23.2768855  10.2361587  68.6863261  32.7828743  12.9684291
  68.0124960  33.0860440  13.5769249  69.0729083  33.5857824  12.6189748
  67.9021718  20.2793875  22.4581961  66.9844279  20.5008822  22.3003649
  68.3181861  20.3540185  21.5993668  68.6856766  21.6785290  17.5884641
  69.4328584  22.1906687  17.2791763  68.9548355  21.3569343  18.4489034
  66.9583416  24.1743831  14.5711595  66.0494635  23.8902864  14.6684065
  66.9878500  24.5942910  13.7114902  72.1902683  27.7850420  18.3402763
  71.7365010  26.9441330  18.3967953  71.5596650  28.4211819  18.6777543
  71.1335603  18.7142407  19.5703430  70.3958359  18.2019793  19.9013673
  71.3862376  18.2742788  18.7586707  70.6335622  29.6226917  19.2752581
  70.9258597  30.1831974  18.5564946  71.1434243  29.9155478  20.0305740
  71.2347230  11.4918659  20.1645199  71.5406107  10.6316022  19.8771114
  71.9599835  12.0836279  19.9644193  57.5271586  21.8949345  18.5526797
  57.3295986  21.3018706  17.8277864  56.9718250  21.5901555  19.2702736
  65.5068310  21.7872452  20.6721390  65.5616920  20.8346288  20.5963867
  64.6959512  21.9431891  21.1562689  66.6559504  25.7152575  11.9099674
  66.2178933  24.9988434  11.4505311  67.3969944  25.9428689  11.3484765
  63.4460670  20.4049511  18.4311769  62.6328535  20.7043682  18.8376961
  63.9419664  20.0105200  19.1486252  65.5969248  30.4007268  20.3646034
  65.5545426  30.6268115  19.4354566  66.5131946  30.1670643  20.5131835
  69.0434881  20.8691336  27.2626663  69.3984269  21.0962809  28.1221129
  69.6907013  21.2009713  26.6403918  74.7732618  23.9909772  17.9675992
  74.6350517  24.1811368  17.0397181  74.4168837  24.7529155  18.4244043
  62.9374744  17.9767867  24.0473004  63.5774124  17.8356626  23.3495968
  62.1052275  17.6902380  23.6711606  74.8001998  26.0586299  22.9787264
  75.2338505  25.9661588  23.8270318  75.5133579  26.0343799  22.3407280
  63.7135048  27.2770297  20.1607997  64.5075647  26.7820617  19.9590572
  63.0026741  26.7488160  19.7975702  68.5329893  29.6588393  24.5120364
  68.5866915  30.2279329  25.2798080  67.6644674  29.8290278  24.1474401
  60.0217812  21.4213379  16.2367749  59.0915400  21.3597835  16.4537712
  60.1175284  20.8989332  15.4404391  59.9403361  17.9468192  18.8245991
  60.2010178  18.8613525  18.7155152  60.7620533  17.4792634  18.9742604
  61.4128286  19.3605949  25.9944816  62.0851340  19.1523311  25.3457464
  60.5858073  19.1628035  25.5550048  75.6617547  26.1009999  25.5120149
  75.8553438  27.0055810  25.7579424  75.5618166  25.6417418  26.3458734
  67.3153858  15.9867890  28.0110476  66.6681773  16.6857840  27.9174953
  68.0854874  16.4204034  28.3786725  70.7232656  26.2516742  31.0861030
  70.5718163  26.0227294  30.1691113  70.7137336  27.2087344  31.0992375
  67.4917993  23.8248655  26.0707296  68.4210053  23.9759814  25.8976263
  67.0709023  23.9132676  25.2155943  66.2906324  27.8499319  23.8405834
  66.1517410  27.4818104  24.7131772  65.5020921  28.3646959  23.6689792
  66.8854476  32.9508416  15.1831370  67.0606232  32.4796459  15.9976993
  66.1987264  33.5774182  15.4112631  67.8411539  27.2280922  21.2294672
  67.5061372  27.1881692  22.1252321  67.3415485  26.5625638  20.7565082
  61.8155783  22.6348552  26.7547253  61.6775581  21.9028791  27.3558792
  62.7260707  22.5457452  26.4731440  70.7770731  24.5736956  11.5031731
  70.1599902  23.8483784  11.4064784  70.3087220  25.3346317  11.1598805
  64.4438084  22.3468511  26.2430932  65.1537703  21.7061704  26.2017551
  64.4007392  22.5981406  27.1657113  72.4324863  29.2835865  29.1637512
  72.3737409  28.5995085  28.4968095  72.8344381  30.0254855  28.7118138
  63.1567018  19.3333729  28.0626572  62.6204375  18.8824468  28.7148168
  62.5683727  19.4679638  27.3197036  61.4515562  36.0997779  21.9571230
  61.6912160  36.7316303  22.6350249  60.6084758  35.7485819  22.2436590
  72.4342270  27.2475449  27.3951491  71.5469049  26.9101370  27.5177890
  73.0040821  26.5158480  27.6320257  54.0871417  23.5799540  20.7194543
  54.7742457  23.2661270  20.1315558  53.9319546  24.4840905  20.4461794
  58.8906139  18.4689737  25.1479566  58.8064328  17.8615406  24.4129976
  58.0688846  18.9598755  25.1489063  65.9643423  31.9076901  24.3612734
  65.8913595  32.7131872  24.8732039  65.5220817  32.1068867  23.5360756
  65.7533203  31.1448671  17.8715556  64.9700725  31.6870351  17.9653781
  66.4525948  31.6622651  18.2709797  69.0629853  16.9543300  20.5149761
  69.5598553  16.2013263  20.1950832  68.2916835  16.9907617  19.9492971
  76.9159611  22.6583666  22.1568053  76.9049487  23.5408381  21.7861986
  76.0476990  22.3055217  21.9622590  68.4242107  31.8063735  26.5170893
  69.1370079  32.4411200  26.4446795  67.9332136  31.9027601  25.7010895
  70.1459634  25.7114988  18.0888185  69.2115913  25.8316450  17.9192889
  70.3236302  24.8087454  17.8248195  65.6464822  19.0960683  20.2421446
  65.2762609  18.5431724  20.9302352  66.1423914  18.4918817  19.6896446
  73.5332185  21.5532307  18.6238219  73.9992637  22.3860299  18.5498522
  73.9839686  21.0877289  19.3283477  63.4754021  29.5558178  27.3376464
  64.1763480  30.1894661  27.4905858  63.0049136  29.8972910  26.5772103
  71.6008416  27.8976128  15.6224371  71.8768260  27.7832723  16.5318245
  70.7312915  27.4993613  15.5836544  71.5048848  13.9212894  22.6629120
  70.5911928  14.1517121  22.8311327  71.9341949  14.0051338  23.5143153
  71.2755306  22.1102786  25.1629014  70.6226757  22.3578693  24.5081467
  71.6535686  21.2966924  24.8291492  68.2362480  32.1462479  19.2657185
  68.4184875  31.3284135  19.7284937  69.0595466  32.3630171  18.8282075
  68.5704646  31.0730664  16.5272233  69.0992412  30.5623119  15.9142395
  68.8332865  30.7573194  17.3917766  67.3242880  22.8522597  31.6495051
  66.6483517  22.7516726  32.3197427  68.1470513  22.6961811  32.1131049
  59.0721739  29.0894533  24.2707567  59.6575175  28.3438221  24.4035471
  58.8746577  29.3998490  25.1544231  61.9260394  32.1245781  19.2870009
  61.2570769  32.6091909  18.8034049  61.7873263  32.3715001  20.2013388
  53.6639393  21.6600134  22.9912010  53.7023493  21.1263724  23.7849128
  53.1579686  21.1335339  22.3722987  66.0665662  34.1589524  25.8852667
  66.6183970  34.3221146  26.6501753  66.4071856  34.7493962  25.2132692
  61.0430156  16.5064674  26.4874552  61.1071482  17.3679505  26.0751950
  60.9797276  15.8938676  25.7546911  60.5182428  18.5787807  30.1347586
  61.1454467  18.1964884  30.7485111  59.6610347  18.3602009  30.5003279
  57.2947971  20.3864236  16.0665941  57.5901412  19.4774914  16.0132995
  56.3936007  20.3651975  15.7446944  69.2034050  32.1071500  22.8716350
  69.0785189  31.3061240  22.3627295  69.8613141  32.6017693  22.3830320
  60.8242218  18.4620232  22.0493490  60.1028804  19.0756200  21.9100963
  61.6135474  18.9977997  21.9710136  71.2668958  29.9080520  24.4995900
  70.3199294  29.7885871  24.4274226  71.6151731  29.0203018  24.5822161
  63.6268531  15.7974659  28.3234142  64.1502933  16.0436955  29.0860451
  63.4080865  16.6294694  27.9037279  59.0235812  18.0678334  16.1905266
  58.6948519  17.1875712  16.0080372  59.3775183  18.0126002  17.0781656
  68.2715391  29.7033236  20.7000252  68.1240354  28.7749944  20.8807822
  69.0968885  29.7253327  20.2157327  62.1377636  18.3551303  16.5580744
  62.4773708  18.8837225  15.8359352  62.5849756  18.6931709  17.3339311
  71.8749513  30.5261795  21.7865125  72.7996061  30.3204656  21.6489576
  71.7064817  30.2778196  22.6954466  64.8321076  16.7388354  26.0083812
  64.4917897  15.9396167  26.4104492  64.1260083  17.0390065  25.4360645
  65.4837548  13.8237666  24.4611135  66.3063618  13.3498145  24.3390025
  65.7275612  14.6028150  24.9609821  64.1245783  16.8525925  14.7574037
  64.8454145  17.2307178  14.2537754  63.5011087  17.5714802  14.8609015
  68.2676906  17.5571074  15.6932369  68.4840520  18.4395712  15.3921197
  67.7870973  17.1657287  14.9638011  63.0076127  20.5156787  22.2703114
  62.8620708  20.8297090  23.1627395  62.5301331  21.1341687  21.7174012
  64.8672510  17.5059335  22.3184003  64.8534079  16.6100428  21.9816301
  65.5844938  17.5129999  22.9522289  66.7198641  17.9396675  24.3637131
  66.4616418  18.8613746  24.3621461  66.1883681  17.5427110  25.0537595
  71.6644829  31.0447462  17.1427216  71.8381707  30.4793885  16.3901069
  72.1573721  31.8448357  16.9606706  57.4821789  23.0562131  25.2090775
  56.9375257  23.8321939  25.3411049  58.3601139  23.4032936  25.0509896
  64.2709406  16.3873715  17.5871573  64.3925317  15.4590362  17.7862461
  63.9811448  16.4012401  16.6749889  67.1400596  14.0728626  20.7238293
  67.1622293  14.1367959  19.7690273  67.5568655  13.2333134  20.9178799
  77.5184221  23.8083885  18.7617516  77.9615367  23.0591211  18.3636639
  76.6410731  23.7994022  18.3791248  72.6520002  30.3614227  14.2424114
  73.3470907  30.9820919  14.4611429  72.9943152  29.5109578  14.5176492
  58.2687811  22.1832028  28.1020932  57.5269547  22.3314663  28.6885562
  57.9480555  22.4440293  27.2387681  74.5511425  27.8113932  15.7711445
  75.0762749  28.1501205  15.0460765  74.4633778  26.8760948  15.5874580
  66.2352086  33.8785916  20.1306698  65.7957076  33.3862294  20.8239555
  66.9860203  33.3358883  19.8898774  58.7144425  30.0697456  20.1331326
  59.5402445  29.7701228  19.7529970  58.3638477  29.3005079  20.5821115
  63.6825958  29.4223925  22.2029000  63.0605967  28.7594630  21.9031228
  64.3530825  29.4485057  21.5202648  56.9153030  27.9883783  21.0920260
  56.0784938  27.5605957  20.9104261  56.8876675  28.1816226  22.0291051
  63.7550485  17.9005713  31.7961506  63.8038641  18.7767836  31.4139276
  64.2973000  17.3583106  31.2233149  74.2405331  28.4446836  31.0762643
  73.4500875  28.4270975  30.5367142  74.0038686  28.9835130  31.8311680
  74.3603206  25.2939302  28.3895372  74.4101211  25.1289310  29.3310894
  74.2517129  24.4266561  27.9993252  63.2439465  27.9727848  15.6787461
  63.3927585  28.6563312  15.0254133  64.0505908  27.9532938  16.1936916
  71.6506969  21.2770230  29.7054678  72.5516831  21.1376695  29.4138676
  71.7254943  21.4424685  30.6452856  65.9849774  18.6537085  28.5507865
  65.1153083  18.9470651  28.2790453  66.2209254  19.2377530  29.2715128
  75.8621403  27.7136244  28.6337393  75.5706211  28.0766224  29.4700854
  75.2493534  27.0003252  28.4550725  77.0617085  25.2789124  21.1539963
  77.8963977  25.7178928  21.3177524  77.1976214  24.8027777  20.3348209
  74.1108591  22.8368858  27.1017451  74.5862713  23.0296505  26.2936303
  73.1874157  22.8928044  26.8560835  60.9992098  23.9993026  16.6848529
  60.7538140  23.0955356  16.8828740  61.1688012  24.0010176  15.7428007
  68.6888808  14.8716702  26.0673285  69.2070752  15.6077729  25.7419774
  68.3343940  15.1780695  26.9020044  60.2687745  19.7321383  14.1834691
  59.5756990  19.8065738  13.5274727  60.0239497  18.9681727  14.7056208
  68.9401402  11.2916985  21.5874182  69.2203156  10.6240174  22.2134608
  69.7252009  11.4846080  21.0748845  66.7434870  30.4675978  13.1499208
  66.1708837  31.0866166  12.6969680  67.3167664  31.0175340  13.6839130
  72.8110260  19.7134619  25.3345757  73.7627683  19.8132716  25.3557981
  72.6413711  18.9212887  25.8443841  70.8324640  16.7990202  25.5205158
  70.2374572  17.0795215  24.8251646  70.5474336  17.2884103  26.2921899
  69.9632130  30.7513129  14.2807790  70.8962803  30.6858690  14.4840666
  69.8755343  31.5869395  13.8222323  72.5920147  30.0678999  11.2411738
  72.5133778  29.7338863  12.1347496  73.4129814  30.5600767  11.2403210
  75.2898338  22.9340738  24.4488056  75.2574658  21.9956739  24.6347740
  75.8998962  23.0124775  23.7153881  67.1281669  21.8036791  10.4915260
  68.0740774  21.6742999  10.5603678  66.7495914  21.0651453  10.9684689
  75.4392826  19.7251782  24.4946340  74.9231875  18.9410238  24.3076268
  76.3232775  19.3970498  24.6592859  73.1003553  13.4692797  20.4542152
  72.9028375  13.1607885  21.3385484  73.7103259  14.1954436  20.5840082
  81.1074888  23.9956745  23.5894093  81.8378276  23.7342033  24.1501797
  80.4981833  23.2585467  23.6296161  79.1890185  22.1364608  24.1868544
  78.4623349  22.0020573  23.5785036  78.7737472  22.4441436  24.9925262
  67.0120361  25.8554537  31.9515917  67.9323371  26.0333136  32.1455964
  66.9769944  24.9110583  31.7995617  65.3124586  19.7286768  10.4270146
  64.4056041  19.4319880  10.5032859  65.5900567  19.4316586   9.5604432
  56.2302526  21.0493131  20.8769192  55.9105311  20.1958439  20.5843566
  55.6835955  21.2641709  21.6327159  60.0082434  23.7655572  24.5938699
  60.2268444  24.6972680  24.6126732  60.4208208  23.4063546  25.3793502
  66.9286652  14.2723657  16.5814387  66.1187380  13.9270742  16.9569633
  67.6171069  13.9631201  17.1701999  68.8577200  13.3501704  18.2038684
  69.4108239  13.7697158  18.8628707  69.0947286  12.4237452  18.2461640
  64.8810299  19.3388778  33.9841447  64.7807026  20.2883135  33.9153539
  64.6631841  19.0107017  33.1117518  56.0990786  24.6696043  22.8462314
  55.4054258  24.2549995  22.3332268  56.8463777  24.7116579  22.2495733
  72.2356007  15.4602229  17.7117348  71.6554676  16.1187033  17.3295400
  71.9691940  14.6379574  17.3004765  70.6859573  14.8607287  19.9138668
  71.1859352  14.9723822  19.1052987  71.3295181  14.5568340  20.5539477
  64.7441569  22.7685917  32.8006509  64.2608651  23.5686277  33.0070398
  64.8302508  22.7793862  31.8473953  58.0127529  24.6014296  20.7228329
  57.9898217  24.7001984  19.7710212  58.3228165  25.4479447  21.0445495
  60.6714907  26.6590451  24.8374943  61.6258160  26.6274394  24.7704874
  60.4727430  26.1981075  25.6525169  61.2614289  25.2291567  27.4045741
  62.0807178  25.7235646  27.4280578  61.5351097  24.3123536  27.3763308
  71.0180885  17.6202320  16.7673696  70.1306740  17.9051970  16.5493891
  71.4334874  17.4596083  15.9200973  74.3695421  17.6448841  20.4828035
  75.1455811  18.1345293  20.7552652  73.6443555  18.0706895  20.9399905
  76.8067980  18.3576460  21.5401976  77.4012471  18.1172196  20.8295284
  76.8794564  17.6383590  22.1675512  59.0265136  32.2010071  21.8545141
  58.8919603  31.4410472  21.2883139  58.6097198  32.9250971  21.3873930
  70.1624099  27.3846994  10.8621716  70.8659949  27.5896997  11.4779372
  69.4386747  27.9523756  11.1270800  70.9921909  23.1356856  16.9823986
  70.9357110  23.5925407  16.1431619  71.5450251  22.3747540  16.8046829
  74.8026715  18.9246588  17.8074106  74.5463649  18.5243223  18.6382313
  74.1779583  19.6390381  17.6824245  79.1139053  21.6642661  20.3145397
  78.5538611  21.7335850  21.0876959  78.5082556  21.4883645  19.5944893
  62.1834261  33.0979388  22.0663583  62.0666646  34.0424820  21.9642274
  61.3626708  32.7952949  22.4549383  72.0710796  27.8229524  12.9120176
  72.9056400  27.3910722  12.7297651  71.9095139  27.6511537  13.8397071
  71.7256688  24.3261637  14.2776515  71.6705492  24.1605908  13.3364960
  71.1002743  25.0337670  14.4338705  56.5149203  19.5629701  28.1037938
  57.1608067  19.0528655  28.5925163  56.3066354  20.2998383  28.6781363
  69.0402595  26.6310549  33.6030078  69.9093755  26.8051201  33.2416713
  68.5609347  27.4504966  33.4805808  65.0352814  13.8269746  13.8561834
  65.0231483  14.7711586  14.0130105  65.9276235  13.6439891  13.5621295
  63.2088776  33.7507650  25.2819512  64.1116022  33.7831260  25.5986007
  62.9826146  32.8208101  25.2965848  64.9642378  32.5038636  21.9429591
  64.0138009  32.5040498  21.8293963  65.2674864  31.7571371  21.4265625
  68.8504933  10.4212523  18.1107771  68.0837329   9.8671009  18.2564453
  69.2615638  10.4934391  18.9721922  60.8546694  16.7097318  32.2012952
  61.7178156  16.3534123  32.4116276  60.2812105  16.3711213  32.8888356
  73.3671593  40.1462079  18.9333769  72.8036458  40.0552016  18.1650056
  73.2523988  39.3261984  19.4136261  70.9136025  41.6413271  21.7717989
  71.7057317  41.3004095  21.3564288  71.1532675  41.7508246  22.6920142
  78.9471152  43.8133047  14.2448233  78.2959132  44.3987127  13.8582247
  79.7415515  44.3439242  14.3043271  72.8726779  40.9022184  14.6435368
  73.6457655  40.3551171  14.5048244  73.2252178  41.7666433  14.8549829
  75.2093057  37.0614850  12.2753818  75.4618577  36.5396371  11.5137281
  74.2717616  36.8980996  12.3780501  80.2536340  36.0650629  20.0828561
  81.0399429  35.6470052  19.7318978  80.5175044  36.9696721  20.2510209
  80.4246417  41.5023479  14.7817218  79.7892250  41.5758105  15.4938122
  80.0943823  42.0917078  14.1036297  85.6544767  36.0025862  20.9861539
  86.3869939  35.4325079  21.2199369  84.8984122  35.6147462  21.4268045
  74.9289345  38.9642956  14.4778193  74.8125604  38.2887860  15.1459277
  75.0391605  38.4775330  13.6610346  77.2720886  38.4253103  18.1824882
  76.9079094  37.8983724  18.8937803  78.1288002  38.0351572  18.0091367
  83.1770187  29.7147436  25.4456148  82.8453512  30.5842847  25.2217363
  82.5815800  29.3983720  26.1250178  76.9126373  33.4543003  13.1786230
  77.0800776  34.3223239  13.5456701  76.7223542  33.6170285  12.2547520
  73.1214188  38.3673779  20.8788765  72.1964685  38.2349993  21.0866457
  73.3698601  39.1467998  21.3758708  83.0698850  34.4342522  22.5249498
  82.1615728  34.3657930  22.2308259  83.0186446  34.9114467  23.3531324
  76.8915594  35.9100660  14.1632897  76.7715219  36.3557711  15.0018378
  76.1968183  36.2585978  13.6046435  70.4822999  38.0107052  21.7132554
  70.6115380  38.2641531  22.6271966  69.8020450  38.6034760  21.3937209
  74.6522486  48.6804302  17.8123028  74.5746516  49.6312127  17.8911509
  74.0484130  48.3350175  18.4697955  84.9360497  32.6358960  24.3027372
  84.2934877  32.9291494  23.6567167  84.4315425  32.5211881  25.1080569
  82.5900660  36.3822134  14.9913231  83.5018517  36.6149520  14.8160929
  82.0810307  36.9659178  14.4288310  85.0759475  42.3002390  19.7371177
  84.3910513  42.6801291  19.1868210  85.1603324  42.9097717  20.4703124
  79.9336635  32.5580170  23.2403092  79.0721114  32.8561423  23.5319830
  79.9599070  32.7750568  22.3084125  76.7498205  41.1022360  19.6476898
  77.2136550  41.3810063  18.8581520  76.4855003  40.2005805  19.4649989
  73.6422286  40.6493842  22.5856661  74.2123643  41.0781110  21.9474146
  74.2330398  40.3676426  23.2840847  75.6867091  37.2245513  16.4566463
  76.3891134  37.6766556  16.9240389  75.3547719  36.5829331  17.0846356
  69.4292425  35.4829065  21.7583597  68.6391479  35.7386594  21.2823707
  69.9203672  36.2977403  21.8635637  71.3807170  35.8473644  18.7167073
  70.5838333  35.9592339  19.2350569  71.1532762  36.1860297  17.8507964
  67.7130128  35.7359556  24.1898587  67.9638166  36.6206566  24.4556163
  68.2489676  35.5564157  23.4173679  91.5362227  39.1673053  20.8573849
  90.7825936  38.5980451  20.7017853  91.6709768  39.1335717  21.8044484
  76.9260855  44.0386455  16.5328568  76.7906530  44.8837991  16.9613416
  77.4670668  44.2405733  15.7694502  70.3790253  41.5561893  17.1056493
  70.8914773  42.3505143  17.2562058  71.0312966  40.8588184  17.0390095
  72.1885137  44.6727649  19.1879246  72.3651766  45.5945614  19.0000230
  72.9841971  44.3586069  19.6173626  80.2753319  27.5617017  25.0627462
  79.9317588  28.4518659  24.9866572  80.6432281  27.3718675  24.1997047
  68.3439169  39.8850547  17.8816064  69.1814391  40.2947556  17.6649772
  68.5217437  38.9449990  17.8516258  80.2403602  37.5525628  13.5699897
  79.7250225  38.3230233  13.8088284  79.9680910  36.8790764  14.1932958
  77.8250713  32.3975329  18.6285135  76.9692309  32.0082179  18.4490774
  78.2377664  32.4767290  17.7684921  79.3549859  29.9321672  23.0276695
  78.8514655  29.8951807  22.2144500  79.6480466  30.8414415  23.0873352
  75.5992745  30.0160402  22.0342877  76.4645742  29.8203211  21.6748766
  75.6670254  29.7870754  22.9612233  85.2137876  40.3057983  15.5053070
  84.4367318  39.9669142  15.0608232  85.8929357  40.3110606  14.8308035
  80.0289905  35.4252720  15.3959678  79.7240040  35.7398869  16.2469821
  80.9820347  35.5034140  15.4387011  78.4736337  41.5842944  17.0452632
  77.9457698  40.8495703  16.7325869  77.9723839  42.3617620  16.7992600
  73.2055064  32.2462610  19.4059243  73.7798816  32.0237791  18.6732436
  73.7926047  32.3151304  20.1587845  73.5324651  34.2767071  13.4255129
  72.6961964  34.6141757  13.7464403  73.3929421  34.1416051  12.4882266
  75.5077732  29.1203859  18.1334313  74.8542144  28.8052876  17.5090928
  75.4658206  28.4979599  18.8594136  76.6188937  39.4023154  10.0487605
  75.7115999  39.1712407  10.2478754  77.1159969  38.6060773  10.2361587
  79.5257016  48.1120661  12.9684291  78.8518714  48.4152358  13.5769249
  79.9122838  48.9149741  12.6189748  78.7415472  35.6085792  22.4581961
  77.8238034  35.8300739  22.3003649  79.1575616  35.6832103  21.5993668
  79.5250520  37.0077208  17.5884641  80.2722339  37.5198605  17.2791763
  79.7942110  36.6861261  18.4489034  77.7977170  39.5035749  14.5711595
  76.8888389  39.2194781  14.6684065  77.8272254  39.9234827  13.7114902
  83.0296438  43.1142338  18.3402763  82.5758765  42.2733248  18.3967953
  82.3990404  43.7503737  18.6777543  81.9729357  34.0434324  19.5703430
  81.2352114  33.5311710  19.9013673  82.2256131  33.6034706  18.7586707
  81.4729377  44.9518835  19.2752581  81.7652351  45.5123892  18.5564946
  81.9827997  45.2447396  20.0305740  82.0740985  26.8210576  20.1645199
  82.3799861  25.9607940  19.8771114  82.7993589  27.4128196  19.9644193
  68.3665341  37.2241263  18.5526797  68.1689740  36.6310624  17.8277864
  67.8112005  36.9193473  19.2702736  76.3462064  37.1164369  20.6721390
  76.4010674  36.1638206  20.5963867  75.5353266  37.2723808  21.1562689
  77.4953258  41.0444492  11.9099674  77.0572688  40.3280351  11.4505311
  78.2363699  41.2720607  11.3484765  74.2854424  35.7341429  18.4311769
  73.4722290  36.0335600  18.8376961  74.7813418  35.3397118  19.1486252
  76.4363002  45.7299186  20.3646034  76.3939181  45.9560032  19.4354566
  77.3525701  45.4962561  20.5131835  85.6126373  39.3201689  17.9675992
  85.4744271  39.5103285  17.0397181  85.2562592  40.0821072  18.4244043
  74.5528803  42.6062215  20.1607997  75.3469401  42.1112535  19.9590572
  73.8420495  42.0780078  19.7975702  70.8611566  36.7505297  16.2367749
  69.9309154  36.6889752  16.4537712  70.9569038  36.2281249  15.4404391
  70.7797115  33.2760110  18.8245991  71.0403933  34.1905443  18.7155152
  71.6014288  32.8084552  18.9742604  77.7248231  48.2800333  15.1831370
  77.8999986  47.8088377  15.9976993  77.0381019  48.9066100  15.4112631
  78.6805294  42.5572840  21.2294672  78.3455127  42.5173610  22.1252321
  78.1809240  41.8917556  20.7565082  81.6164486  39.9028874  11.5031731
  80.9993656  39.1775702  11.4064784  81.1480974  40.6638234  11.1598805
  72.2909316  51.4289696  21.9571230  72.5305914  52.0608220  22.6350249
  71.4478513  51.0777736  22.2436590  73.4063032  34.1214298  10.6253036
  72.5292498  34.0003099  10.2615282  73.8820785  33.3300377  10.3731924
  64.9265172  38.9091458  20.7194543  65.6136212  38.5953188  20.1315558
  64.7713300  39.8132823  20.4461794  69.7299894  33.7981655  25.1479566
  69.6458083  33.1907324  24.4129976  68.9082600  34.2890673  25.1489063
  76.8037178  47.2368819  24.3612734  76.7307349  48.0423790  24.8732039
  76.3614571  47.4360784  23.5360756  76.5926958  46.4740589  17.8715556
  75.8094479  47.0162269  17.9653781  77.2919703  46.9914568  18.2709797
  79.9023608  32.2835218  20.5149761  80.3992307  31.5305180  20.1950832
  79.1310589  32.3199535  19.9492971  87.7553365  37.9875584  22.1568053
  87.7443241  38.8700299  21.7861986  86.8870745  37.6347134  21.9622590
  80.9853388  41.0406905  18.0888185  80.0509667  41.1608368  17.9192889
  81.1630057  40.1379372  17.8248195  76.4858576  34.4252601  20.2421446
  76.1156364  33.8723641  20.9302352  76.9817669  33.8210735  19.6896446
  84.3725940  36.8824225  18.6238219  84.8386392  37.7152216  18.5498522
  84.8233440  36.4169206  19.3283477  82.4402171  43.2268046  15.6224371
  82.7162015  43.1124640  16.5318245  81.5706670  42.8285531  15.5836544
  82.3442602  29.2504812  22.6629120  81.4305682  29.4809038  22.8311327
  82.7735704  29.3343256  23.5143153  79.0756235  47.4754397  19.2657185
  79.2578629  46.6576053  19.7284937  79.8989221  47.6922089  18.8282075
  79.4098400  46.4022582  16.5272233  79.9386167  45.8915036  15.9142395
  79.6726620  46.0865112  17.3917766  72.7654148  47.4537699  19.2870009
  72.0964524  47.9383826  18.8034049  72.6267018  47.7006919  20.2013388
  64.5033148  36.9892051  22.9912010  64.5417247  36.4555642  23.7849128
  63.9973441  36.4627257  22.3722987  71.8823910  31.8356592  26.4874552
  71.9465237  32.6971423  26.0751950  71.8191030  31.2230594  25.7546911
  68.1341725  35.7156154  16.0665941  68.4295166  34.8066832  16.0132995
  67.2329761  35.6943893  15.7446944  71.6635972  33.7912150  22.0493490
  70.9422558  34.4048118  21.9100963  72.4529228  34.3269915  21.9710136
  69.8629567  33.3970251  16.1905266  69.5342273  32.5167630  16.0080372
  70.2168938  33.3417920  17.0781656  79.1109146  45.0325154  20.7000252
  78.9634108  44.1041861  20.8807822  79.9362639  45.0545245  20.2157327
  72.9771390  33.6843221  16.5580744  73.3167463  34.2129142  15.8359352
  73.4243511  34.0223627  17.3339311  82.7143268  45.8553713  21.7865125
  83.6389815  45.6496574  21.6489576  82.5458571  45.6070114  22.6954466
  76.3231303  29.1529584  24.4611135  77.1457372  28.6790062  24.3390025
  76.5669366  29.9320068  24.9609821  74.9639537  32.1817843  14.7574037
  75.6847900  32.5599095  14.2537754  74.3404841  32.9006719  14.8609015
  79.1070660  32.8862992  15.6932369  79.3234275  33.7687629  15.3921197
  78.6264727  32.4949205  14.9638011  73.8469882  35.8448705  22.2703114
  73.7014462  36.1589008  23.1627395  73.3695085  36.4633605  21.7174012
  75.7066264  32.8351253  22.3184003  75.6927833  31.9392346  21.9816301
  76.4238693  32.8421917  22.9522289  82.5038584  46.3739380  17.1427216
  82.6775461  45.8085803  16.3901069  82.9967475  47.1740275  16.9606706
  75.1103160  31.7165633  17.5871573  75.2319072  30.7882279  17.7862461
  74.8205203  31.7304319  16.6749889  77.9794351  29.4020543  20.7238293
  78.0016048  29.4659877  19.7690273  78.3962410  28.5625052  20.9178799
  88.3577975  39.1375803  18.7617516  88.8009121  38.3883128  18.3636639
  87.4804485  39.1285939  18.3791248  83.4913756  45.6906144  14.2424114
  84.1864661  46.3112837  14.4611429  83.8336907  44.8401496  14.5176492
  85.3905179  43.1405850  15.7711445  85.9156504  43.4793123  15.0460765
  85.3027532  42.2052865  15.5874580  77.0745840  49.2077833  20.1306698
  76.6350831  48.7154212  20.8239555  77.8253957  48.6650801  19.8898774
  69.5538179  45.3989374  20.1331326  70.3796199  45.0993146  19.7529970
  69.2032231  44.6296997  20.5821115  74.5219712  44.7515842  22.2029000
  73.8999722  44.0886547  21.9031228  75.1924579  44.7776974  21.5202648
  67.7546784  43.3175701  21.0920260  66.9178693  42.8897875  20.9104261
  67.7270430  43.5108144  22.0291051  74.0833219  43.3019766  15.6787461
  74.2321340  43.9855230  15.0254133  74.8899663  43.2824856  16.1936916
  87.9010840  40.6081041  21.1539963  88.7357731  41.0470845  21.3177524
  88.0369969  40.1319695  20.3348209  71.8385852  39.3284943  16.6848529
  71.5931894  38.4247273  16.8828740  72.0081767  39.3302094  15.7428007
  79.5282562  30.2008620  26.0673285  80.0464506  30.9369647  25.7419774
  79.1737695  30.5072613  26.9020044  71.1081500  35.0613301  14.1834691
  70.4150745  35.1357656  13.5274727  70.8633252  34.2973645  14.7056208
  79.7795156  26.6208902  21.5874182  80.0596910  25.9532091  22.2134608
  80.5645763  26.8137998  21.0748845  77.5828625  45.7967896  13.1499208
  77.0102592  46.4158083  12.6969680  78.1561418  46.3467258  13.6839130
  80.8025885  46.0805046  14.2807790  81.7356558  46.0150608  14.4840666
  80.7149097  46.9161313  13.8222323  83.4313901  45.3970917  11.2411738
  83.3527533  45.0630780  12.1347496  84.2523568  45.8892685  11.2403210
  77.9675423  37.1328709  10.4915260  78.9134528  37.0034917  10.5603678
  77.5889668  36.3943371  10.9684689  83.9397308  28.7984715  20.4542152
  83.7422129  28.4899803  21.3385484  84.5497013  29.5246354  20.5840082
  91.9468642  39.3248663  23.5894093  92.6772031  39.0633951  24.1501797
  91.3375588  38.5877385  23.6296161  90.0283939  37.4656525  24.1868544
  89.3017103  37.3312490  23.5785036  89.6131226  37.7733354  24.9925262
  76.1518340  35.0578685  10.4270146  75.2449796  34.7611798  10.5032859
  76.4294321  34.7608503   9.5604432  67.0696281  36.3785049  20.8769192
  66.7499065  35.5250357  20.5843566  66.5229709  36.5933627  21.6327159
  77.7680406  29.6015575  16.5814387  76.9581135  29.2562660  16.9569633
  78.4564823  29.2923119  17.1701999  79.6970954  28.6793622  18.2038684
  80.2501993  29.0989075  18.8628707  79.9341041  27.7529370  18.2461640
  74.9217125  31.9165621  10.5682125  75.7836289  32.2420519  10.8277942
  75.1067469  31.1297116  10.0555191  66.9384541  39.9987960  22.8462314
  66.2448012  39.5841913  22.3332268  67.6857532  40.0408497  22.2495733
  83.0749762  30.7894147  17.7117348  82.4948431  31.4478951  17.3295400
  82.8085694  29.9671492  17.3004765  81.5253328  30.1899205  19.9138668
  82.0253106  30.3015739  19.1052987  82.1688936  29.8860258  20.5539477
  68.8521283  39.9306214  20.7228329  68.8291971  40.0293901  19.7710212
  69.1621920  40.7771365  21.0445495  81.8574640  32.9494237  16.7673696
  80.9700495  33.2343888  16.5493891  82.2728629  32.7888001  15.9200973
  85.2089176  32.9740758  20.4828035  85.9849566  33.4637211  20.7552652
  84.4837310  33.3998813  20.9399905  87.6461734  33.6868378  21.5401976
  88.2406225  33.4464114  20.8295284  87.7188318  32.9675508  22.1675512
  69.8658890  47.5301989  21.8545141  69.7313358  46.7702389  21.2883139
  69.4490952  48.2542888  21.3873930  81.0017853  42.7138912  10.8621716
  81.7053703  42.9188915  11.4779372  80.2780502  43.2815674  11.1270800
  81.8315663  38.4648773  16.9823986  81.7750865  38.9217325  16.1431619
  82.3844006  37.7039458  16.8046829  85.6420469  34.2538505  17.8074106
  85.3857403  33.8535141  18.6382313  85.0173337  34.9682299  17.6824245
  89.9532807  36.9934578  20.3145397  89.3932365  37.0627768  21.0876959
  89.3476310  36.8175563  19.5944893  73.0228016  48.4271306  22.0663583
  72.9060400  49.3716738  21.9642274  72.2020462  48.1244867  22.4549383
  82.9104550  43.1521441  12.9120176  83.7450154  42.7202640  12.7297651
  82.7488893  42.9803455  13.8397071  82.5650443  39.6553555  14.2776515
  82.5099246  39.4897826  13.3364960  81.9396498  40.3629587  14.4338705
  75.8746568  29.1561664  13.8561834  75.8625238  30.1003503  14.0130105
  76.7669990  28.9731809  13.5621295  75.8036132  47.8330554  21.9429591
  74.8531763  47.8332416  21.8293963  76.1068618  47.0863289  21.4265625
  79.6898688  25.7504440  18.1107771  78.9231083  25.1962927  18.2564453
  80.1009393  25.8226309  18.9721922  84.2065348  55.4753997  18.9333769
  83.6430213  55.3843934  18.1650056  84.0917743  54.6553901  19.4136261
  81.7529779  56.9705188  21.7717989  82.5451071  56.6296013  21.3564288
  81.9926430  57.0800164  22.6920142  89.7864906  59.1424965  14.2448233
  89.1352886  59.7279045  13.8582247  90.5809269  59.6731159  14.3043271
  83.7120533  56.2314102  14.6435368  84.4851409  55.6843089  14.5048244
  84.0645932  57.0958351  14.8549829  86.0486811  52.3906768  12.2753818
  86.3012332  51.8688289  11.5137281  85.1111370  52.2272913  12.3780501
  91.0930094  51.3942546  20.0828561  91.8793183  50.9761969  19.7318978
  91.3568798  52.2988638  20.2510209  91.2640171  56.8315397  14.7817218
  90.6286004  56.9050023  15.4938122  90.9337578  57.4208995  14.1036297
  96.4938521  51.3317779  20.9861539  97.2263693  50.7616996  21.2199369
  95.7377877  50.9439380  21.4268045  85.7683100  54.2934874  14.4778193
  85.6519358  53.6179777  15.1459277  85.8785360  53.8067248  13.6610346
  88.1114641  53.7545021  18.1824882  87.7472848  53.2275642  18.8937803
  88.9681757  53.3643490  18.0091367  94.0163942  45.0439354  25.4456148
  93.6847266  45.9134764  25.2217363  93.4209555  44.7275638  26.1250178
  87.7520128  48.7834921  13.1786230  87.9194530  49.6515157  13.5456701
  87.5617297  48.9462202  12.2547520  83.9607943  53.6965696  20.8788765
  83.0358439  53.5641910  21.0866457  84.2092356  54.4759916  21.3758708
  93.9092605  49.7634440  22.5249498  93.0009482  49.6949848  22.2308259
  93.8580201  50.2406385  23.3531324  87.7309349  51.2392578  14.1632897
  87.6108974  51.6849629  15.0018378  87.0361937  51.5877896  13.6046435
  81.3216754  53.3398970  21.7132554  81.4509135  53.5933449  22.6271966
  80.6414205  53.9326678  21.3937209  85.4916241  64.0096220  17.8123028
  85.4140271  64.9604045  17.8911509  84.8877884  63.6642092  18.4697955
  95.7754251  47.9650878  24.3027372  95.1328631  48.2583411  23.6567167
  95.2709180  47.8503798  25.1080569  93.4294415  51.7114051  14.9913231
  94.3412271  51.9441438  14.8160929  92.9204062  52.2951095  14.4288310
  95.9153229  57.6294308  19.7371177  95.2304267  58.0093209  19.1868210
  95.9997078  58.2389634  20.4703124  91.2165698  48.7315654  27.6589254
  90.9726630  49.4857715  27.1223530  91.4925628  49.1101002  28.4936502
  90.7730390  47.8872087  23.2403092  89.9114869  48.1853341  23.5319830
  90.7992824  48.1042486  22.3084125  87.5891959  56.4314278  19.6476898
  88.0530305  56.7101981  18.8581520  87.3248757  55.5297722  19.4649989
  86.5260845  52.5537430  16.4566463  87.2284888  53.0058474  16.9240389
  86.1941474  51.9121249  17.0846356  80.2686179  50.8120983  21.7583597
  79.4785233  51.0678511  21.2823707  80.7597426  51.6269321  21.8635637
  82.2200924  51.1765562  18.7167073  81.4232088  51.2884256  19.2350569
  81.9926517  51.5152214  17.8507964 102.3755982  54.4964971  20.8573849
 101.6219690  53.9272369  20.7017853 102.5103523  54.4627635  21.8044484
  87.7654610  59.3678373  16.5328568  87.6300285  60.2129909  16.9613416
  88.3064422  59.5697650  15.7694502  81.2184007  56.8853811  17.1056493
  81.7308528  57.6797061  17.2562058  81.8706720  56.1880101  17.0390095
  83.0278892  60.0019567  19.1879246  83.2045520  60.9237532  19.0000230
  83.8235725  59.6877986  19.6173626  91.1147073  42.8908935  25.0627462
  90.7711343  43.7810576  24.9866572  91.4826036  42.7010592  24.1997047
  79.1832924  55.2142465  17.8816064  80.0208146  55.6239474  17.6649772
  79.3611192  54.2741907  17.8516258  91.0797356  52.8817546  13.5699897
  90.5643979  53.6522150  13.8088284  90.8074665  52.2082682  14.1932958
  88.6644467  47.7267247  18.6285135  87.8086063  47.3374097  18.4490774
  89.0771419  47.8059207  17.7684921  90.1943614  45.2613590  23.0276695
  89.6908409  45.2243725  22.2144500  90.4874221  46.1706333  23.0873352
  86.4386500  45.3452320  22.0342877  87.3039496  45.1495128  21.6748766
  86.5064009  45.1162671  22.9612233  96.0531630  55.6349900  15.5053070
  95.2761073  55.2961060  15.0608232  96.7323111  55.6402524  14.8308035
  90.8683659  50.7544638  15.3959678  90.5633795  51.0690787  16.2469821
  91.8214101  50.8326058  15.4387011  89.3130091  56.9134861  17.0452632
  88.7851453  56.1787621  16.7325869  88.8117594  57.6909538  16.7992600
  94.2922937  55.1083882  22.1619678  93.6346612  55.7983143  22.2499807
  95.0963336  55.4980314  22.5053665  84.0448819  47.5754528  19.4059243
  84.6192571  47.3529709  18.6732436  84.6319801  47.6443222  20.1587845
  93.1028396  53.4628254  20.2123620  93.6160278  54.0958246  20.7145330
  93.7529620  52.8629450  19.8466980  84.3718406  49.6058989  13.4255129
  83.5355718  49.9433675  13.7464403  84.2323175  49.4707968  12.4882266
  86.3471486  44.4495776  18.1334313  85.6935899  44.1344794  17.5090928
  86.3051961  43.8271517  18.8594136  87.4582691  54.7315071  10.0487605
  86.5509753  54.5004325  10.2478754  87.9553723  53.9352691  10.2361587
  90.3650770  63.4412579  12.9684291  89.6912469  63.7444275  13.5769249
  90.7516592  64.2441659  12.6189748  90.3644275  52.3369126  17.5884641
  91.1116093  52.8490523  17.2791763  90.6335864  52.0153178  18.4489034
  88.6370925  54.8327666  14.5711595  87.7282144  54.5486699  14.6684065
  88.6666009  55.2526745  13.7114902  93.8690192  58.4434256  18.3402763
  93.4152519  57.6025166  18.3967953  93.2384159  59.0795654  18.6777543
  92.8123112  49.3726242  19.5703430  92.0745868  48.8603628  19.9013673
  93.0649885  48.9326623  18.7586707  92.3123131  60.2810753  19.2752581
  92.6046106  60.8415810  18.5564946  92.8221752  60.5739314  20.0305740
  92.9134739  42.1502494  20.1645199  93.2193616  41.2899857  19.8771114
  93.6387344  42.7420114  19.9644193  79.2059095  52.5533180  18.5526797
  79.0083495  51.9602541  17.8277864  78.6505759  52.2485391  19.2702736
  88.3347013  56.3736410  11.9099674  87.8966442  55.6572269  11.4505311
  89.0757453  56.6012525  11.3484765  85.1248179  51.0633347  18.4311769
  84.3116044  51.3627517  18.8376961  85.6207173  50.6689035  19.1486252
  87.2756757  61.0591104  20.3646034  87.2332935  61.2851950  19.4354566
  88.1919455  60.8254478  20.5131835  96.4520127  54.6493607  17.9675992
  96.3138026  54.8395203  17.0397181  96.0956346  55.4112990  18.4244043
  96.4789507  56.7170134  22.9787264  96.9126014  56.6245423  23.8270318
  97.1921088  56.6927635  22.3407280  85.3922557  57.9354133  20.1607997
  86.1863156  57.4404453  19.9590572  84.6814250  57.4071996  19.7975702
  81.7005321  52.0797214  16.2367749  80.7702909  52.0181670  16.4537712
  81.7962793  51.5573167  15.4404391  81.6190870  48.6052027  18.8245991
  81.8797687  49.5197360  18.7155152  82.4408042  48.1376470  18.9742604
  97.3405056  56.7593835  25.5120149  97.5340947  57.6639645  25.7579424
  97.2405675  56.3001254  26.3458734  88.5641985  63.6092251  15.1831370
  88.7393741  63.1380294  15.9976993  87.8774773  64.2358017  15.4112631
  89.5199048  57.8864757  21.2294672  89.1848881  57.8465527  22.1252321
  89.0202994  57.2209473  20.7565082  92.4558240  55.2320792  11.5031731
  91.8387411  54.5067620  11.4064784  91.9874729  55.9930152  11.1598805
  83.1303071  66.7581614  21.9571230  83.3699669  67.3900138  22.6350249
  82.2872267  66.4069654  22.2436590  84.2456786  49.4506216  10.6253036
  83.3686252  49.3295017  10.2615282  84.7214539  48.6592294  10.3731924
  75.7658926  54.2383376  20.7194543  76.4529966  53.9245106  20.1315558
  75.6107055  55.1424740  20.4461794  87.4320712  61.8032506  17.8715556
  86.6488234  62.3454187  17.9653781  88.1313457  62.3206486  18.2709797
  90.7417362  47.6127136  20.5149761  91.2386062  46.8597098  20.1950832
  89.9704344  47.6491452  19.9492971  98.5947120  53.3167501  22.1568053
  98.5836996  54.1992217  21.7861986  97.7264499  52.9639052  21.9622590
  91.8247143  56.3698823  18.0888185  90.8903422  56.4900285  17.9192889
  92.0023811  55.4671290  17.8248195  95.2119694  52.2116142  18.6238219
  95.6780146  53.0444134  18.5498522  95.6627195  51.7461124  19.3283477
  93.2795925  58.5559964  15.6224371  93.5555769  58.4416558  16.5318245
  92.4100424  58.1577448  15.5836544  93.1836357  44.5796729  22.6629120
  92.2699437  44.8100956  22.8311327  93.6129458  44.6635173  23.5143153
  92.9542815  52.7686621  25.1629014  92.3014266  53.0162529  24.5081467
  93.3323195  51.9550759  24.8291492  89.9149989  62.8046314  19.2657185
  90.0972384  61.9867970  19.7284937  90.7382975  63.0214007  18.8282075
  90.2492155  61.7314500  16.5272233  90.7779921  61.2206954  15.9142395
  90.5120374  61.4157030  17.3917766  83.6047903  62.7829616  19.2870009
  82.9358278  63.2675744  18.8034049  83.4660772  63.0298837  20.2013388
  75.3426902  52.3183969  22.9912010  75.3811002  51.7847560  23.7849128
  74.8367195  51.7919175  22.3722987  78.9735480  51.0448071  16.0665941
  79.2688921  50.1358750  16.0132995  78.0723516  51.0235811  15.7446944
  90.8821559  62.7655335  22.8716350  90.7572698  61.9645075  22.3627295
  91.5400650  63.2601529  22.3830320  82.5029727  49.1204068  22.0493490
  81.7816313  49.7340035  21.9100963  83.2922983  49.6561833  21.9710136
  92.9456467  60.5664355  24.4995900  91.9986803  60.4469707  24.4274226
  93.2939240  59.6786853  24.5822161  80.7023321  48.7262169  16.1905266
  80.3736028  47.8459548  16.0080372  81.0562692  48.6709838  17.0781656
  89.9502900  60.3617072  20.7000252  89.8027863  59.4333779  20.8807822
  90.7756394  60.3837162  20.2157327  83.8165145  49.0135139  16.5580744
  84.1561217  49.5421060  15.8359352  84.2637265  49.3515545  17.3339311
  93.5537022  61.1845630  21.7865125  94.4783570  60.9788492  21.6489576
  93.3852326  60.9362031  22.6954466  85.8033292  47.5109760  14.7574037
  86.5241654  47.8891013  14.2537754  85.1798596  48.2298637  14.8609015
  89.9464415  48.2154909  15.6932369  90.1628029  49.0979547  15.3921197
  89.4658482  47.8241123  14.9638011  84.6863636  51.1740622  22.2703114
  84.5408217  51.4880926  23.1627395  84.2088840  51.7925523  21.7174012
  86.5460019  48.1643170  22.3184003  86.5321588  47.2684264  21.9816301
  87.2632447  48.1713834  22.9522289  88.3986150  48.5980511  24.3637131
  88.1403927  49.5197581  24.3621461  87.8671190  48.2010945  25.0537595
  93.3432338  61.7031298  17.1427216  93.5169216  61.1377720  16.3901069
  93.8361230  62.5032193  16.9606706  85.9496915  47.0457551  17.5871573
  86.0712826  46.1174197  17.7862461  85.6598957  47.0596237  16.6749889
  88.8188105  44.7312461  20.7238293  88.8409802  44.7951794  19.7690273
  89.2356164  43.8916970  20.9178799  99.1971730  54.4667721  18.7617516
  99.6402876  53.7175046  18.3636639  98.3198240  54.4577857  18.3791248
  94.3307511  61.0198062  14.2424114  95.0258415  61.6404755  14.4611429
  94.6730661  60.1693413  14.5176492  96.2298934  58.4697768  15.7711445
  96.7550258  58.8085040  15.0460765  96.1421287  57.5344783  15.5874580
  87.9139595  64.5369751  20.1306698  87.4744585  64.0446130  20.8239555
  88.6647712  63.9942719  19.8898774  80.3931934  60.7281292  20.1331326
  81.2189954  60.4285064  19.7529970  80.0425986  59.9588914  20.5821115
  78.5940539  58.6467618  21.0920260  77.7572447  58.2189793  20.9104261
  78.5664184  58.8400062  22.0291051  96.0390715  55.9523138  28.3895372
  96.0888720  55.7873145  29.3310894  95.9304638  55.0850397  27.9993252
  84.9226974  58.6311683  15.6787461  85.0715094  59.3147148  15.0254133
  85.7293417  58.6116773  16.1936916  98.7404594  55.9372959  21.1539963
  99.5751486  56.3762763  21.3177524  98.8763723  55.4611612  20.3348209
  95.7896100  53.4952694  27.1017451  96.2650222  53.6880340  26.2936303
  94.8661666  53.5511880  26.8560835  82.6779607  54.6576861  16.6848529
  82.4325649  53.7539191  16.8828740  82.8475521  54.6594011  15.7428007
  90.3676317  45.5300537  26.0673285  90.8858261  46.2661564  25.7419774
  90.0131449  45.8364531  26.9020044  81.9475254  50.3905219  14.1834691
  81.2544499  50.4649574  13.5274727  81.7027006  49.6265562  14.7056208
  90.6188911  41.9500820  21.5874182  90.8990665  41.2824009  22.2134608
  91.4039518  42.1429916  21.0748845  88.4222379  61.1259814  13.1499208
  87.8496346  61.7450001  12.6969680  88.9955173  61.6759176  13.6839130
  94.4897769  50.3718454  25.3345757  95.4415192  50.4716552  25.3557981
  94.3201220  49.5796722  25.8443841  92.5112149  47.4574037  25.5205158
  91.9162081  47.7379050  24.8251646  92.2261845  47.9467938  26.2921899
  91.6419639  61.4096964  14.2807790  92.5750312  61.3442526  14.4840666
  91.5542852  62.2453231  13.8222323  94.2707656  60.7262834  11.2411738
  94.1921287  60.3922698  12.1347496  95.0917323  61.2184602  11.2403210
  96.9685847  53.5924574  24.4488056  96.9362167  52.6540574  24.6347740
  97.5786471  53.6708610  23.7153881  88.8069178  52.4620627  10.4915260
  89.7528283  52.3326835  10.5603678  88.4283423  51.7235289  10.9684689
  97.1180335  50.3835617  24.4946340  96.6019384  49.5994074  24.3076268
  98.0020284  50.0554334  24.6592859  94.7791062  44.1276633  20.4542152
  94.5815883  43.8191721  21.3385484  95.3890768  44.8538272  20.5840082
 102.7862397  54.6540580  23.5894093 103.5165785  54.3925869  24.1501797
 102.1769342  53.9169302  23.6296161 100.8677694  52.7948443  24.1868544
 100.1410858  52.6604408  23.5785036 100.4524981  53.1025272  24.9925262
  86.9912095  50.3870603  10.4270146  86.0843550  50.0903716  10.5032859
  87.2688076  50.0900421   9.5604432  77.9090035  51.7076966  20.8769192
  77.5892820  50.8542275  20.5843566  77.3623464  51.9225545  21.6327159
  88.6074161  44.9307493  16.5814387  87.7974889  44.5854578  16.9569633
  89.2958578  44.6215036  17.1701999  90.5364709  44.0085540  18.2038684
  91.0895748  44.4280993  18.8628707  90.7734795  43.0821288  18.2461640
  85.7610880  47.2457538  10.5682125  86.6230044  47.5712437  10.8277942
  85.9461224  46.4589034  10.0555191  77.7778295  55.3279878  22.8462314
  77.0841767  54.9133831  22.3332268  78.5251286  55.3700414  22.2495733
  93.9143516  46.1186065  17.7117348  93.3342185  46.7770869  17.3295400
  93.6479449  45.2963409  17.3004765  92.3647082  45.5191122  19.9138668
  92.8646861  45.6307657  19.1052987  93.0082690  45.2152175  20.5539477
  79.6915038  55.2598132  20.7228329  79.6685726  55.3585819  19.7710212
  80.0015674  56.1063282  21.0445495  92.6968394  48.2786155  16.7673696
  91.8094249  48.5635806  16.5493891  93.1122383  48.1179918  15.9200973
  96.0482930  48.3032676  20.4828035  96.8243320  48.7929128  20.7552652
  95.3231064  48.7290730  20.9399905  98.4855489  49.0160295  21.5401976
  99.0799980  48.7756031  20.8295284  98.5582073  48.2967426  22.1675512
  80.7052645  62.8593906  21.8545141  80.5707112  62.0994307  21.2883139
  80.2884707  63.5834806  21.3873930  91.8411608  58.0430830  10.8621716
  92.5447458  58.2480832  11.4779372  91.1174256  58.6107592  11.1270800
  92.6709418  53.7940691  16.9823986  92.6144619  54.2509242  16.1431619
  93.2237760  53.0331376  16.8046829  96.4814224  49.5830423  17.8074106
  96.2251158  49.1827059  18.6382313  95.8567092  50.2974217  17.6824245
 100.7926562  52.3226496  20.3145397 100.2326120  52.3919685  21.0876959
 100.1870065  52.1467481  19.5944893  83.8621770  63.7563223  22.0663583
  83.7454155  64.7008656  21.9642274  83.0414217  63.4536785  22.4549383
  93.7498305  58.4813359  12.9120176  94.5843909  58.0494557  12.7297651
  93.5882648  58.3095373  13.8397071  93.4044197  54.9845472  14.2776515
  93.3493001  54.8189744  13.3364960  92.7790252  55.6921505  14.4338705
  86.7140323  44.4853581  13.8561834  86.7018992  45.4295421  14.0130105
  87.6063744  44.3023727  13.5621295  90.5292442  41.0796358  18.1107771
  89.7624838  40.5254845  18.2564453  90.9403147  41.1518227  18.9721922
 102.3782580  68.9983010  23.0075353 103.0160990  68.8789757  22.3038693
 102.2603423  69.9463854  23.0663305  99.1872286  68.9510438  22.9436878
  98.8490798  68.8351503  22.0557412 100.0562055  68.5501603  22.9237884
  95.0459102  70.8045915  18.9333769  94.4823967  70.7135851  18.1650056
  94.9311497  69.9845819  19.4136261  99.6692069  70.1045290  28.9023083
  99.6580710  69.7098088  28.0303587  99.8312709  69.3711362  29.4956855
  92.5923534  72.2997106  21.7717989  93.3844826  71.9587931  21.3564288
  92.8320184  72.4092081  22.6920142 100.6258661  74.4716882  14.2448233
  99.9746641  75.0570963  13.8582247 101.4203024  75.0023077  14.3043271
  94.5514288  71.5606019  14.6435368  95.3245164  71.0135006  14.5048244
  94.9039687  72.4250269  14.8549829  96.3899330  72.8882402  27.8502267
  96.0989196  73.7928033  27.7348933  97.0256315  72.9298929  28.5646337
  97.3155537  70.2659250  24.4403627  97.9119110  70.0415273  23.7260590
  97.3730509  69.5243996  25.0429075  96.8880566  67.7198686  12.2753818
  97.1406086  67.1980207  11.5137281  95.9505125  67.5564831  12.3780501
 101.9323849  66.7234464  20.0828561 102.7186938  66.3053887  19.7318978
 102.1962553  67.6280556  20.2510209 102.1033926  72.1607314  14.7817218
 101.4679759  72.2341941  15.4938122 101.7731332  72.7500913  14.1036297
 107.3332276  66.6609697  20.9861539 108.0657448  66.0908914  21.2199369
 106.5771631  66.2731298  21.4268045  96.6076854  69.6226791  14.4778193
  96.4913113  68.9471695  15.1459277  96.7179114  69.1359165  13.6610346
  98.9508395  69.0836939  18.1824882  98.5866603  68.5567560  18.8937803
  99.8075511  68.6935408  18.0091367 104.8557696  60.3731271  25.4456148
 104.5241021  61.2426682  25.2217363 104.2603309  60.0567555  26.1250178
  98.5913882  64.1126838  13.1786230  98.7588285  64.9807075  13.5456701
  98.4011051  64.2754120  12.2547520 101.3489216  72.5743817  24.8452061
 101.0489939  73.4768856  24.7367868 101.0040275  72.3076000  25.6973214
  94.8001697  69.0257614  20.8788765  93.8752194  68.8933828  21.0866457
  95.0486110  69.8051833  21.3758708 104.7486359  65.0926357  22.5249498
 103.8403237  65.0241766  22.2308259 104.6973955  65.5698302  23.3531324
  98.5703103  66.5684496  14.1632897  98.4502728  67.0141547  15.0018378
  97.8755692  66.9169813  13.6046435  92.1610508  68.6690888  21.7132554
  92.2902889  68.9225367  22.6271966  91.4807959  69.2618596  21.3937209
  96.3309995  79.3388138  17.8123028  96.2534025  80.2895963  17.8911509
  95.7271639  78.9934010  18.4697955 106.6148006  63.2942796  24.3027372
 105.9722386  63.5875329  23.6567167 106.1102934  63.1795716  25.1080569
 104.2688169  67.0405969  14.9913231 105.1806026  67.2733356  14.8160929
 103.7597816  67.6243013  14.4288310  97.0773597  69.3201456  30.0302362
  97.8188282  69.8586500  29.7537186  96.3710583  69.9467745  30.1873914
 102.5528937  71.4630597  28.6274524 102.9612293  71.0213007  27.8829156
 101.8306199  70.8883224  28.8808717  98.9060007  66.4003204  26.0008081
  99.7521202  66.8242617  26.1442730  98.8458645  65.7436828  26.6946644
 102.8757752  72.0231787  22.3826813 102.2466614  72.1877502  21.6802881
 102.4883414  72.4373397  23.1537777 106.7546984  72.9586225  19.7371177
 106.0698022  73.3385127  19.1868210 106.8390833  73.5681552  20.4703124
 102.0559452  64.0607572  27.6589254 101.8120384  64.8149632  27.1223530
 102.3319383  64.4392920  28.4936502 104.0097915  70.6046184  26.3366520
 104.2214810  71.2477944  25.6600901 103.9627663  69.7708501  25.8688450
 101.6124144  63.2164005  23.2403092 100.7508623  63.5145259  23.5319830
 101.6386579  63.4334404  22.3084125  98.4285714  71.7606196  19.6476898
  98.8924059  72.0393898  18.8581520  98.1642512  70.8589640  19.4649989
  95.3209795  71.3077677  22.5856661  95.8911152  71.7364945  21.9474146
  95.9117906  71.0260262  23.2840847  97.3654600  67.8829348  16.4566463
  98.0678643  68.3350392  16.9240389  97.0335228  67.2413167  17.0846356
  91.1079934  66.1412901  21.7583597  90.3178988  66.3970429  21.2823707
  91.5991181  66.9561238  21.8635637 105.1243743  73.4818140  24.5088877
 105.9461187  73.0798327  24.2271559 105.1206146  73.3786374  25.4604993
  93.0594679  66.5057480  18.7167073  92.2625842  66.6176174  19.2350569
  92.8320271  66.8444132  17.8507964  98.8900347  73.0302183  26.6649588
  98.9544779  73.4922590  27.5007760  98.1811270  72.3999548  26.7931898
  89.3917637  66.3943391  24.1898587  89.6425675  67.2790401  24.4556163
  89.9277185  66.2147993  23.4173679 113.2149736  69.8256888  20.8573849
 112.4613445  69.2564286  20.7017853 113.3497277  69.7919553  21.8044484
  98.6048364  74.6970290  16.5328568  98.4694039  75.5421826  16.9613416
  99.1458177  74.8989568  15.7694502  92.0577762  72.2145729  17.1056493
  92.5702282  73.0088979  17.2562058  92.7100474  71.5172019  17.0390095
  93.8672646  75.3311485  19.1879246  94.0439275  76.2529450  19.0000230
  94.6629480  75.0169904  19.6173626 100.2316841  75.3193857  30.6628910
  99.7880695  74.5330236  30.3449815 100.8934054  75.5073008  29.9972801
  94.9903962  76.8489659  25.1889589  95.5411387  76.7206722  24.4166583
  94.1515438  77.1484548  24.8384482 102.3298079  75.5996657  28.6910312
 102.3116554  76.4205538  28.1990581 103.2517999  75.4750732  28.9160453
  98.7871133  73.1140786  29.5333820  99.3199470  72.3529075  29.3033128
  98.2585214  72.8214438  30.2757974 101.9540828  58.2200852  25.0627462
 101.6105097  59.1102494  24.9866572 102.3219790  58.0302510  24.1997047
  90.0226678  70.5434383  17.8816064  90.8601900  70.9531391  17.6649772
  90.2004946  69.6033825  17.8516258 101.9191111  68.2109463  13.5699897
 101.4037734  68.9814068  13.8088284 101.6468419  67.5374600  14.1932958
  99.5038222  63.0559164  18.6285135  98.6479818  62.6666015  18.4490774
  99.9165173  63.1351125  17.7684921 101.0337368  60.5905508  23.0276695
 100.5302164  60.5535643  22.2144500 101.3267975  61.4998250  23.0873352
  97.2780254  60.6744237  22.0342877  98.1433251  60.4787046  21.6748766
  97.3457763  60.4454589  22.9612233 106.8925385  70.9641818  15.5053070
 106.1154827  70.6252978  15.0608232 107.5716866  70.9694441  14.8308035
 101.7077414  66.0836556  15.3959678 101.4027549  66.3982705  16.2469821
 102.6607856  66.1617975  15.4387011 100.1523846  72.2426779  17.0452632
  99.6245207  71.5079538  16.7325869  99.6511348  73.0201455  16.7992600
 105.1316692  70.4375799  22.1619678 104.4740366  71.1275061  22.2499807
 105.9357091  70.8272231  22.5053665  94.8842573  62.9046445  19.4059243
  95.4586325  62.6821627  18.6732436  95.4713556  62.9735140  20.1587845
 103.9422150  68.7920172  20.2123620 104.4554032  69.4250164  20.7145330
 104.5923374  68.1921368  19.8466980  95.2112160  64.9350906  13.4255129
  94.3749473  65.2725593  13.7464403  95.0716930  64.7999886  12.4882266
  97.1865241  59.7787694  18.1334313  96.5329653  59.4636711  17.5090928
  97.1445715  59.1563435  18.8594136  98.2976446  70.0606989  10.0487605
  97.3903507  69.8296243  10.2478754  98.7947478  69.2644608  10.2361587
 100.4202981  66.2669628  22.4581961  99.5025543  66.4884575  22.3003649
 100.8363125  66.3415938  21.5993668 101.2038029  67.6661043  17.5884641
 101.9509848  68.1782441  17.2791763 101.4729619  67.3445096  18.4489034
  99.4764679  70.1619584  14.5711595  98.5675898  69.8778617  14.6684065
  99.5059763  70.5818663  13.7114902 104.7083947  73.7726174  18.3402763
 104.2546274  72.9317083  18.3967953 104.0777913  74.4087572  18.6777543
 103.6516866  64.7018160  19.5703430 102.9139623  64.1895546  19.9013673
 103.9043640  64.2618541  18.7586707 103.1516886  75.6102670  19.2752581
 103.4439860  76.1707727  18.5564946 103.6615506  75.9031231  20.0305740
 103.7528493  57.4794412  20.1645199 104.0587370  56.6191775  19.8771114
 104.4781098  58.0712032  19.9644193  90.0452850  67.8825098  18.5526797
  89.8477249  67.2894459  17.8277864  89.4899514  67.5777308  19.2702736
  98.0249573  67.7748205  20.6721390  98.0798183  66.8222041  20.5963867
  97.2140775  67.9307644  21.1562689  99.1740767  71.7028328  11.9099674
  98.7360197  70.9864187  11.4505311  99.9151208  71.9304443  11.3484765
  95.9641933  66.3925264  18.4311769  95.1509799  66.6919435  18.8376961
  96.4600927  65.9980953  19.1486252  98.1150511  76.3883021  20.3646034
  98.0726690  76.6143868  19.4354566  99.0313210  76.1546396  20.5131835
 101.5616145  66.8567089  27.2626663 101.9165533  67.0838562  28.1221129
 102.2088276  67.1885466  26.6403918 107.2913882  69.9785525  17.9675992
 107.1531780  70.1687121  17.0397181 106.9350101  70.7404908  18.4244043
 107.3183261  72.0462052  22.9787264 107.7519768  71.9537341  23.8270318
 108.0314842  72.0219552  22.3407280  96.2316312  73.2646050  20.1607997
  97.0256910  72.7696370  19.9590572  95.5208004  72.7363913  19.7975702
 101.0511156  75.6464146  24.5120364 101.1048179  76.2155082  25.2798080
 100.1825938  75.8166031  24.1474401  92.5399075  67.4089132  16.2367749
  91.6096663  67.3473588  16.4537712  92.6356547  66.8865085  15.4404391
  92.4584624  63.9343945  18.8245991  92.7191442  64.8489278  18.7155152
  93.2801797  63.4668387  18.9742604 108.1798811  72.0885752  25.5120149
 108.3734701  72.9931563  25.7579424 108.0799429  71.6293171  26.3458734
 103.2413920  72.2392495  31.0861030 103.0899426  72.0103047  30.1691113
 103.2318599  73.1963097  31.0992375 100.0099256  69.8124408  26.0707296
 100.9391316  69.9635567  25.8976263  99.5890286  69.9008429  25.2155943
  98.8087588  73.8375072  23.8405834  98.6698674  73.4693857  24.7131772
  98.0202184  74.3522712  23.6689792  99.4035740  78.9384169  15.1831370
  99.5787495  78.4672212  15.9976993  98.7168528  79.5649935  15.4112631
 100.3592803  73.2156675  21.2294672 100.0242636  73.1757445  22.1252321
  99.8596749  72.5501391  20.7565082 103.2951995  70.5612709  11.5031731
 102.6781165  69.8359538  11.4064784 102.8268483  71.3222070  11.1598805
  96.9619348  68.3344264  26.2430932  97.6718966  67.6937457  26.2017551
  96.9188656  68.5857159  27.1657113 104.9506126  75.2711618  29.1637512
 104.8918672  74.5870838  28.4968095 105.3525645  76.0130608  28.7118138
  93.9696825  82.0873532  21.9571230  94.2093423  82.7192056  22.6350249
  93.1266022  81.7361572  22.2436590  95.0850541  64.7798134  10.6253036
  94.2080007  64.6586934  10.2615282  95.5608294  63.9884212  10.3731924
 104.9523534  73.2351202  27.3951491 104.0650312  72.8977123  27.5177890
 105.5222085  72.5034233  27.6320257  86.6052681  69.5675293  20.7194543
  87.2923720  69.2537023  20.1315558  86.4500809  70.4716658  20.4461794
  98.4824687  77.8952654  24.3612734  98.4094858  78.7007625  24.8732039
  98.0402080  78.0944620  23.5360756  98.2714467  77.1324424  17.8715556
  97.4881988  77.6746104  17.9653781  98.9707212  77.6498404  18.2709797
 101.5811117  62.9419053  20.5149761 102.0779816  62.1889016  20.1950832
 100.8098098  62.9783370  19.9492971 109.4340874  68.6459419  22.1568053
 109.4230750  69.5284134  21.7861986 108.5658254  68.2930970  21.9622590
 100.9423370  77.7939488  26.5170893 101.6551343  78.4286953  26.4446795
 100.4513399  77.8903354  25.7010895 102.6640897  71.6990741  18.0888185
 101.7297176  71.8192203  17.9192889 102.8417566  70.7963207  17.8248195
  98.1646085  65.0836436  20.2421446  97.7943873  64.5307477  20.9302352
  98.6605178  64.4794570  19.6896446 106.0513449  67.5408060  18.6238219
 106.5173901  68.3736052  18.5498522 106.5020949  67.0753042  19.3283477
  95.9935284  75.5433931  27.3376464  96.6944743  76.1770414  27.4905858
  95.5230399  75.8848663  26.5772103 104.1189680  73.8851881  15.6224371
 104.3949524  73.7708476  16.5318245 103.2494179  73.4869366  15.5836544
 104.0230111  59.9088647  22.6629120 103.1093191  60.1392874  22.8311327
 104.4523213  59.9927091  23.5143153 103.7936570  68.0978539  25.1629014
 103.1408020  68.3454446  24.5081467 104.1716950  67.2842677  24.8291492
 100.7543744  78.1338232  19.2657185 100.9366138  77.3159888  19.7284937
 101.5776730  78.3505924  18.8282075 101.0885909  77.0606417  16.5272233
 101.6173676  76.5498872  15.9142395 101.3514129  76.7448947  17.3917766
  99.8424143  68.8398350  31.6495051  99.1664780  68.7392479  32.3197427
 100.6651777  68.6837564  32.1131049  91.5903002  75.0770287  24.2707567
  92.1756439  74.3313974  24.4035471  91.3927840  75.3874243  25.1544231
  94.4441657  78.1121534  19.2870009  93.7752033  78.5967662  18.8034049
  94.3054527  78.3590754  20.2013388  86.1820657  67.6475887  22.9912010
  86.2204756  67.1139477  23.7849128  85.6760950  67.1211092  22.3722987
  98.5846926  80.1465277  25.8852667  99.1365234  80.3096899  26.6501753
  98.9253119  80.7369715  25.2132692 103.4357800  74.9726535  31.7401322
 103.9797704  75.5856493  31.2456277 102.8544645  75.5306113  32.2568335
  89.8129234  66.3739989  16.0665941  90.1082675  65.4650667  16.0132995
  88.9117270  66.3527728  15.7446944 101.7215313  78.0947253  22.8716350
 101.5966453  77.2936993  22.3627295 102.3794404  78.5893446  22.3830320
  93.3423481  64.4495985  22.0493490  92.6210067  65.0631953  21.9100963
  94.1316737  64.9853750  21.9710136 103.7850222  75.8956273  24.4995900
 102.8380557  75.7761624  24.4274226 104.1332995  75.0078771  24.5822161
  91.5417076  64.0554087  16.1905266  91.2129782  63.1751465  16.0080372
  91.8956447  64.0001755  17.0781656 100.7896655  75.6908989  20.7000252
 100.6421617  74.7625697  20.8807822 101.6150148  75.7129080  20.2157327
  94.6558899  64.3427056  16.5580744  94.9954972  64.8712978  15.8359352
  95.1031020  64.6807462  17.3339311 104.3930777  76.5137548  21.7865125
 105.3177324  76.3080409  21.6489576 104.2246080  76.2653949  22.6954466
  98.0018812  59.8113419  24.4611135  98.8244881  59.3373898  24.3390025
  98.2456875  60.5903903  24.9609821  96.6427046  62.8401678  14.7574037
  97.3635409  63.2182931  14.2537754  96.0192350  63.5590555  14.8609015
 100.7858169  63.5446827  15.6932369 101.0021784  64.4271465  15.3921197
 100.3052236  63.1533040  14.9638011  95.5257391  66.5032540  22.2703114
  95.3801971  66.8172843  23.1627395  95.0482594  67.1217440  21.7174012
  97.3853773  63.4935088  22.3184003  97.3715342  62.5976181  21.9816301
  98.1026202  63.5005752  22.9522289  99.2379904  63.9272428  24.3637131
  98.9797682  64.8489499  24.3621461  98.7064944  63.5302863  25.0537595
 104.1826093  77.0323215  17.1427216 104.3562970  76.4669638  16.3901069
 104.6754984  77.8324110  16.9606706  90.0003053  69.0437885  25.2090775
  89.4556521  69.8197692  25.3411049  90.8782403  69.3908689  25.0509896
  96.7890669  62.3749468  17.5871573  96.9106581  61.4466115  17.7862461
  96.4992712  62.3888154  16.6749889  99.6581860  60.0604379  20.7238293
  99.6803557  60.1243712  19.7690273 100.0749919  59.2208887  20.9178799
 110.0365484  69.7959638  18.7617516 110.4796630  69.0466964  18.3636639
 109.1591994  69.7869775  18.3791248 105.1701265  76.3489980  14.2424114
 105.8652170  76.9696673  14.4611429 105.5124415  75.4985331  14.5176492
 107.0692688  73.7989685  15.7711445 107.5944013  74.1376958  15.0460765
 106.9815041  72.8636701  15.5874580  98.7312737  77.7123759  27.9001322
  99.0399864  77.4672906  28.7724021  99.5288219  77.9170397  27.4120192
  98.7533349  79.8661669  20.1306698  98.3138340  79.3738047  20.8239555
  99.5041466  79.3234636  19.8898774  91.2325688  76.0573210  20.1331326
  92.0583708  75.7576981  19.7529970  90.8819740  75.2880832  20.5821115
  96.2007221  75.4099678  22.2029000  95.5787231  74.7470383  21.9031228
  96.8712088  75.4360810  21.5202648  89.4334293  73.9759536  21.0920260
  88.5966202  73.5481710  20.9104261  89.4057939  74.1691979  22.0291051
 106.7586595  74.4322589  31.0762643 105.9682138  74.4146728  30.5367142
 106.5219949  74.9710883  31.8311680 106.8784470  71.2815055  28.3895372
 106.9282475  71.1165063  29.3310894 106.7698393  70.4142314  27.9993252
  95.7620728  73.9603601  15.6787461  95.9108849  74.6439065  15.0254133
  96.5687172  73.9408691  16.1936916 104.1688232  67.2645983  29.7054678
 105.0698095  67.1252448  29.4138676 104.2436206  67.4300438  30.6452856
 108.3802666  73.7011997  28.6337393 108.0887475  74.0641977  29.4700854
 107.7674798  72.9879005  28.4550725 109.5798349  71.2664877  21.1539963
 110.4145240  71.7054681  21.3177524 109.7157478  70.7903530  20.3348209
 106.6289855  68.8244612  27.1017451 107.1043976  69.0172258  26.2936303
 105.7055420  68.8803797  26.8560835  93.5173361  69.9868779  16.6848529
  93.2719403  69.0831109  16.8828740  93.6869276  69.9885929  15.7428007
 101.2070071  60.8592455  26.0673285 101.7252015  61.5953482  25.7419774
 100.8525204  61.1656448  26.9020044  92.7869009  65.7197136  14.1834691
  92.0938254  65.7941491  13.5274727  92.5420761  64.9557480  14.7056208
 101.4582665  57.2792738  21.5874182 101.7384419  56.6115927  22.2134608
 102.2433272  57.4721833  21.0748845  99.2616134  76.4551732  13.1499208
  98.6890101  77.0741919  12.6969680  99.8348927  77.0051093  13.6839130
 105.3291524  65.7010372  25.3345757 106.2808947  65.8008469  25.3557981
 105.1594974  64.9088640  25.8443841 103.3505903  62.7865955  25.5205158
 102.7555835  63.0670968  24.8251646 103.0655600  63.2759856  26.2921899
 102.4813394  76.7388882  14.2807790 103.4144067  76.6734443  14.4840666
 102.3936606  77.5745149  13.8222323 107.8079601  68.9216491  24.4488056
 107.7755922  67.9832492  24.6347740 108.4180225  69.0000528  23.7153881
  99.6462932  67.7912544  10.4915260 100.5922037  67.6618752  10.5603678
  99.2677177  67.0527206  10.9684689 107.9574090  65.7127535  24.4946340
 107.4413139  64.9285991  24.3076268 108.8414038  65.3846251  24.6592859
 105.6184817  59.4568550  20.4542152 105.4209638  59.1483638  21.3385484
 106.2284522  60.1830189  20.5840082 113.6256151  69.9832498  23.5894093
 114.3559540  69.7217786  24.1501797 113.0163097  69.2461220  23.6296161
 111.7071448  68.1240361  24.1868544 110.9804612  67.9896326  23.5785036
 111.2918735  68.4317189  24.9925262  99.5301625  71.8430290  31.9515917
 100.4504634  72.0208889  32.1455964  99.4951208  70.8986336  31.7995617
  97.8305849  65.7162521  10.4270146  96.9237305  65.4195633  10.5032859
  98.1081830  65.4192339   9.5604432  88.7483790  67.0368884  20.8769192
  88.4286574  66.1834192  20.5843566  88.2017218  67.2517462  21.6327159
  92.5263697  69.7531325  24.5938699  92.7449707  70.6848433  24.6126732
  92.9389471  69.3939299  25.3793502  99.4467915  60.2599410  16.5814387
  98.6368644  59.9146495  16.9569633 100.1352332  59.9506954  17.1701999
 101.3758463  59.3377457  18.2038684 101.9289502  59.7572911  18.8628707
 101.6128550  58.4113205  18.2461640  96.6004634  62.5749456  10.5682125
  97.4623798  62.9004354  10.8277942  96.7854978  61.7880952  10.0555191
  88.6172050  70.6571796  22.8462314  87.9235521  70.2425748  22.3332268
  89.3645041  70.6992332  22.2495733 104.7537271  61.4477982  17.7117348
 104.1735940  62.1062786  17.3295400 104.4873203  60.6255327  17.3004765
 103.2040837  60.8483040  19.9138668 103.7040615  60.9599575  19.1052987
 103.8476445  60.5444093  20.5539477  90.5308792  70.5890049  20.7228329
  90.5079480  70.6877737  19.7710212  90.8409429  71.4355200  21.0445495
  93.1896170  72.6466204  24.8374943  94.1439424  72.6150147  24.7704874
  92.9908694  72.1856828  25.6525169  93.7795552  71.2167320  27.4045741
  94.5988441  71.7111399  27.4280578  94.0532360  70.2999289  27.3763308
 103.5362149  63.6078073  16.7673696 102.6488004  63.8927723  16.5493891
 103.9516138  63.4471836  15.9200973 106.8876685  63.6324594  20.4828035
 107.6637075  64.1221046  20.7552652 106.1624819  64.0582648  20.9399905
 109.3249243  64.3452213  21.5401976 109.9193734  64.1047949  20.8295284
 109.3975827  63.6259344  22.1675512  91.5446399  78.1885824  21.8545141
  91.4100867  77.4286225  21.2883139  91.1278461  78.9126724  21.3873930
 102.6805362  73.3722747  10.8621716 103.3841212  73.5772750  11.4779372
 101.9568011  73.9399509  11.1270800 103.5103172  69.1232609  16.9823986
 103.4538374  69.5801160  16.1431619 104.0631515  68.3623293  16.8046829
 107.3207978  64.9122341  17.8074106 107.0644912  64.5118976  18.6382313
 106.6960846  65.6266134  17.6824245 111.6320316  67.6518414  20.3145397
 111.0719874  67.7211603  21.0876959 111.0263819  67.4759398  19.5944893
  94.7015525  79.0855141  22.0663583  94.5847909  80.0300573  21.9642274
  93.8807971  78.7828702  22.4549383 104.5892059  73.8105277  12.9120176
 105.4237663  73.3786475  12.7297651 104.4276402  73.6387290  13.8397071
 104.2437952  70.3137390  14.2776515 104.1886755  70.1481661  13.3364960
 103.6184007  71.0213423  14.4338705 101.5583859  72.6186302  33.6030078
 102.4275018  72.7926954  33.2416713 101.0790610  73.4380719  33.4805808
  97.5534077  59.8145499  13.8561834  97.5412747  60.7587339  14.0130105
  98.4457499  59.6315644  13.5621295  95.7270039  79.7383403  25.2819512
  96.6297286  79.7707013  25.5986007  95.5007409  78.8083854  25.2965848
  97.4823641  78.4914389  21.9429591  96.5319272  78.4916251  21.8293963
  97.7856127  77.7447124  21.4265625 101.3686197  56.4088276  18.1107771
 100.6018592  55.8546762  18.2564453 101.7796902  56.4810144  18.9721922
 113.2176335  84.3274928  23.0075353 113.8554744  84.2081675  22.3038693
 113.0997177  85.2755772  23.0663305 110.0266041  84.2802356  22.9436878
 109.6884552  84.1643421  22.0557412 110.8955809  83.8793521  22.9237884
 110.5085824  85.4337208  28.9023083 110.4974465  85.0390006  28.0303587
 110.6706463  84.7003280  29.4956855 103.4317288  87.6289024  21.7717989
 104.2238580  87.2879848  21.3564288 103.6713939  87.7383999  22.6920142
 107.2293085  88.2174319  27.8502267 106.9382951  89.1219950  27.7348933
 107.8650069  88.2590847  28.5646337 108.1549292  85.5951168  24.4403627
 108.7512864  85.3707190  23.7260590 108.2124263  84.8535913  25.0429075
 112.7717603  82.0526382  20.0828561 113.5580692  81.6345805  19.7318978
 113.0356307  82.9572474  20.2510209 115.6951450  75.7023189  25.4456148
 115.3634775  76.5718600  25.2217363 115.0997064  75.3859473  26.1250178
 112.1882970  87.9035735  24.8452061 111.8883693  88.8060774  24.7367868
 111.8434030  87.6367918  25.6973214 105.6395452  84.3549532  20.8788765
 104.7145948  84.2225746  21.0866457 105.8879865  85.1343751  21.3758708
 115.5880114  80.4218275  22.5249498 114.6796991  80.3533683  22.2308259
 115.5367710  80.8990220  23.3531324 103.0004263  83.9982805  21.7132554
 103.1296644  84.2517284  22.6271966 102.3201714  84.5910513  21.3937209
 109.6620980  81.8407921  30.4684395 108.8854314  82.4001841  30.4587260
 110.3011543  82.3264704  30.9899265 117.4541760  78.6234713  24.3027372
 116.8116140  78.9167247  23.6567167 116.9496689  78.5087634  25.1080569
 107.9167352  84.6493374  30.0302362 108.6582036  85.1878418  29.7537186
 107.2104337  85.2759663  30.1873914 113.3922692  86.7922514  28.6274524
 113.8006048  86.3504925  27.8829156 112.6699953  86.2175142  28.8808717
 109.7453762  81.7295121  26.0008081 110.5914957  82.1534535  26.1442730
 109.6852399  81.0728746  26.6946644 112.8953207  79.3899490  27.6589254
 112.6514139  80.1441550  27.1223530 113.1713137  79.7684837  28.4936502
 114.8491670  85.9338102  26.3366520 115.0608565  86.5769862  25.6600901
 114.8021418  85.1000419  25.8688450 112.4517899  78.5455923  23.2403092
 111.5902378  78.8437176  23.5319830 112.4780333  78.7626322  22.3084125
 106.1603549  86.6369595  22.5856661 106.7304906  87.0656863  21.9474146
 106.7511661  86.3552179  23.2840847 106.6528716  81.8033022  30.8317672
 106.0227376  82.4849303  31.0653069 106.5464804  81.6916104  29.8870811
 101.9473688  81.4704818  21.7583597 101.1572742  81.7262347  21.2823707
 102.4384935  82.2853156  21.8635637 103.8988433  81.8349397  18.7167073
 103.1019597  81.9468092  19.2350569 103.6714026  82.1736050  17.8507964
 109.7294101  88.3594101  26.6649588 109.7938534  88.8214508  27.5007760
 109.0205025  87.7291466  26.7931898 100.2311391  81.7235309  24.1898587
 100.4819429  82.6082319  24.4556163 100.7670939  81.5439910  23.4173679
 105.9309458  76.1053788  33.1942923 105.5376404  75.5519987  33.8690568
 106.7475599  76.4164366  33.5849441 108.8477419  77.5211667  30.7863180
 109.5887133  78.1218820  30.7067642 109.0795342  76.7789305  30.2281223
 103.9918757  82.7068034  29.0641410 103.8772273  81.8053292  29.3648509
 103.1363275  82.9531731  28.7126226 111.0710595  90.6485775  30.6628910
 110.6274449  89.8622153  30.3449815 111.7327809  90.8364925  29.9972801
 105.8297716  92.1781576  25.1889589 106.3805141  92.0498640  24.4166583
 104.9909192  92.4776465  24.8384482 113.1691833  90.9288575  28.6910312
 113.1510309  91.7497456  28.1990581 114.0911753  90.8042650  28.9160453
 109.6264887  88.4432704  29.5333820 110.1593224  87.6820992  29.3033128
 109.0978968  88.1506356  30.2757974 112.7934582  73.5492770  25.0627462
 112.4498852  74.4394412  24.9866572 113.1613545  73.3594428  24.1997047
 100.8620433  85.8726301  17.8816064 101.6995655  86.2823309  17.6649772
 101.0398701  84.9325743  17.8516258 110.3431976  78.3851082  18.6285135
 109.4873572  77.9957932  18.4490774 110.7558928  78.4643043  17.7684921
 111.8731123  75.9197425  23.0276695 111.3695918  75.8827560  22.2144500
 112.1661730  76.8290168  23.0873352 108.1174009  76.0036155  22.0342877
 108.9827005  75.8078964  21.6748766 108.1851517  75.7746507  22.9612233
 105.7236328  78.2338363  19.4059243 106.2980080  78.0113544  18.6732436
 106.3107310  78.3027057  20.1587845 108.0258995  75.1079612  18.1334313
 107.3723408  74.7928629  17.5090928 107.9839470  74.4855352  18.8594136
 111.2596736  81.5961545  22.4581961 110.3419297  81.8176492  22.3003649
 111.6756879  81.6707856  21.5993668 114.5922248  72.8086329  20.1645199
 114.8981125  71.9483693  19.8771114 115.3174853  73.4003949  19.9644193
 100.8846604  83.2117016  18.5526797 100.6871004  82.6186377  17.8277864
 100.3293268  82.9069226  19.2702736 108.8643328  83.1040122  20.6721390
 108.9191937  82.1513959  20.5963867 108.0534530  83.2599561  21.1562689
 106.8035688  81.7217182  18.4311769 105.9903553  82.0211353  18.8376961
 107.2994682  81.3272871  19.1486252 112.4009899  82.1859007  27.2626663
 112.7559287  82.4130480  28.1221129 113.0482031  82.5177383  26.6403918
 106.2949762  79.2935538  24.0473004 106.9349142  79.1524297  23.3495968
 105.4627293  79.0070051  23.6711606 111.8904911  90.9756064  24.5120364
 111.9441933  91.5447000  25.2798080 111.0219692  91.1457949  24.1474401
 103.2978379  79.2635863  18.8245991 103.5585196  80.1781196  18.7155152
 104.1195551  78.7960305  18.9742604 104.7703304  80.6773620  25.9944816
 105.4426358  80.4690982  25.3457464 103.9433091  80.4795706  25.5550048
 110.6728876  77.3035561  28.0110476 110.0256791  78.0025510  27.9174953
 111.4429892  77.7371705  28.3786725 114.0807674  87.5684413  31.0861030
 113.9293181  87.3394965  30.1691113 114.0712354  88.5255014  31.0992375
 110.8493011  85.1416326  26.0707296 111.7785071  85.2927485  25.8976263
 110.4284041  85.2300346  25.2155943 109.6481342  89.1666990  23.8405834
 109.5092428  88.7985774  24.7131772 108.8595939  89.6814629  23.6689792
 105.1730801  83.9516223  26.7547253 105.0350599  83.2196462  27.3558792
 106.0835725  83.8625123  26.4731440 107.8013102  83.6636182  26.2430932
 108.5112721  83.0229374  26.2017551 107.7582410  83.9149077  27.1657113
 115.7899881  90.6003535  29.1637512 115.7312427  89.9162756  28.4968095
 116.1919399  91.3422525  28.7118138 106.5142036  80.6501400  28.0626572
 105.9779393  80.1992138  28.7148168 105.9258745  80.7847309  27.3197036
 115.7917288  88.5643119  27.3951491 114.9044067  88.2269041  27.5177890
 116.3615839  87.8326151  27.6320257  97.4446435  84.8967211  20.7194543
  98.1317475  84.5828941  20.1315558  97.2894564  85.8008576  20.4461794
 102.2481157  79.7857408  25.1479566 102.1639346  79.1783077  24.4129976
 101.4263864  80.2766426  25.1489063 112.4204871  78.2710971  20.5149761
 112.9173571  77.5180933  20.1950832 111.6491853  78.3075288  19.9492971
 111.7817125  93.1231406  26.5170893 112.4945097  93.7578871  26.4446795
 111.2907154  93.2195272  25.7010895 109.0039840  80.4128354  20.2421446
 108.6337627  79.8599395  20.9302352 109.4998932  79.8086488  19.6896446
 106.8329038  90.8725849  27.3376464 107.5338498  91.5062332  27.4905858
 106.3624153  91.2140581  26.5772103 114.8623866  75.2380565  22.6629120
 113.9486946  75.4684791  22.8311327 115.2916967  75.3219009  23.5143153
 114.6330324  83.4270457  25.1629014 113.9801775  83.6746364  24.5081467
 115.0110704  82.6134595  24.8291492 110.6817897  84.1690268  31.6495051
 110.0058534  84.0684397  32.3197427 111.5045531  84.0129481  32.1131049
 102.4296757  90.4062204  24.2707567 103.0150193  89.6605892  24.4035471
 102.2321595  90.7166161  25.1544231  97.0214411  82.9767804  22.9912010
  97.0598511  82.4431395  23.7849128  96.5154704  82.4503010  22.3722987
 104.4005174  77.8232345  26.4874552 104.4646500  78.6847176  26.0751950
 104.3372294  77.2106347  25.7546911 103.8757446  79.8955477  30.1347586
 104.5029485  79.5132555  30.7485111 103.0185365  79.6769679  30.5003279
 114.2751555  90.3018453  31.7401322 114.8191459  90.9148411  31.2456277
 113.6938400  90.8598031  32.2568335 100.6522989  81.7031907  16.0665941
 100.9476430  80.7942585  16.0132995  99.7511025  81.6819646  15.7446944
 104.1817236  79.7787903  22.0493490 103.4603822  80.3923871  21.9100963
 104.9710492  80.3145668  21.9710136 106.9843549  77.1142330  28.3234142
 107.5077951  77.3604626  29.0860451 106.7655883  77.9462364  27.9037279
 102.3810830  79.3846004  16.1905266 102.0523537  78.5043383  16.0080372
 102.7350201  79.3293673  17.0781656 105.4952654  79.6718974  16.5580744
 105.8348726  80.2004895  15.8359352 105.9424774  80.0099380  17.3339311
 108.1896094  78.0556025  26.0083812 107.8492915  77.2563838  26.4104492
 107.4835101  78.3557736  25.4360645 108.8412566  75.1405337  24.4611135
 109.6638636  74.6665815  24.3390025 109.0850630  75.9195821  24.9609821
 106.3651145  81.8324458  22.2703114 106.2195726  82.1464761  23.1627395
 105.8876349  82.4509358  21.7174012 108.2247528  78.8227006  22.3184003
 108.2109097  77.9268099  21.9816301 108.9419956  78.8297670  22.9522289
 110.0773659  79.2564346  24.3637131 109.8191436  80.1781417  24.3621461
 109.5458699  78.8594781  25.0537595 100.8396807  84.3729802  25.2090775
 100.2950275  85.1489610  25.3411049 101.7176157  84.7200607  25.0509896
 107.6284424  77.7041386  17.5871573 107.7500335  76.7758032  17.7862461
 107.3386466  77.7180072  16.6749889 110.4975614  75.3896297  20.7238293
 110.5197311  75.4535630  19.7690273 110.9143673  74.5500805  20.9178799
 101.6262829  83.4999698  28.1020932 100.8844565  83.6482334  28.6885562
 101.3055573  83.7607964  27.2387681 109.5706492  93.0415677  27.9001322
 109.8793618  92.7964823  28.7724021 110.3681974  93.2462315  27.4120192
 100.2728048  89.3051454  21.0920260  99.4359956  88.8773628  20.9104261
 100.2451693  89.4983897  22.0291051 107.1125503  79.2173383  31.7961506
 107.1613659  80.0935506  31.4139276 107.6548018  78.6750776  31.2233149
 117.5980349  89.7614507  31.0762643 116.8075893  89.7438646  30.5367142
 117.3613704  90.3002800  31.8311680 117.7178224  86.6106973  28.3895372
 117.7676229  86.4456981  29.3310894 117.6092147  85.7434232  27.9993252
 115.0081986  82.5937901  29.7054678 115.9091849  82.4544366  29.4138676
 115.0829961  82.7592356  30.6452856 109.3424792  79.9704756  28.5507865
 108.4728101  80.2638322  28.2790453 109.5784272  80.5545201  29.2715128
 119.2196421  89.0303915  28.6337393 118.9281229  89.3933895  29.4700854
 118.6068552  88.3170923  28.4550725 117.4683609  84.1536529  27.1017451
 117.9437731  84.3464176  26.2936303 116.5449175  84.2095715  26.8560835
 112.0463826  76.1884373  26.0673285 112.5645769  76.9245400  25.7419774
 111.6918958  76.4948366  26.9020044 112.2976420  72.6084655  21.5874182
 112.5778174  71.9407844  22.2134608 113.0827027  72.8013751  21.0748845
 116.1685278  81.0302289  25.3345757 117.1202701  81.1300387  25.3557981
 115.9988729  80.2380558  25.8443841 114.1899658  78.1157873  25.5205158
 113.5949590  78.3962885  24.8251646 113.9049354  78.6051773  26.2921899
 118.6473356  84.2508409  24.4488056 118.6149676  83.3124410  24.6347740
 119.2573980  84.3292446  23.7153881 118.7967844  81.0419452  24.4946340
 118.2806893  80.2577909  24.3076268 119.6807793  80.7138169  24.6592859
 116.4578571  74.7860468  20.4542152 116.2603392  74.4775556  21.3385484
 117.0678277  75.5122107  20.5840082 110.3695379  87.1722208  31.9515917
 111.2898389  87.3500807  32.1455964 110.3344962  86.2278253  31.7995617
  99.5877544  82.3660802  20.8769192  99.2680329  81.5126110  20.5843566
  99.0410973  82.5809380  21.6327159 103.3657452  85.0823243  24.5938699
 103.5843462  86.0140351  24.6126732 103.7783226  84.7231217  25.3793502
 110.2861670  75.5891328  16.5814387 109.4762398  75.2438413  16.9569633
 110.9746087  75.2798872  17.1701999 112.2152218  74.6669375  18.2038684
 112.7683257  75.0864828  18.8628707 112.4522304  73.7405123  18.2461640
 108.2385317  80.6556449  33.9841447 108.1382044  81.6050805  33.9153539
 108.0206859  80.3274687  33.1117518  99.4565804  85.9863713  22.8462314
  98.7629276  85.5717666  22.3332268 100.2038795  86.0284250  22.2495733
 114.0434591  76.1774958  19.9138668 114.5434370  76.2891492  19.1052987
 114.6870199  75.8736011  20.5539477 108.1016587  84.0853587  32.8006509
 107.6183669  84.8853947  33.0070398 108.1877526  84.0961532  31.8473953
 101.3702547  85.9181967  20.7228329 101.3473235  86.0169654  19.7710212
 101.6803183  86.7647118  21.0445495 104.0289925  87.9758122  24.8374943
 104.9833178  87.9442064  24.7704874 103.8302448  87.5148746  25.6525169
 104.6189307  86.5459238  27.4045741 105.4382196  87.0403317  27.4280578
 104.8926115  85.6291206  27.3763308 117.7270439  78.9616511  20.4828035
 118.5030829  79.4512964  20.7552652 117.0018573  79.3874566  20.9399905
  99.8724221  80.8797372  28.1037938 100.5183085  80.3696326  28.5925163
  99.6641372  81.6166054  28.6781363 112.3977613  87.9478219  33.6030078
 113.2668773  88.1218872  33.2416713 111.9184365  88.7672636  33.4805808
 106.5663794  95.0675320  25.2819512 107.4691040  95.0998931  25.5986007
 106.3401164  94.1375771  25.2965848 112.2079951  71.7380193  18.1107771
 111.4412347  71.1838680  18.2564453 112.6190656  71.8102062  18.9721922
 104.2121712  78.0264989  32.2012952 105.0753174  77.6701794  32.4116276
 103.6387123  77.6878884  32.8888356 116.7703213  91.4345706  33.1942923
 116.3770158  90.8811904  33.8690568 117.5869353  91.7456284  33.5849441
 119.6871174  92.8503585  30.7863180 120.4280887  93.4510738  30.7067642
 119.9189097  92.1081223  30.2281223 114.7151201  95.2247395  30.1347586
 115.3423239  94.8424472  30.7485111 113.8579119  95.0061597  30.5003279
 117.9519258  94.5465301  31.7961506 118.0007413  95.4227424  31.4139276
 118.4941772  94.0042694  31.2233149 119.0779072  95.9848366  33.9841447
 118.9775799  96.9342723  33.9153539 118.8600614  95.6566605  33.1117518
 110.7117976  96.2089290  28.1037938 111.3576839  95.6988244  28.5925163
 110.5035127  96.9457971  28.6781363 115.0515467  93.3556907  32.2012952
 115.9146928  92.9993712  32.4116276 114.4780877  93.0170802  32.8888356
  67.7135578   6.3380227  17.3874217  67.2699433   5.5516605  17.0695121
  68.3752792   6.5259377  16.7218108  69.8116816   6.6183026  15.4155618
  69.7935292   7.4391908  14.9235887  70.7336737   6.4937102  15.6405759
  70.7232657   3.2578865  17.8106336  70.5718164   3.0289416  16.8936420
  70.7137337   4.2149466  17.8237681  72.4324864   6.2897987  15.8882818
  72.3737410   5.6057207  15.2213401  72.8344382   7.0316977  15.4363444
  70.9176538   5.9912905  18.4646628  71.4616442   6.6042863  17.9701583
  70.3363383   6.5492483  18.9813641  74.2405332   5.4508959  17.8007950
  73.4500876   5.4333097  17.2612449  74.0038687   5.9897252  18.5556986
  75.8621404   4.7198366  15.3582700  75.5706213   5.0828347  16.1946161
  75.2493535   4.0065375  15.1796032  69.0402597   3.6372671  20.3275385
  69.9093756   3.8113324  19.9662020  68.5609348   4.4567088  20.2051114
  80.6995072  15.3461297   9.7320660  81.3373482  15.2268045   9.0284000
  80.5815915  16.2942141   9.7908612  77.5084779  15.2988725   9.6682184
  77.1703290  15.1829790   8.7802719  78.3774547  14.8979890   9.6483190
  77.9904562  16.4523577  15.6268390  77.9793202  16.0576375  14.7548893
  78.1525201  15.7189650  16.2202161  70.9136026  18.6475393   8.4963296
  71.7057318  18.3066218   8.0809595  71.1532676  18.7570368   9.4165449
  74.7111823  19.2360689  14.5747574  74.4201689  20.1406320  14.4594240
  75.3468807  19.2777217  15.2891643  75.6368030  16.6137537  11.1648933
  76.2331602  16.3893560  10.4505896  75.6943001  15.8722283  11.7674381
  83.1770188   6.7209558  12.1701455  82.8453513   7.5904969  11.9462670
  82.5815802   6.4045842  12.8495485  79.6701708  18.9222104  11.5697367
  79.3702431  19.8247143  11.4613175  79.3252767  18.6554288  12.4218520
  83.0698852  11.4404645   9.2494805  82.1615729  11.3720053   8.9553566
  83.0186447  11.9176590  10.0776630  74.6522488  25.6866425   4.5368335
  74.5746517  26.6374250   4.6156816  74.0484131  25.3412297   5.1943261
  77.1439717  12.8594290  17.1929702  76.3673051  13.4188210  17.1832567
  77.7830280  13.3451073  17.7144572  84.9360498   9.6421083  11.0272679
  84.2934878   9.9353616  10.3812473  84.4315427   9.5274003  11.8325875
  75.3986090  15.6679744  16.7547669  76.1400774  16.2064788  16.4782493
  74.6923075  16.2946032  16.9119221  80.8741429  17.8108884  15.3519831
  81.2824785  17.3691295  14.6074463  80.1518691  17.2361512  15.6054023
  77.2272499  12.7481491  12.7253387  78.0733695  13.1720904  12.8688036
  77.1671137  12.0915115  13.4191951  81.1970244  18.3710075   9.1072119
  80.5679106  18.5355789   8.4048187  80.8095906  18.7851684   9.8783083
  85.0759476  19.3064513   6.4616483  84.3910514  19.6863414   5.9113516
  85.1603325  19.9159839   7.1948431  80.3771945  10.4085859  14.3834561
  80.1332877  11.1627920  13.8468837  80.6531875  10.7871207  15.2181808
  82.3310407  16.9524472  13.0611827  82.5427303  17.5956231  12.3846208
  82.2840156  16.1186788  12.5933757  76.7498206  18.1084483   6.3722204
  77.2136551  18.3872186   5.5826827  76.4855004  17.2067927   6.1895295
  73.6422287  17.6555964   9.3101968  74.2123644  18.0843233   8.6719452
  74.2330399  17.3738549  10.0086153  74.1347453  12.8219392  17.5562979
  73.5046114  13.5035673  17.7898376  74.0283541  12.7102473  16.6116117
  83.4456235  19.8296427  11.2334184  84.2673679  19.4276614  10.9516866
  83.4418638  19.7264661  12.1850300  77.2112839  19.3780470  13.3894895
  77.2757271  19.8400877  14.2253066  76.5023763  18.7477835  13.5177204
  73.4128196   7.1240158  19.9188230  73.0195142   6.5706356  20.5935874
  74.2294337   7.4350736  20.3094748  72.1885139  21.6789772   5.9124553
  72.3651767  22.6007737   5.7245537  72.9841972  21.3648191   6.3418933
  76.3296157   8.5398037  17.5108487  77.0705871   9.1405190  17.4312949
  76.5614080   7.7975674  16.9526529  71.4737495  13.7254404  15.7886716
  71.3591010  12.8239661  16.0893815  70.6182013  13.9718101  15.4371533
  78.5529333  21.6672144  17.3874217  78.1093187  20.8808523  17.0695121
  79.2146547  21.8551295  16.7218108  73.3116454  23.1967946  11.9134895
  73.8623879  23.0685009  11.1411889  72.4727930  23.4962835  11.5629788
  80.6510571  21.9474944  15.4155618  80.6329046  22.7683825  14.9235887
  81.5730491  21.8229019  15.6405759  77.1083625  19.4619074  16.2579127
  77.6411962  18.7007362  16.0278435  76.5797706  19.1692725  17.0003281
  83.4529184  16.7854087   8.8864985  82.7952858  17.4753348   8.9745114
  84.2569583  17.1750519   9.2298971  82.2634643  15.1398459   6.9368927
  82.7766524  15.7728451   7.4390636  82.9135867  14.5399655   6.5712287
  78.7415474  12.6147915   9.1827267  77.8238035  12.8362862   9.0248955
  79.1575617  12.6894225   8.3238974  83.0296439  20.1204461   5.0648069
  82.5758766  19.2795371   5.1213260  82.3990406  20.7565859   5.4022849
  81.4729378  21.9580957   5.9997887  81.7652352  22.5186015   5.2810253
  81.9827999  22.2509518   6.7551047  76.4363003  22.7361309   7.0891341
  76.3939182  22.9622155   6.1599873  77.3525702  22.5024683   7.2377142
  79.8828637  13.2045376  13.9871970  80.2378025  13.4316849  14.8466436
  80.5300768  13.5363753  13.3649225  85.6395754  18.3940339   9.7032570
  86.0732260  18.3015628  10.5515624  86.3527334  18.3697839   9.0652586
  74.5528804  19.6124338   6.8853303  75.3469403  19.1174658   6.6835878
  73.8420496  19.0842201   6.5221009  79.3723649  21.9942433  11.2365671
  79.4260671  22.5633369  12.0043387  78.5038430  22.1644318  10.8719708
  72.2522042  11.6959989  12.7190122  72.9245095  11.4877351  12.0702771
  71.4251828  11.4982075  12.2795354  86.5011303  18.4364040  12.2365456
  86.6947193  19.3409850  12.4824731  86.4011921  17.9771459  13.0704041
  78.1547614   8.3221930  14.7355783  77.5075529   9.0211880  14.6420259
  78.9248629   8.7558074  15.1032031  81.5626412  18.5870782  17.8106336
  81.4111918  18.3581334  16.8936420  81.5531091  19.5441384  17.8237681
  78.3311748  16.1602695  12.7952603  79.2603808  16.3113855  12.6221570
  77.9102778  16.2486716  11.9401249  77.1300080  20.1853360  10.5651140
  76.9911166  19.8172144  11.4377079  76.3414676  20.7000999  10.3935098
  77.7248232  25.2862456   1.9076677  77.8999988  24.8150499   2.7222300
  77.0381020  25.9128222   2.1357938  78.6805295  19.5634962   7.9539978
  78.3455128  19.5235732   8.8497628  78.1809241  18.8979678   7.4810388
  72.6549539  14.9702592  13.4792559  72.5169337  14.2382831  14.0804098
  73.5654463  14.8811492  13.1976747  75.2831840  14.6822552  12.9676239
  75.9931458  14.0415744  12.9262857  75.2401148  14.9335446  13.8902420
  83.2718619  21.6189905  15.8882818  83.2131165  20.9349125  15.2213401
  83.6738137  22.3608895  15.4363444  73.9960774  11.6687769  14.7871878
  73.4598131  11.2178508  15.4393475  73.4077482  11.8033678  14.0442343
  72.2909317  28.4351819   8.6816537  72.5305916  29.0670343   9.3595556
  71.4478514  28.0839859   8.9681896  83.2736026  19.5829489  14.1196798
  82.3862805  19.2455411  14.2423197  83.8434577  18.8512520  14.3565563
  76.8037179  24.2430941  11.0858041  76.7307351  25.0485913  11.5977346
  76.3614572  24.4422907  10.2606062  76.5926959  23.4802711   4.5960863
  75.8094481  24.0224391   4.6899087  77.2919704  23.9976691   4.9955104
  79.2635863  24.1417775  13.2416200  79.9763835  24.7765240  13.1692101
  78.7725891  24.2381641  12.4256202  80.9853390  18.0469028   4.8133491
  80.0509668  18.1670490   4.6438196  81.1630058  17.1441495   4.5493501
  74.3147776  21.8912219  14.0621771  75.0157236  22.5248702  14.2151165
  73.8442891  22.2326950  13.3017410  82.1149062  14.4456826  11.8874321
  81.4620512  14.6932734  11.2326774  82.4929442  13.6320964  11.5536798
  79.0756236  24.4816519   5.9902491  79.2578631  23.6638175   6.4530244
  79.8989222  24.6984212   5.5527381  79.4098402  23.4084704   3.2517540
  79.9386168  22.8977159   2.6387702  79.6726621  23.0927235   4.1163073
  78.1636635  15.1876637  18.3740358  77.4877272  15.0870767  19.0442733
  78.9864269  15.0315851  18.8376355  69.9115494  21.4248574  10.9952873
  70.4968931  20.6792262  11.1280777  69.7140333  21.7352530  11.8789537
  72.7654150  24.4599821   6.0115316  72.0964525  24.9445949   5.5279356
  72.6267019  24.7069042   6.9258694  76.9059418  26.4943565  12.6097974
  77.4577726  26.6575186  13.3747059  77.2465612  27.0848002  11.9377999
  71.3576184  10.9141847  16.8592893  71.9848223  10.5318924  17.4730417
  70.5004103  10.6956049  17.2248585  81.7570292  21.3204822  18.4646628
  82.3010196  21.9334780  17.9701583  81.1757137  21.8784401  18.9813641
  80.0427805  24.4425540   9.5961656  79.9178945  23.6415280   9.0872602
  80.7006897  24.9371734   9.1075626  82.1062714  22.2434560  11.2241206
  81.1593049  22.1239911  11.1519533  82.4545487  21.3557058  11.3067468
  74.4662287   8.1328699  15.0479448  74.9896689   8.3790996  15.8105757
  74.2474620   8.9648734  14.6282585  79.1109147  22.0387277   7.4245558
  78.9634110  21.1103984   7.6053129  79.9362641  22.0607367   6.9402634
  82.7143269  22.8615835   8.5110431  83.6389816  22.6558697   8.3734882
  82.5458572  22.6132236   9.4199773  75.6714832   9.0742394  12.7329119
  75.3311653   8.2750207  13.1349799  74.9653838   9.3744105  12.1605952
  77.5592396  10.2750716  11.0882437  77.3010174  11.1967786  11.0866768
  77.0277437   9.8781150  11.7782901  82.5038585  23.3801503   3.8672523
  82.6775463  22.8147925   3.1146375  82.9967476  24.1802398   3.6852013
  68.3215545  15.3916172  11.9336082  67.7769013  16.1675980  12.0656356
  69.1994895  15.7386976  11.7755203  69.1081567  14.5186068  14.8266238
  68.3663303  14.6668703  15.4130869  68.7874311  14.7794334  13.9632988
  77.0525229  24.0602046  14.6246628  77.3612356  23.8151193  15.4969328
  77.8500711  24.2648685  14.1365499  77.0745841  26.2139956   6.8552005
  76.6350832  25.7216335   7.5484862  77.8253958  25.6712924   6.6144080
  69.5538180  22.4051497   6.8576633  70.3796200  22.1055269   6.4775277
  69.2032232  21.6359119   7.3066422  74.5219714  21.7577965   8.9274307
  73.8999723  21.0948670   8.6276534  75.1924581  21.7839097   8.2447954
  74.5944241  10.2359753  18.5206813  74.6432397  11.1121876  18.1384582
  75.1366755   9.6937146  17.9478456  85.0799087  20.7800876  17.8007950
  84.2894631  20.7625015  17.2612449  84.8432441  21.3189170  18.5556986
  85.1996962  17.6293343  15.1140678  85.2494967  17.4643350  16.0556201
  85.0910885  16.7620602  14.7238559  82.4900724  13.6124271  16.4299985
  83.3910587  13.4730736  16.1383983  82.5648699  13.7778725  17.3698162
  76.8243530  10.9891125  15.2753171  75.9546839  11.2824691  15.0035760
  77.0603010  11.5731570  15.9960435  86.7015159  20.0490284  15.3582700
  86.4099967  20.4120265  16.1946161  86.0887290  19.3357292  15.1796032
  84.9502347  15.1722899  13.8262758  85.4256469  15.3650545  13.0181609
  84.0267912  15.2282085  13.5806141  79.5282563   7.2070742  12.7918592
  80.0464507   7.9431769  12.4665080  79.1737696   7.5134736  13.6265351
  83.6504016  12.0488659  12.0591063  84.6021439  12.1486757  12.0803287
  83.4807466  11.2566927  12.5689148  81.6718395   9.1344242  12.2450464
  81.0768328   9.4149255  11.5496953  81.3868092   9.6238143  13.0167205
  86.1292094  15.2694779  11.1733363  86.0968414  14.3310779  11.3593047
  86.7392717  15.3478815  10.4399188  77.8514117  18.1908578  18.6761224
  78.7717127  18.3687177  18.8701271  77.8163700  17.2464623  18.5240923
  70.8476190  16.1009612  11.3184005  71.0662199  17.0326720  11.3372039
  71.2601963  15.7417587  12.1038809  75.7204055  11.6742818  20.7086754
  75.6200782  12.6237175  20.6398845  75.5025597  11.3461057  19.8362824
  75.5835325  15.1039957  19.5251816  75.1002407  15.9040317  19.7315705
  75.6696264  15.1147902  18.5719260  71.5108663  18.9944492  11.5620250
  72.4651916  18.9628434  11.4950181  71.3121186  18.5335115  12.3770475
  72.1008045  17.5645608  14.1291047  72.9200934  18.0589686  14.1525885
  72.3744852  16.6477576  14.1008615  69.8658891  24.5364111   8.5790447
  69.7313359  23.7764512   8.0128445  69.4490954  25.2605011   8.1119236
  73.0228017  25.4333428   8.7908890  72.9060401  26.3778861   8.6887580
  72.2020463  25.1306990   9.1794689  67.3542959  11.8983742  14.8283244
  68.0001822  11.3882696  15.3170469  67.1460110  12.6352423  15.4026670
  79.8796351  18.9664589  20.3275385  80.7487511  19.1405241  19.9662020
  79.4003103  19.7859006  20.2051114  74.0482531  26.0861690  12.0064819
  74.9509778  26.1185300  12.3231313  73.8219901  25.1562141  12.0211154
  75.8036133  24.8392677   8.6674897  74.8531764  24.8394538   8.5539269
  76.1068619  24.0925411   8.1510932  71.6940450   9.0451359  18.9258259
  72.5571911   8.6888163  19.1361583  71.1205861   8.7065253  19.6133663
  91.5388827  30.6753215   9.7320660  92.1767237  30.5559962   9.0284000
  91.4209670  31.6234059   9.7908612  88.3478533  30.6280643   9.6682184
  88.0097045  30.5121708   8.7802719  89.2168301  30.2271808   9.6483190
  84.2065349  32.4816119   5.6579075  83.6430214  32.3906056   4.8895363
  84.0917744  31.6616024   6.1381568  88.8298316  31.7815495  15.6268390
  88.8186957  31.3868293  14.7548893  88.9918956  31.0481567  16.2202161
  81.7529781  33.9767311   8.4963296  82.5451073  33.6358136   8.0809595
  81.9926431  34.0862286   9.4165449  89.7864908  36.1487087   0.9693540
  89.1352887  36.7341168   0.5827554  90.5809270  36.6793282   1.0288578
  83.7120535  33.2376224   1.3680674  84.4851411  32.6905211   1.2293550
  84.0645934  34.1020474   1.5795136  85.5505577  34.5652607  14.5747574
  85.2595443  35.4698237  14.4594240  86.1862562  34.6069134  15.2891643
  86.4761784  31.9429455  11.1648933  87.0725356  31.7185478  10.4505896
  86.5336756  31.2014201  11.7674381  91.0930095  28.4004669   6.8073868
  91.8793185  27.9824092   6.4564285  91.3568800  29.3050761   6.9755516
  85.7683101  31.2996996   1.2023499  85.6519359  30.6241900   1.8704584
  85.8785361  30.8129370   0.3855652  88.1114642  30.7607144   4.9070189
  87.7472849  30.2337764   5.6183110  88.9681758  30.3705613   4.7336674
  94.0163943  22.0501476  12.1701455  93.6847268  22.9196887  11.9462670
  93.4209556  21.7337760  12.8495485  90.5095462  34.2514022  11.5697367
  90.2096185  35.1539061  11.4613175  90.1646522  33.9846205  12.4218520
  83.9607944  30.7027819   7.6034072  83.0358440  30.5704033   7.8111764
  84.2092357  31.4822038   8.1004014  93.9092606  26.7696562   9.2494805
  93.0009483  26.7011971   8.9553566  93.8580202  27.2468507  10.0776630
  81.3216755  30.3461092   8.4377861  81.4509136  30.5995571   9.3517273
  80.6414206  30.9388800   8.1182516  85.4916242  41.0158342   4.5368335
  85.4140272  41.9666168   4.6156816  84.8877886  40.6704215   5.1943261
  87.9833472  28.1886208  17.1929702  87.2066806  28.7480128  17.1832567
  88.6224035  28.6742991  17.7144572  95.7754253  24.9713001  11.0272679
  95.1328633  25.2645534  10.3812473  95.2709181  24.8565921  11.8325875
  86.2379844  30.9971661  16.7547669  86.9794529  31.5356705  16.4782493
  85.5316830  31.6237950  16.9119221  91.7135184  33.1400802  15.3519831
  92.1218540  32.6983212  14.6074463  90.9912445  32.5653429  15.6054023
  88.0666254  28.0773408  12.7253387  88.9127449  28.5012822  12.8688036
  88.0064892  27.4207033  13.4191951  92.0363998  33.7001992   9.1072119
  91.4072861  33.8647706   8.4048187  91.6489661  34.1143602   9.8783083
  95.9153230  34.6356430   6.4616483  95.2304269  35.0155332   5.9113516
  95.9997080  35.2451757   7.1948431  91.2165699  25.7377777  14.3834561
  90.9726631  26.4919837  13.8468837  91.4925630  26.1163124  15.2181808
  93.1704162  32.2816389  13.0611827  93.3821057  32.9248149  12.3846208
  93.1233910  31.4478706  12.5933757  90.7730391  24.8934210   9.9648399
  89.9114870  25.1915463  10.2565136  90.7992826  25.1104609   9.0329431
  87.5891960  33.4376400   6.3722204  88.0530306  33.7164103   5.5826827
  87.3248758  32.5359845   6.1895295  84.4816041  32.9847882   9.3101968
  85.0517398  33.4135150   8.6719452  85.0724153  32.7030467  10.0086153
  86.5260846  29.5599553   3.1811770  87.2284890  30.0120596   3.6485696
  86.1941475  28.9183372   3.8091663  84.9741208  28.1511309  17.5562979
  84.3439869  28.8327590  17.7898376  84.8677296  28.0394391  16.6116117
  80.2686180  27.8183105   8.4828903  79.4785234  28.0740634   8.0069014
  80.7597428  28.6331443   8.5880944  94.2849990  35.1588345  11.2334184
  95.1067434  34.7568532  10.9516866  94.2812393  35.0556579  12.1850300
  82.2200926  28.1827685   5.4412380  81.4232089  28.2946379   5.9595876
  81.9926518  28.5214337   4.5753270  88.0506593  34.7072388  13.3894895
  88.1151026  35.1692795  14.2253066  87.3417517  34.0769753  13.5177204
  78.5523883  28.0713596  10.9143894  78.8031922  28.9560606  11.1801470
  79.0883432  27.8918197  10.1418986  87.7654611  36.3740495   3.2573875
  87.6300286  37.2192031   3.6858723  88.3064424  36.5759773   2.4939809
  84.2521951  22.4532075  19.9188230  83.8588896  21.8998274  20.5935874
  85.0688091  22.7642654  20.3094748  81.2184008  33.8915933   3.8301800
  81.7308529  34.6859184   3.9807365  81.8706721  33.1942224   3.7635401
  83.0278893  37.0081690   5.9124553  83.2045521  37.9299654   5.7245537
  83.8235727  36.6940109   6.3418933  87.1689912  23.8689954  17.5108487
  87.9099625  24.4697107  17.4312949  87.4007834  23.1267592  16.9526529
  82.3131250  29.0546322  15.7886716  82.1984765  28.1531579  16.0893815
  81.4575767  29.3010018  15.4371533  89.3923087  36.9964062  17.3874217
  88.9486942  36.2100440  17.0695121  90.0540301  37.1843212  16.7218108
  84.1510209  38.5259864  11.9134895  84.7017634  38.3976927  11.1411889
  83.3121684  38.8254753  11.5629788  91.4904325  37.2766862  15.4155618
  91.4722801  38.0975743  14.9235887  92.4124246  37.1520937  15.6405759
  87.9477380  34.7910991  16.2579127  88.4805716  34.0299280  16.0278435
  87.4191461  34.4984643  17.0003281  91.1147075  19.8971057  11.7872768
  90.7711344  20.7872699  11.7111879  91.4826037  19.7072715  10.9242353
  79.1832925  32.2204588   4.6061370  80.0208147  32.6301596   4.3895078
  79.3611193  31.2804030   4.5761564  90.1943615  22.2675712   9.7522002
  89.6908411  22.2305848   8.9389807  90.4874222  23.1768455   9.8118658
  86.4386501  22.3514442   8.7588183  87.3039498  22.1557251   8.3994073
  86.5064010  22.1224794   9.6857540  89.3130092  33.9196984   3.7697939
  88.7851454  33.1849743   3.4571176  88.8117595  34.6971660   3.5237907
  94.2922938  32.1146004   8.8864985  93.6346613  32.8045266   8.9745114
  95.0963338  32.5042436   9.2298971  84.0448820  24.5816650   6.1304550
  84.6192572  24.3591832   5.3977743  84.6319802  24.6505345   6.8833151
  93.1028397  30.4690377   6.9368927  93.6160279  31.1020369   7.4390636
  93.7529621  29.8691573   6.5712287  90.3650771  40.4474701  -0.3070402
  89.6912470  40.7506398   0.3014556  90.7516593  41.2503782  -0.6564945
  89.5809228  27.9439833   9.1827267  88.6631789  28.1654780   9.0248955
  89.9969372  28.0186143   8.3238974  93.8690193  35.4496378   5.0648069
  93.4152520  34.6087288   5.1213260  93.2384160  36.0857777   5.4022849
  92.3123133  37.2872875   5.9997887  92.6046107  37.8477932   5.2810253
  92.8221753  37.5801436   6.7551047  79.2059096  29.5595303   5.2772104
  79.0083496  28.9664664   4.5523170  78.6505760  29.2547513   5.9948043
  87.1855820  29.4518410   7.3966697  87.2404430  28.4992246   7.3209174
  86.3747022  29.6077849   7.8807995  85.1248180  28.0695469   5.1557076
  84.3116045  28.3689640   5.5622268  85.6207174  27.6751158   5.8731558
  87.2756758  38.0653226   7.0891341  87.2332937  38.2914073   6.1599873
  88.1919457  37.8316601   7.2377142  90.7222392  28.5337294  13.9871970
  91.0771779  28.7608767  14.8466436  91.3694523  28.8655671  13.3649225
  84.6162255  25.6413825  10.7718311  85.2561634  25.5002584  10.0741274
  83.7839785  25.3548338  10.3956913  96.4789508  33.7232257   9.7032570
  96.9126015  33.6307546  10.5515624  97.1921089  33.6989757   9.0652586
  85.3922559  34.9416255   6.8853303  86.1863157  34.4466575   6.6835878
  84.6814251  34.4134118   6.5221009  90.2117403  37.3234351  11.2365671
  90.2654425  37.8925287  12.0043387  89.3432184  37.4936236  10.8719708
  81.7005322  29.0859337   2.9613056  80.7702910  29.0243792   3.1783018
  81.7962794  28.5635290   2.1649697  81.6190871  25.6114150   5.5491298
  81.8797688  26.5259483   5.4400458  82.4408043  25.1438592   5.6987910
  83.0915796  27.0251907  12.7190122  83.7638850  26.8169269  12.0702771
  82.2645583  26.8273993  12.2795354  97.3405058  33.7655957  12.2365456
  97.5340948  34.6701768  12.4824731  97.2405676  33.3063376  13.0704041
  88.9941368  23.6513848  14.7355783  88.3469283  24.3503798  14.6420259
  89.7642384  24.0849992  15.1032031  92.4020166  33.9162700  17.8106336
  92.2505673  33.6873252  16.8936420  92.3924846  34.8733301  17.8237681
  89.1705503  31.4894613  12.7952603  90.0997563  31.6405772  12.6221570
  88.7496533  31.5778634  11.9401249  87.9693835  35.5145277  10.5651140
  87.8304920  35.1464062  11.4377079  87.1808431  36.0292917  10.3935098
  88.5641987  40.6154374   1.9076677  88.7393742  40.1442417   2.7222300
  87.8774775  41.2420140   2.1357938  89.5199050  34.8926880   7.9539978
  89.1848882  34.8527650   8.8497628  89.0202995  34.2271596   7.4810388
  83.4943294  30.2994510  13.4792559  83.3563092  29.5674749  14.0804098
  84.4048217  30.2103410  13.1976747  86.1225594  30.0114469  12.9676239
  86.8325213  29.3707661  12.9262857  86.0794903  30.2627364  13.8902420
  94.1112373  36.9481823  15.8882818  94.0524919  36.2641043  15.2213401
  94.5131891  37.6900813  15.4363444  84.8354528  26.9979687  14.7871878
  84.2991885  26.5470426  15.4393475  84.2471237  27.1325596  14.0442343
  83.1303072  43.7643736   8.6816537  83.3699670  44.3962261   9.3595556
  82.2872268  43.4131776   8.9681896  94.1129780  34.9121407  14.1196798
  93.2256559  34.5747328  14.2423197  94.6828331  34.1804438  14.3565563
  75.7658927  31.2445498   7.4439849  76.4529967  30.9307228   6.8560865
  75.6107056  32.1486863   7.1707101  80.5693650  26.1335695  11.8724873
  80.4851838  25.5261364  11.1375283  79.7476356  26.6244713  11.8734369
  87.6430934  39.5722859  11.0858041  87.5701105  40.3777830  11.5977346
  87.2008327  39.7714825  10.2606062  87.4320713  38.8094629   4.5960863
  86.6488235  39.3516309   4.6899087  88.1313458  39.3268609   4.9955104
  90.1029617  39.4709693  13.2416200  90.8157589  40.1057158  13.1692101
  89.6119646  39.5673559  12.4256202  91.8247144  33.3760946   4.8133491
  90.8903423  33.4962408   4.6438196  92.0023813  32.4733412   4.5493501
  87.3252332  26.7606641   6.9666753  86.9550120  26.2077682   7.6547658
  87.8211425  26.1564775   6.4141753  85.1541531  37.2204136  14.0621771
  85.8550990  37.8540619  14.2151165  84.6836646  37.5618868  13.3017410
  92.9542817  29.7748744  11.8874321  92.3014267  30.0224651  11.2326774
  93.3323197  28.9612882  11.5536798  89.9149991  39.8108437   5.9902491
  90.0972385  38.9930093   6.4530244  90.7382977  40.0276129   5.5527381
  90.2492156  38.7376622   3.2517540  90.7779923  38.2269077   2.6387702
  90.5120376  38.4219152   4.1163073  89.0030390  30.5168555  18.3740358
  88.3271027  30.4162684  19.0442733  89.8258024  30.3607769  18.8376355
  80.7509249  36.7540491  10.9952873  81.3362686  36.0084179  11.1280777
  80.5534087  37.0644448  11.8789537  83.6047904  39.7891739   6.0115316
  82.9358279  40.2737866   5.5279356  83.4660774  40.0360959   6.9258694
  75.3426904  29.3246092   9.7157316  75.3811003  28.7909682  10.5094435
  74.8367196  28.7981297   9.0968294  87.7453173  41.8235482  12.6097974
  88.2971481  41.9867104  13.3747059  88.0859366  42.4139920  11.9377999
  82.7217666  24.1710632  13.2119859  82.7858992  25.0325463  12.7997256
  82.6584786  23.5584634  12.4792217  82.1969938  26.2433765  16.8592893
  82.8241977  25.8610842  17.4730417  81.3397857  26.0247967  17.2248585
  92.5964047  36.6496740  18.4646628  93.1403951  37.2626698  17.9701583
  92.0150892  37.2076318  18.9813641  78.9735481  28.0510194   2.7911248
  79.2688922  27.1420872   2.7378302  78.0723517  28.0297933   2.4692250
  90.8821560  39.7717458   9.5961656  90.7572699  38.9707198   9.0872602
  91.5400651  40.2663651   9.1075626  82.5029728  26.1266190   8.7738796
  81.7816314  26.7402158   8.6346270  83.2922984  26.6623955   8.6955442
  92.9456468  37.5726478  11.2241206  91.9986804  37.4531829  11.1519533
  93.2939241  36.6848976  11.3067468  85.3056042  23.4620617  15.0479448
  85.8290443  23.7082913  15.8105757  85.0868375  24.2940652  14.6282585
  80.7023323  25.7324291   2.9150573  80.3736029  24.8521670   2.7325679
  81.0562693  25.6771960   3.8026962  89.9502902  37.3679194   7.4245558
  89.8027864  36.4395902   7.6053129  90.7756395  37.3899285   6.9402634
  83.8165146  26.0197261   3.2826051  84.1561218  26.5483183   2.5604659
  84.2637266  26.3577667   4.0584617  93.5537023  38.1907753   8.5110431
  94.4783571  37.9850614   8.3734882  93.3852327  37.9424154   9.4199773
  86.5108587  24.4034312  12.7329119  86.1705407  23.6042125  13.1349799
  85.8047593  24.7036023  12.1605952  87.1625059  21.4883624  11.1856442
  87.9851128  21.0144103  11.0635332  87.4063122  22.2674108  11.6855128
  84.6863637  28.1802745   8.9948420  84.5408218  28.4943048   9.8872702
  84.2088841  28.7987645   8.4419319  86.5460020  25.1705293   9.0429310
  86.5321589  24.2746386   8.7061608  87.2632448  25.1775957   9.6767596
  88.3986151  25.6042633  11.0882437  88.1403929  26.5259704  11.0866768
  87.8671191  25.2073068  11.7782901  93.3432340  38.7093420   3.8672523
  93.5169217  38.1439843   3.1146375  93.8361231  39.5094315   3.6852013
  79.1609299  30.7208089  11.9336082  78.6162768  31.4967897  12.0656356
  80.0388649  31.0678894  11.7755203  85.9496916  24.0519673   4.3116880
  86.0712827  23.1236319   4.5107768  85.6598958  24.0658359   3.3995195
  79.9475321  29.8477986  14.8266238  79.2057057  29.9960621  15.4130869
  79.6268066  30.1086251  13.9632988  87.8918984  39.3893964  14.6246628
  88.2006110  39.1443111  15.4969328  88.6894466  39.5940602  14.1365499
  87.9139596  41.5431874   6.8552005  87.4744586  41.0508252   7.5484862
  88.6647713  41.0004841   6.6144080  80.3931935  37.7343414   6.8576633
  81.2189955  37.4347186   6.4775277  80.0425987  36.9651037   7.3066422
  85.3613468  37.0869883   8.9274307  84.7393477  36.4240588   8.6276534
  86.0318335  37.1131015   8.2447954  78.5940540  35.6529741   7.8165567
  77.7572448  35.2251915   7.6349568  78.5664185  35.8462184   8.7536358
  85.4337996  25.5651671  18.5206813  85.4826151  26.4413793  18.1384582
  85.9760510  25.0229064  17.9478456  95.9192841  36.1092794  17.8007950
  95.1288385  36.0916933  17.2612449  95.6826196  36.6481088  18.5556986
  96.0390716  32.9585260  15.1140678  96.0888721  32.7935268  16.0556201
  95.9304640  32.0912519  14.7238559  84.9226975  35.6373806   2.4032767
  85.0715095  36.3209270   1.7499440  85.7293419  35.6178896   2.9182223
  93.3294479  28.9416188  16.4299985  94.2304342  28.8022653  16.1383983
  93.4042453  29.1070643  17.3698162  87.6637284  26.3183043  15.2753171
  86.7940593  26.6116609  15.0035760  87.8996764  26.9023488  15.9960435
  97.5408913  35.3782202  15.3582700  97.2493721  35.7412182  16.1946161
  96.9281044  34.6649210  15.1796032  95.7896101  30.5014816  13.8262758
  96.2650223  30.6942463  13.0181609  94.8661667  30.5574002  13.5806141
  82.6779608  31.6638984   3.4093836  82.4325650  30.7601314   3.6074046
  82.8475523  31.6656134   2.4673314  90.3676318  22.5362660  12.7918592
  90.8858262  23.2723687  12.4665080  90.0131451  22.8426653  13.6265351
  81.9475256  27.3967341   0.9079998  81.2544501  27.4711696   0.2520033
  81.7027007  26.6327685   1.4301514  88.4222381  38.1321936  -0.1255485
  87.8496348  38.7512124  -0.5785014  88.9955174  38.6821298   0.4084437
  94.4897770  27.3780577  12.0591063  95.4415193  27.4778674  12.0803287
  94.3201221  26.5858845  12.5689148  92.5112150  24.4636160  12.2450464
  91.9162082  24.7441172  11.5496953  92.2261847  24.9530061  13.0167205
  91.6419640  38.4159087   1.0053097  92.5750314  38.3504648   1.2085972
  91.5542853  39.2515353   0.5467630  96.9685848  30.5986696  11.1733363
  96.9362168  29.6602697  11.3593047  97.5786472  30.6770733  10.4399188
  88.6907872  33.5200495  18.6761224  89.6110881  33.6979094  18.8701271
  88.6557455  32.5756541  18.5240923  77.9090037  28.7139089   7.6014499
  77.5892821  27.8604397   7.3088873  77.3623465  28.9287667   8.3572466
  81.6869944  31.4301530  11.3184005  81.9055954  32.3618638  11.3372039
  82.0995718  31.0709504  12.1038809  86.5597809  27.0034736  20.7086754
  86.4594536  27.9529093  20.6398845  86.3419352  26.6752975  19.8362824
  77.7778297  32.3342000   9.5707620  77.0841768  31.9195953   9.0577575
  78.5251288  32.3762537   8.9741039  86.4229080  30.4331875  19.5251816
  85.9396161  31.2332235  19.7315705  86.5090019  30.4439819  18.5719260
  79.6915039  32.2660254   7.4473635  79.6685727  32.3647942   6.4955518
  80.0015676  33.1125405   7.7690801  82.3502417  34.3236409  11.5620250
  83.3045671  34.2920352  11.4950181  82.1514941  33.8627033  12.3770475
  82.9401799  32.8937525  14.1291047  83.7594688  33.3881604  14.1525885
  83.2138607  31.9769493  14.1008615  80.7052646  39.8656029   8.5790447
  80.5707114  39.1056430   8.0128445  80.2884708  40.5896929   8.1119236
  83.8621772  40.7625346   8.7908890  83.7454156  41.7070778   8.6887580
  83.0414218  40.4598907   9.1794689  78.1936713  27.2275659  14.8283244
  78.8395577  26.7174613  15.3170469  77.9853865  27.9644341  15.4026670
  90.7190106  34.2956507  20.3275385  91.5881265  34.4697159  19.9662020
  90.2396857  35.1150924  20.2051114  84.8876286  41.4153608  12.0064819
  85.7903533  41.4477218  12.3231313  84.6613656  40.4854059  12.0211154
  86.6429888  40.1684594   8.6674897  85.6925519  40.1686456   8.5539269
  86.9462374  39.4217329   8.1510932  82.5334204  24.3743276  18.9258259
  83.3965666  24.0180081  19.1361583  81.9599615  24.0357171  19.6133663
 102.3782581  46.0045133   9.7320660 103.0160991  45.8851880   9.0284000
 102.2603424  46.9525977   9.7908612  99.1872288  45.9572561   9.6682184
  98.8490799  45.8413625   8.7802719 100.0562056  45.5563726   9.6483190
  95.0459103  47.8108037   5.6579075  94.4823968  47.7197974   4.8895363
  94.9311498  46.9907942   6.1381568  99.6692071  47.1107412  15.6268390
  99.6580711  46.7160211  14.7548893  99.8312710  46.3773485  16.2202161
  92.5923535  49.3059229   8.4963296  93.3844827  48.9650053   8.0809595
  92.8320185  49.4154204   9.4165449 100.6258662  51.4779005   0.9693540
  99.9746642  52.0633085   0.5827554 101.4203025  52.0085200   1.0288578
  94.5514289  48.5668142   1.3680674  95.3245165  48.0197129   1.2293550
  94.9039688  49.4312391   1.5795136  96.3899332  49.8944524  14.5747574
  96.0989198  50.7990155  14.4594240  97.0256316  49.9361052  15.2891643
  97.3155539  47.2721373  11.1648933  97.9119111  47.0477395  10.4505896
  97.3730510  46.5306118  11.7674381 101.9323850  43.7296586   6.8073868
 102.7186939  43.3116010   6.4564285 102.1962554  44.6342679   6.9755516
  96.6076856  46.6288914   1.2023499  96.4913114  45.9533817   1.8704584
  96.7179116  46.1421288   0.3855652  98.9508397  46.0899061   4.9070189
  98.5866604  45.5629682   5.6183110  99.8075513  45.6997530   4.7336674
 104.8557697  37.3793394  12.1701455 104.5241022  38.2488805  11.9462670
 104.2603311  37.0629678  12.8495485 101.3489217  49.5805940  11.5697367
 101.0489940  50.4830979  11.4613175 101.0040276  49.3138123  12.4218520
  94.8001698  46.0319737   7.6034072  93.8752195  45.8995951   7.8111764
  95.0486111  46.8113956   8.1004014 104.7486361  42.0988480   9.2494805
 103.8403238  42.0303888   8.9553566 104.6973956  42.5760425  10.0776630
  92.1610509  45.6753010   8.4377861  92.2902890  45.9287489   9.3517273
  91.4807961  46.2680718   8.1182516  96.3309997  56.3450260   4.5368335
  96.2534026  57.2958085   4.6156816  95.7271640  55.9996133   5.1943261
  98.8227226  43.5178126  17.1929702  98.0460560  44.0772046  17.1832567
  99.4617789  44.0034909  17.7144572 106.6148007  40.3004918  11.0272679
 105.9722387  40.5937452  10.3812473 106.1102936  40.1857839  11.8325875
  97.0773599  46.3263579  16.7547669  97.8188283  46.8648623  16.4782493
  96.3710584  46.9529868  16.9119221 102.5528938  48.4692719  15.3519831
 102.9612294  48.0275130  14.6074463 101.8306200  47.8945347  15.6054023
  98.9060008  43.4065326  12.7253387  99.7521204  43.8304740  12.8688036
  98.8458646  42.7498950  13.4191951 102.8757753  49.0293910   9.1072119
 102.2466615  49.1939624   8.4048187 102.4883415  49.4435520   9.8783083
 106.7546985  49.9648348   6.4616483 106.0698023  50.3447249   5.9113516
 106.8390834  50.5743675   7.1948431 102.0559454  41.0669695  14.3834561
 101.8120386  41.8211755  13.8468837 102.3319384  41.4455042  15.2181808
 104.0097916  47.6108307  13.0611827 104.2214812  48.2540067  12.3846208
 103.9627665  46.7770623  12.5933757 101.6124145  40.2226128   9.9648399
 100.7508624  40.5207381  10.2565136 101.6386580  40.4396526   9.0329431
  98.4285715  48.7668318   6.3722204  98.8924060  49.0456021   5.5826827
  98.1642513  47.8651763   6.1895295  95.3209796  48.3139800   9.3101968
  95.8911153  48.7427068   8.6719452  95.9117908  48.0322384  10.0086153
  97.3654601  44.8891470   3.1811770  98.0678644  45.3412514   3.6485696
  97.0335229  44.2475289   3.8091663  95.8134962  43.4803227  17.5562979
  95.1833623  44.1619508  17.7898376  95.7071050  43.3686309  16.6116117
  91.1079935  43.1475023   8.4828903  90.3178989  43.4032552   8.0069014
  91.5991182  43.9623361   8.5880944 105.1243744  50.4880262  11.2334184
 105.9461188  50.0860450  10.9516866 105.1206147  50.3848496  12.1850300
  93.0594680  43.5119602   5.4412380  92.2625844  43.6238297   5.9595876
  92.8320272  43.8506255   4.5753270  98.8900348  50.0364306  13.3894895
  98.9544780  50.4984713  14.2253066  98.1811272  49.4061671  13.5177204
  89.3917638  43.4005514  10.9143894  89.6425676  44.2852523  11.1801470
  89.9277186  43.2210115  10.1418986  98.6048366  51.7032413   3.2573875
  98.4694040  52.5483949   3.6858723  99.1458178  51.9051691   2.4939809
  95.0915705  37.7823993  19.9188230  94.6982651  37.2290191  20.5935874
  95.9081845  38.0934571  20.3094748  92.0577763  49.2207851   3.8301800
  92.5702283  50.0151101   3.9807365  92.7100476  48.5234142   3.7635401
  93.8672648  52.3373607   5.9124553  94.0439276  53.2591572   5.7245537
  94.6629481  52.0232027   6.3418933  98.0083666  39.1981872  17.5108487
  98.7493380  39.7989025  17.4312949  98.2401589  38.4559510  16.9526529
  93.1525004  44.3838239  15.7886716  93.0378519  43.4823497  16.0893815
  92.2969522  44.6301936  15.4371533 100.2316842  52.3255980  17.3874217
  99.7880696  51.5392358  17.0695121 100.8934055  52.5135130  16.7218108
  94.9903963  53.8551781  11.9134895  95.5411388  53.7268845  11.1411889
  94.1515439  54.1546670  11.5629788 102.3298080  52.6058780  15.4155618
 102.3116555  53.4267661  14.9235887 103.2518000  52.4812855  15.6405759
  98.7871134  50.1202909  16.2579127  99.3199471  49.3591197  16.0278435
  98.2585215  49.8276561  17.0003281 101.9540829  35.2262975  11.7872768
 101.6105098  36.1164617  11.7111879 102.3219792  35.0364633  10.9242353
  90.0226680  47.5496505   4.6061370  90.8601902  47.9593514   4.3895078
  90.2004947  46.6095948   4.5761564 101.0337369  37.5967630   9.7522002
 100.5302165  37.5597765   8.9389807 101.3267976  38.5060373   9.8118658
  97.2780255  37.6806360   8.7588183  98.1433252  37.4849169   8.3994073
  97.3457764  37.4516712   9.6857540 100.1523847  49.2488901   3.7697939
  99.6245208  48.5141661   3.4571176  99.6511350  50.0263578   3.5237907
 105.1316693  47.4437922   8.8864985 104.4740367  48.1337183   8.9745114
 105.9357092  47.8334354   9.2298971  94.8842574  39.9108568   6.1304550
  95.4586326  39.6883749   5.3977743  95.4713557  39.9797262   6.8833151
 103.9422152  45.7982295   6.9368927 104.4554033  46.4312287   7.4390636
 104.5923376  45.1983490   6.5712287 100.4202983  43.2731750   9.1827267
  99.5025544  43.4946697   9.0248955 100.8363126  43.3478061   8.3238974
 104.7083948  50.7788296   5.0648069 104.2546275  49.9379206   5.1213260
 104.0777915  51.4149694   5.4022849 103.1516887  52.6164793   5.9997887
 103.4439861  53.1769850   5.2810253 103.6615508  52.9093354   6.7551047
  90.0452851  44.8887221   5.2772104  89.8477251  44.2956581   4.5523170
  89.4899515  44.5839431   5.9948043  98.0249574  44.7810327   7.3966697
  98.0798184  43.8284164   7.3209174  97.2140777  44.9369766   7.8807995
  95.9641934  43.3987387   5.1557076  95.1509800  43.6981558   5.5622268
  96.4600929  43.0043076   5.8731558  98.1150512  53.3945144   7.0891341
  98.0726691  53.6205990   6.1599873  99.0313211  53.1608518   7.2377142
 101.5616146  43.8629211  13.9871970 101.9165534  44.0900685  14.8466436
 102.2088277  44.1947588  13.3649225  95.4556009  40.9705742  10.7718311
  96.0955388  40.8294502  10.0741274  94.6233540  40.6840256  10.3956913
 107.3183263  49.0524174   9.7032570 107.7519769  48.9599463  10.5515624
 108.0314843  49.0281675   9.0652586  96.2316313  50.2708173   6.8853303
  97.0256912  49.7758493   6.6835878  95.5208005  49.7426036   6.5221009
 101.0511158  52.6526268  11.2365671 101.1048180  53.2217205  12.0043387
 100.1825939  52.8228153  10.8719708  92.5399077  44.4151255   2.9613056
  91.6096665  44.3535710   3.1783018  92.6356549  43.8927207   2.1649697
  92.4584626  40.9406067   5.5491298  92.7191443  41.8551401   5.4400458
  93.2801798  40.4730510   5.6987910  93.9309551  42.3543825  12.7190122
  94.6032604  42.1461187  12.0702771  93.1039337  42.1565911  12.2795354
 108.1798812  49.0947875  12.2365456 108.3734702  49.9993685  12.4824731
 108.0799430  48.6355294  13.0704041  99.8335123  38.9805766  14.7355783
  99.1863038  39.6795715  14.6420259 100.6036138  39.4141909  15.1032031
 103.2413921  49.2454618  17.8106336 103.0899427  49.0165169  16.8936420
 103.2318600  50.2025219  17.8237681 100.0099257  46.8186530  12.7952603
 100.9391317  46.9697690  12.6221570  99.5890287  46.9070551  11.9401249
  98.8087589  50.8437195  10.5651140  98.6698675  50.4755979  11.4377079
  98.0202185  51.3584834  10.3935098  99.4035741  55.9446291   1.9076677
  99.5787497  55.4734335   2.7222300  98.7168529  56.5712058   2.1357938
 100.3592804  50.2218798   7.9539978 100.0242637  50.1819568   8.8497628
  99.8596750  49.5563514   7.4810388  94.3337048  45.6286428  13.4792559
  94.1956846  44.8966666  14.0804098  95.2441972  45.5395328  13.1976747
  96.9619349  45.3406387  12.9676239  97.6718967  44.6999579  12.9262857
  96.9188657  45.5919282  13.8902420 104.9506128  52.2773740  15.8882818
 104.8918674  51.5932960  15.2213401 105.3525646  53.0192730  15.4363444
  95.6748283  42.3271605  14.7871878  95.1385640  41.8762343  15.4393475
  95.0864991  42.4617514  14.0442343  93.9696826  59.0935654   8.6816537
  94.2093425  59.7254178   9.3595556  93.1266023  58.7423694   8.9681896
 104.9523535  50.2413324  14.1196798 104.0650314  49.9039246  14.2423197
 105.5222086  49.5096355  14.3565563  86.6052682  46.5737416   7.4439849
  87.2923722  46.2599146   6.8560865  86.4500811  47.4778781   7.1707101
  91.4087404  41.4627613  11.8724873  91.3245593  40.8553282  11.1375283
  90.5870110  41.9536631  11.8734369  98.4824688  54.9014777  11.0858041
  98.4094860  55.7069748  11.5977346  98.0402081  55.1006742  10.2606062
  98.2714468  54.1386547   4.5960863  97.4881990  54.6808227   4.6899087
  98.9707213  54.6560526   4.9955104 100.9423372  54.8001611  13.2416200
 101.6551344  55.4349075  13.1692101 100.4513400  54.8965477  12.4256202
 102.6640899  48.7052863   4.8133491 101.7297177  48.8254326   4.6438196
 102.8417567  47.8025330   4.5493501  98.1646087  42.0898559   6.9666753
  97.7943874  41.5369599   7.6547658  98.6605179  41.4856693   6.4141753
  95.9935285  52.5496054  14.0621771  96.6944745  53.1832537  14.2151165
  95.5230400  52.8910786  13.3017410 103.7936571  45.1040662  11.8874321
 103.1408021  45.3516569  11.2326774 104.1716951  44.2904800  11.5536798
 100.7543745  55.1400355   5.9902491 100.9366140  54.3222011   6.4530244
 101.5776731  55.3568047   5.5527381 101.0885911  54.0668540   3.2517540
 101.6173677  53.5560994   2.6387702 101.3514130  53.7511070   4.1163073
  99.8424144  45.8460473  18.3740358  99.1664781  45.7454602  19.0442733
 100.6651778  45.6899686  18.8376355  91.5903003  52.0832409  10.9952873
  92.1756440  51.3376097  11.1280777  91.3927842  52.3936366  11.8789537
  94.4441659  55.1183657   6.0115316  93.7752034  55.6029784   5.5279356
  94.3054528  55.3652877   6.9258694  86.1820658  44.6538009   9.7157316
  86.2204758  44.1201600  10.5094435  85.6760951  44.1273215   9.0968294
  98.5846927  57.1527400  12.6097974  99.1365235  57.3159022  13.3747059
  98.9253121  57.7431838  11.9377999  93.5611420  39.5002550  13.2119859
  93.6252747  40.3617381  12.7997256  93.4978541  38.8876551  12.4792217
  93.0363693  41.5725682  16.8592893  93.6635732  41.1902760  17.4730417
  92.1791612  41.3539884  17.2248585 103.4357801  51.9788658  18.4646628
 103.9797705  52.5918616  17.9701583 102.8544646  52.5368236  18.9813641
  89.8129236  43.3802111   2.7911248  90.1082677  42.4712790   2.7378302
  88.9117271  43.3589851   2.4692250 101.7215314  55.1009376   9.5961656
 101.5966454  54.2999115   9.0872602 102.3794405  55.5955569   9.1075626
  93.3423483  41.4558108   8.7738796  92.6210068  42.0694076   8.6346270
  94.1316738  41.9915873   8.6955442 103.7850223  52.9018396  11.2241206
 102.8380558  52.7823747  11.1519533 104.1332996  52.0140894  11.3067468
  96.1449796  38.7912535  15.0479448  96.6684198  39.0374831  15.8105757
  95.9262129  39.6232569  14.6282585  91.5417077  41.0616209   2.9150573
  91.2129783  40.1813588   2.7325679  91.8956448  41.0063878   3.8026962
 100.7896656  52.6971112   7.4245558 100.6421618  51.7687819   7.6053129
 101.6150150  52.7191203   6.9402634  94.6558900  41.3489179   3.2826051
  94.9954973  41.8775100   2.5604659  95.1031021  41.6869585   4.0584617
 104.3930778  53.5199671   8.5110431 105.3177325  53.3142532   8.3734882
 104.2246081  53.2716072   9.4199773  97.3502341  39.7326230  12.7329119
  97.0099162  38.9334043  13.1349799  96.6441347  40.0327941  12.1605952
  98.0018813  36.8175542  11.1856442  98.8244882  36.3436020  11.0635332
  98.2456877  37.5966026  11.6855128  95.5257392  43.5094663   8.9948420
  95.3801972  43.8234966   9.8872702  95.0482595  44.1279563   8.4419319
  97.3853775  40.4997211   9.0429310  97.3715343  39.6038304   8.7061608
  98.1026203  40.5067874   9.6767596  99.2379905  40.9334551  11.0882437
  98.9797683  41.8551622  11.0866768  98.7064946  40.5364985  11.7782901
 104.1826094  54.0385338   3.8672523 104.3562972  53.4731761   3.1146375
 104.6754985  54.8386233   3.6852013  90.0003054  46.0500007  11.9336082
  89.4556522  46.8259815  12.0656356  90.8782404  46.3970812  11.7755203
  96.7890671  39.3811591   4.3116880  96.9106582  38.4528237   4.5107768
  96.4992713  39.3950277   3.3995195  90.7869076  45.1769903  14.8266238
  90.0450812  45.3252539  15.4130869  90.4661820  45.4378169  13.9632988
  98.7312738  54.7185882  14.6246628  99.0399865  54.4735028  15.4969328
  99.5288220  54.9232520  14.1365499  98.7533350  56.8723791   6.8552005
  98.3138341  56.3800170   7.5484862  99.5041467  56.3296759   6.6144080
  91.2325689  53.0635332   6.8576633  92.0583709  52.7639104   6.4775277
  90.8819741  52.2942955   7.3066422  96.2007223  52.4161800   8.9274307
  95.5787232  51.7532505   8.6276534  96.8712090  52.4422932   8.2447954
  89.4334295  50.9821659   7.8165567  88.5966203  50.5543833   7.6349568
  89.4057940  51.1754102   8.7536358  96.2731750  40.8943588  18.5206813
  96.3219906  41.7705711  18.1384582  96.8154264  40.3520981  17.9478456
 106.7586596  51.4384712  17.8007950 105.9682140  51.4208850  17.2612449
 106.5219950  51.9773005  18.5556986 106.8784471  48.2877178  15.1140678
 106.9282476  48.1227185  16.0556201 106.7698394  47.4204437  14.7238559
  95.7620730  50.9665724   2.4032767  95.9108850  51.6501188   1.7499440
  96.5687173  50.9470814   2.9182223 104.1688233  44.2708106  16.4299985
 105.0698096  44.1314571  16.1383983 104.2436208  44.4362561  17.3698162
  98.5031039  41.6474961  15.2753171  97.6334348  41.9408527  15.0035760
  98.7390519  42.2315406  15.9960435 108.3802668  50.7074119  15.3582700
 108.0887476  51.0704100  16.1946161 107.7674799  49.9941128  15.1796032
 106.6289856  45.8306734  13.8262758 107.1043978  46.0234380  13.0181609
 105.7055421  45.8865920  13.5806141  93.5173363  46.9930901   3.4093836
  93.2719404  46.0893231   3.6074046  93.6869277  46.9948052   2.4673314
 101.2070072  37.8654578  12.7918592 101.7252016  38.6015605  12.4665080
 100.8525205  38.1718571  13.6265351  92.7869010  42.7259259   0.9079998
  92.0938255  42.8003614   0.2520033  92.5420762  41.9619603   1.4301514
  99.2616135  53.4613854  -0.1255485  98.6890102  54.0804041  -0.5785014
  99.8348929  54.0113216   0.4084437 105.3291525  42.7072494  12.0591063
 106.2808948  42.8070592  12.0803287 105.1594975  41.9150763  12.5689148
 103.3505904  39.7928077  12.2450464 102.7555836  40.0733090  11.5496953
 103.0655601  40.2821978  13.0167205 102.4813395  53.7451004   1.0053097
 103.4144068  53.6796566   1.2085972 102.3936608  54.5807271   0.5467630
 107.8079603  45.9278614  11.1733363 107.7755923  44.9894615  11.3593047
 108.4180226  46.0062651  10.4399188  99.5301626  48.8492413  18.6761224
 100.4504636  49.0271012  18.8701271  99.4951209  47.9048458  18.5240923
  88.7483791  44.0431007   7.6014499  88.4286575  43.1896315   7.3088873
  88.2017219  44.2579585   8.3572466  92.5263699  46.7593448  11.3184005
  92.7449708  47.6910555  11.3372039  92.9389472  46.4001422  12.1038809
  97.3991564  42.3326653  20.7086754  97.2988291  43.2821010  20.6398845
  97.1813106  42.0044892  19.8362824  88.6172051  47.6633918   9.5707620
  87.9235523  47.2487871   9.0577575  89.3645042  47.7054455   8.9741039
  97.2622834  45.7623792  19.5251816  96.7789916  46.5624152  19.7315705
  97.3483773  45.7731737  18.5719260  90.5308794  47.5952172   7.4473635
  90.5079482  47.6939859   6.4955518  90.8409430  48.4417323   7.7690801
  93.1896172  49.6528327  11.5620250  94.1439425  49.6212269  11.4950181
  92.9908695  49.1918951  12.3770475  93.7795554  48.2229443  14.1291047
  94.5988443  48.7173522  14.1525885  94.0532361  47.3061411  14.1008615
  91.5446400  55.1947946   8.5790447  91.4100868  54.4348347   8.0128445
  91.1278463  55.9188846   8.1119236  94.7015526  56.0917263   8.7908890
  94.5847910  57.0362696   8.6887580  93.8807972  55.7890825   9.1794689
  89.0330468  42.5567577  14.8283244  89.6789331  42.0466531  15.3170469
  88.8247619  43.2936259  15.4026670 101.5583860  49.6248424  20.3275385
 102.4275020  49.7989077  19.9662020 101.0790612  50.4442841  20.2051114
  95.7270040  56.7445525  12.0064819  96.6297287  56.7769136  12.3231313
  95.5007410  55.8145976  12.0211154  97.4823642  55.4976512   8.6674897
  96.5319273  55.4978374   8.5539269  97.7856128  54.7509246   8.1510932
  93.3727959  39.7035194  18.9258259  94.2359420  39.3471999  19.1361583
  92.7993370  39.3649089  19.6133663 113.2176336  61.3337050   9.7320660
 113.8554746  61.2143798   9.0284000 113.0997179  62.2817894   9.7908612
 110.0266042  61.2864478   9.6682184 109.6884554  61.1705543   8.7802719
 110.8955810  60.8855644   9.6483190 110.5085825  62.4399330  15.6268390
 110.4974466  62.0452128  14.7548893 110.6706465  61.7065403  16.2202161
 103.4317290  64.6351146   8.4963296 104.2238582  64.2941971   8.0809595
 103.6713940  64.7446121   9.4165449 107.2293086  65.2236442  14.5747574
 106.9382952  66.1282073  14.4594240 107.8650071  65.2652970  15.2891643
 108.1549293  62.6013290  11.1648933 108.7512865  62.3769313  10.4505896
 108.2124265  61.8598036  11.7674381 112.7717604  59.0588504   6.8073868
 113.5580694  58.6407927   6.4564285 113.0356309  59.9634596   6.9755516
 115.6951452  52.7085311  12.1701455 115.3634777  53.5780722  11.9462670
 115.0997065  52.3921595  12.8495485 112.1882971  64.9097857  11.5697367
 111.8883694  65.8122896  11.4613175 111.8434031  64.6430041  12.4218520
 105.6395453  61.3611654   7.6034072 104.7145949  61.2287868   7.8111764
 105.8879866  62.1405874   8.1004014 115.5880115  57.4280398   9.2494805
 114.6796992  57.3595806   8.9553566 115.5367711  57.9052343  10.0776630
 103.0004264  61.0044928   8.4377861 103.1296645  61.2579407   9.3517273
 102.3201715  61.5972636   8.1182516 109.6620981  58.8470043  17.1929702
 108.8854315  59.4063963  17.1832567 110.3011544  59.3326826  17.7144572
 117.4541761  55.6296836  11.0272679 116.8116142  55.9229369  10.3812473
 116.9496690  55.5149756  11.8325875 107.9167353  61.6555497  16.7547669
 108.6582038  62.1940541  16.4782493 107.2104339  62.2821785  16.9119221
 113.3922693  63.7984637  15.3519831 113.8006049  63.3567048  14.6074463
 112.6699954  63.2237265  15.6054023 109.7453763  58.7357244  12.7253387
 110.5914958  59.1596657  12.8688036 109.6852401  58.0790868  13.4191951
 112.8953208  56.3961612  14.3834561 112.6514140  57.1503673  13.8468837
 113.1713139  56.7746960  15.2181808 114.8491671  62.9400225  13.0611827
 115.0608566  63.5831984  12.3846208 114.8021419  62.1062541  12.5933757
 112.4517900  55.5518045   9.9648399 111.5902379  55.8499299  10.2565136
 112.4780335  55.7688444   9.0329431 106.1603550  63.6431717   9.3101968
 106.7304907  64.0718986   8.6719452 106.7511662  63.3614302  10.0086153
 106.6528717  58.8095145  17.5562979 106.0227377  59.4911426  17.7898376
 106.5464805  58.6978226  16.6116117 101.9473689  58.4766941   8.4828903
 101.1572743  58.7324469   8.0069014 102.4384937  59.2915279   8.5880944
 103.8988435  58.8411520   5.4412380 103.1019598  58.9530214   5.9595876
 103.6714027  59.1798172   4.5753270 109.7294102  65.3656223  13.3894895
 109.7938535  65.8276631  14.2253066 109.0205026  64.7353588  13.5177204
 100.2311392  58.7297431  10.9143894 100.4819431  59.6144441  11.1801470
 100.7670941  58.5502033  10.1418986 105.9309460  53.1115911  19.9188230
 105.5376405  52.5582109  20.5935874 106.7475600  53.4226489  20.3094748
 108.8477421  54.5273790  17.5108487 109.5887134  55.1280943  17.4312949
 109.0795343  53.7851427  16.9526529 103.9918759  59.7130157  15.7886716
 103.8772274  58.8115414  16.0893815 103.1363276  59.9593854  15.4371533
 111.0710596  67.6547897  17.3874217 110.6274451  66.8684276  17.0695121
 111.7327810  67.8427048  16.7218108 105.8297718  69.1843699  11.9134895
 106.3805143  69.0560762  11.1411889 104.9909193  69.4838588  11.5629788
 113.1691834  67.9350697  15.4155618 113.1510310  68.7559578  14.9235887
 114.0911755  67.8104772  15.6405759 109.6264889  65.4494827  16.2579127
 110.1593225  64.6883115  16.0278435 109.0978970  65.1568478  17.0003281
 112.7934584  50.5554893  11.7872768 112.4498853  51.4456534  11.7111879
 113.1613546  50.3656550  10.9242353 100.8620434  62.8788423   4.6061370
 101.6995656  63.2885431   4.3895078 101.0398702  61.9387865   4.5761564
 111.8731124  52.9259548   9.7522002 111.3695920  52.8889683   8.9389807
 112.1661731  53.8352291   9.8118658 108.1174010  53.0098278   8.7588183
 108.9827007  52.8141086   8.3994073 108.1851519  52.7808629   9.6857540
 105.7236329  55.2400485   6.1304550 106.2980081  55.0175667   5.3977743
 106.3107311  55.3089180   6.8833151 111.2596737  58.6023668   9.1827267
 110.3419298  58.8238615   9.0248955 111.6756881  58.6769978   8.3238974
 100.8846605  60.2179138   5.2772104 100.6871005  59.6248499   4.5523170
 100.3293269  59.9131349   5.9948043 108.8643329  60.1102245   7.3966697
 108.9191939  59.1576081   7.3209174 108.0534531  60.2661684   7.8807995
 106.8035689  58.7279305   5.1557076 105.9903554  59.0273475   5.5622268
 107.2994683  58.3334993   5.8731558 112.4009901  59.1921129  13.9871970
 112.7559288  59.4192602  14.8466436 113.0482032  59.5239506  13.3649225
 106.2949764  56.2997660  10.7718311 106.9349143  56.1586419  10.0741274
 105.4627294  56.0132174  10.3956913 111.8904912  67.9818186  11.2365671
 111.9441934  68.5509122  12.0043387 111.0219693  68.1520071  10.8719708
 103.2978380  56.2697985   5.5491298 103.5585197  57.1843318   5.4400458
 104.1195552  55.8022428   5.6987910 104.7703305  57.6835742  12.7190122
 105.4426359  57.4753104  12.0702771 103.9433092  57.4857828  12.2795354
 110.6728877  54.3097683  14.7355783 110.0256792  55.0087633  14.6420259
 111.4429893  54.7433827  15.1032031 114.0807675  64.5746535  17.8106336
 113.9293182  64.3457087  16.8936420 114.0712355  65.5317137  17.8237681
 110.8493012  62.1478448  12.7952603 111.7785072  62.2989608  12.6221570
 110.4284042  62.2362469  11.9401249 109.6481344  66.1729113  10.5651140
 109.5092429  65.8047897  11.4377079 108.8595940  66.6876752  10.3935098
 105.1730803  60.9578345  13.4792559 105.0350601  60.2258584  14.0804098
 106.0835726  60.8687245  13.1976747 107.8013103  60.6698305  12.9676239
 108.5112722  60.0291497  12.9262857 107.7582411  60.9211199  13.8902420
 115.7899882  67.6065658  15.8882818 115.7312428  66.9224878  15.2213401
 116.1919400  68.3484648  15.4363444 106.5142037  57.6563523  14.7871878
 105.9779394  57.2054261  15.4393475 105.9258746  57.7909431  14.0442343
 115.7917289  65.5705242  14.1196798 114.9044068  65.2331164  14.2423197
 116.3615840  64.8388273  14.3565563  97.4446436  61.9029334   7.4439849
  98.1317476  61.5891064   6.8560865  97.2894565  62.8070698   7.1707101
 102.2481159  56.7919530  11.8724873 102.1639347  56.1845200  11.1375283
 101.4263865  57.2828549  11.8734369 111.7817126  70.1293528  13.2416200
 112.4945098  70.7640993  13.1692101 111.2907155  70.2257394  12.4256202
 109.0039841  57.4190477   6.9666753 108.6337629  56.8661517   7.6547658
 109.4998934  56.8148610   6.4141753 106.8329040  67.8787972  14.0621771
 107.5338499  68.5124455  14.2151165 106.3624155  68.2202703  13.3017410
 114.6330326  60.4332579  11.8874321 113.9801776  60.6808487  11.2326774
 115.0110706  59.6196717  11.5536798 110.6817899  61.1752390  18.3740358
 110.0058536  61.0746520  19.0442733 111.5045533  61.0191604  18.8376355
 102.4296758  67.4124327  10.9952873 103.0150195  66.6668015  11.1280777
 102.2321596  67.7228284  11.8789537  97.0214413  59.9829927   9.7157316
  97.0598512  59.4493518  10.5094435  96.5154705  59.4565133   9.0968294
 104.4005175  54.8294468  13.2119859 104.4646501  55.6909298  12.7997256
 104.3372295  54.2168469  12.4792217 103.8757447  56.9017600  16.8592893
 104.5029486  56.5194677  17.4730417 103.0185366  56.6831802  17.2248585
 114.2751556  67.3080575  18.4646628 114.8191460  67.9210533  17.9701583
 113.6938401  67.8660154  18.9813641 100.6522990  58.7094029   2.7911248
 100.9476431  57.8004708   2.7378302  99.7511026  58.6881769   2.4692250
 104.1817237  56.7850026   8.7738796 103.4603823  57.3985993   8.6346270
 104.9710493  57.3207791   8.6955442 106.9843551  54.1204452  15.0479448
 107.5077952  54.3666749  15.8105757 106.7655884  54.9524487  14.6282585
 102.3810832  56.3908127   2.9150573 102.0523538  55.5105506   2.7325679
 102.7350202  56.3355796   3.8026962 105.4952655  56.6781097   3.2826051
 105.8348727  57.2067018   2.5604659 105.9424775  57.0161503   4.0584617
 108.1896096  55.0618147  12.7329119 107.8492916  54.2625960  13.1349799
 107.4835102  55.3619858  12.1605952 108.8412567  52.1467460  11.1856442
 109.6638637  51.6727938  11.0635332 109.0850631  52.9257944  11.6855128
 106.3651146  58.8386580   8.9948420 106.2195727  59.1526883   9.8872702
 105.8876350  59.4571481   8.4419319 108.2247529  55.8289128   9.0429310
 108.2109098  54.9330222   8.7061608 108.9419957  55.8359792   9.6767596
 110.0773660  56.2626469  11.0882437 109.8191438  57.1843539  11.0866768
 109.5458700  55.8656903  11.7782901 100.8396808  61.3791925  11.9336082
 100.2950276  62.1551733  12.0656356 101.7176158  61.7262729  11.7755203
 107.6284425  54.7103509   4.3116880 107.7500336  53.7820155   4.5107768
 107.3386467  54.7242195   3.3995195 101.6262830  60.5061821  14.8266238
 100.8844566  60.6544456  15.4130869 101.3055575  60.7670087  13.9632988
 109.5706493  70.0477799  14.6246628 109.8793619  69.8026946  15.4969328
 110.3681975  70.2524438  14.1365499 100.2728049  66.3113576   7.8165567
  99.4359957  65.8835751   7.6349568 100.2451694  66.5046020   8.7536358
 107.1125505  56.2235506  18.5206813 107.1613660  57.0997629  18.1384582
 107.6548019  55.6812899  17.9478456 117.5980350  66.7676629  17.8007950
 116.8075894  66.7500768  17.2612449 117.3613705  67.3064923  18.5556986
 117.7178225  63.6169096  15.1140678 117.7676230  63.4519103  16.0556201
 117.6092149  62.7496355  14.7238559 115.0081988  59.6000024  16.4299985
 115.9091850  59.4606489  16.1383983 115.0829962  59.7654479  17.3698162
 109.3424793  56.9766878  15.2753171 108.4728102  57.2700444  15.0035760
 109.5784273  57.5607323  15.9960435 119.2196422  66.0366037  15.3582700
 118.9281230  66.3996018  16.1946161 118.6068553  65.3233045  15.1796032
 117.4683610  61.1598652  13.8262758 117.9437732  61.3526298  13.0181609
 116.5449176  61.2157838  13.5806141 112.0463827  53.1946495  12.7918592
 112.5645771  53.9307522  12.4665080 111.6918960  53.5010489  13.6265351
 116.1685279  58.0364412  12.0591063 117.1202702  58.1362510  12.0803287
 115.9988730  57.2442680  12.5689148 114.1899659  55.1219995  12.2450464
 113.5949591  55.4025008  11.5496953 113.9049356  55.6113896  13.0167205
 118.6473357  61.2570532  11.1733363 118.6149677  60.3186532  11.3593047
 119.2573981  61.3354568  10.4399188 110.3695381  64.1784331  18.6761224
 111.2898390  64.3562930  18.8701271 110.3344964  63.2340376  18.5240923
  99.5877546  59.3722924   7.6014499  99.2680330  58.5188233   7.3088873
  99.0410974  59.5871502   8.3572466 103.3657453  62.0885365  11.3184005
 103.5843463  63.0202473  11.3372039 103.7783227  61.7293340  12.1038809
 108.2385318  57.6618571  20.7086754 108.1382045  58.6112928  20.6398845
 108.0206860  57.3336810  19.8362824  99.4565806  62.9925836   9.5707620
  98.7629277  62.5779789   9.0577575 100.2038797  63.0346372   8.9741039
 108.1016589  61.0915710  19.5251816 107.6183670  61.8916070  19.7315705
 108.1877528  61.1023655  18.5719260 101.3702548  62.9244090   7.4473635
 101.3473236  63.0231777   6.4955518 101.6803185  63.7709240   7.7690801
 104.0289926  64.9820245  11.5620250 104.9833180  64.9504187  11.4950181
 103.8302450  64.5210868  12.3770475 104.6189308  63.5521361  14.1291047
 105.4382197  64.0465439  14.1525885 104.8926116  62.6353329  14.1008615
  99.8724222  57.8859495  14.8283244 100.5183086  57.3758449  15.3170469
  99.6641373  58.6228176  15.4026670 112.3977615  64.9540342  20.3275385
 113.2668774  65.1280994  19.9662020 111.9184366  65.7734759  20.2051114
 106.5663795  72.0737443  12.0064819 107.4691041  72.1061053  12.3231313
 106.3401165  71.1437894  12.0211154 104.2121713  55.0327112  18.9258259
 105.0753175  54.6763916  19.1361583 103.6387124  54.6941006  19.6133663
 116.7703214  68.4407828  19.9188230 116.3770160  67.8874027  20.5935874
 117.5869354  68.7518407  20.3094748 119.6871175  69.8565707  17.5108487
 120.4280888  70.4572861  17.4312949 119.9189098  69.1143345  16.9526529
 114.7151202  72.2309518  16.8592893 115.3423241  71.8486595  17.4730417
 113.8579121  72.0123720  17.2248585 117.9519259  71.5527424  18.5206813
 118.0007415  72.4289547  18.1384582 118.4941773  71.0104817  17.9478456
 119.0779073  72.9910489  20.7086754 118.9775800  73.9404846  20.6398845
 118.8600615  72.6628728  19.8362824 110.7117977  73.2151412  14.8283244
 111.3576840  72.7050366  15.3170469 110.5035128  73.9520094  15.4026670
 115.0515468  70.3619029  18.9258259 115.9146929  70.0055834  19.1361583
 114.4780879  70.0232924  19.6133663   4.8212185  77.4902851  87.2347313
   4.0675893  76.9210250  87.0791317   4.9559726  77.4565516  88.1817947
   1.6427933  77.4605602  85.1390980   2.0859079  76.7112927  84.7410103
   0.7654443  77.4515738  84.7564712   1.1860798  78.9310840  87.5313427
   2.0207689  79.3700644  87.6950987   1.3219926  78.4549493  86.7121673
   5.2318600  77.6478461  89.9667557   5.9621989  77.3863750  90.5275260
   4.6225546  76.9107183  90.0069625   3.3133897  75.7886324  90.5642008
   2.5867061  75.6542289  89.9558500   2.8981184  76.0963153  91.3698726
   0.9311692  72.0098176  87.9175440   1.5256183  71.7693912  87.2068748
   1.0038276  71.2905307  88.5448976   3.2382765  75.3164377  86.6918861
   2.6782323  75.3857566  87.4650423   2.6326268  75.1405362  85.9718357
   4.8238783  91.9920891  89.3848817   5.4617193  91.8727638  88.6812157
   4.7059626  92.9401735  89.4436769   1.6328490  91.9448319  89.3210341
   1.2947001  91.8289384  88.4330876   2.5018258  91.5439484  89.3011347
   3.0714864  97.4654763  80.6221697   2.4202844  98.0508844  80.2355711
   3.8659227  97.9960958  80.6816735   4.3780052  89.7172345  86.4602025
   5.1643141  89.2991768  86.1092442   4.6418756  90.6218437  86.6283673
   4.5490129  95.1545195  81.1590681   3.9135962  95.2279822  81.8711586
   4.2187536  95.7438794  80.4809761   9.7788479  89.6547578  87.3635003
  10.5113651  89.0846795  87.5972833   9.0227835  89.2669178  87.8041509
   1.3964599  92.0774820  84.5598346   1.0322806  91.5505441  85.2711267
   2.2531715  91.6873289  84.3864831   7.3013899  83.3669152  91.8229612
   6.9697224  84.2364563  91.5990827   6.7059513  83.0505436  92.5023642
   1.0370086  87.1064719  79.5559694   1.2044488  87.9744956  79.9230165
   0.8467255  87.2692001  78.6320983   3.7945419  95.5681698  91.2225525
   3.4946142  96.4706737  91.1141332   3.4496478  95.3013881  92.0746677
   7.1942563  88.0864238  88.9022962   6.2859440  88.0179647  88.6081723
   7.1430158  88.5636183  89.7304787   9.0604209  86.2880677  90.6800836
   8.4178589  86.5813210  90.0340630   8.5559138  86.1733597  91.4854032
   6.7144373  90.0343850  81.3686695   7.6262229  90.2671237  81.1934393
   6.2054020  90.6180894  80.8061774   4.9985140  94.4568478  95.0047988
   5.4068496  94.0150888  94.2602620   4.2762402  93.8821105  95.2582180
   1.3516210  89.3941085  92.3781545   2.1977406  89.8180498  92.5216194
   1.2914848  88.7374709  93.0720108   5.3213955  95.0169668  88.7600276
   4.6922817  95.1815383  88.0576344   4.9339617  95.4311278  89.5311241
   9.2003187  95.9524106  86.1144640   8.5154225  96.3323008  85.5641674
   9.2847036  96.5619433  86.8476588   4.5015656  87.0545453  94.0362718
   4.2576588  87.8087513  93.4996994   4.7775586  87.4330800  94.8709965
   6.4554119  93.5984065  92.7139984   6.6671014  94.2415825  92.0374365
   6.4083867  92.7646382  92.2461914   4.0580347  86.2101886  89.6176556
   3.1964827  86.5083139  89.9093293   4.0842782  86.4272285  88.6857589
   0.8741917  94.7544076  86.0250362   1.3380262  95.0331779  85.2354984
   0.6098715  93.8527521  85.8423452   7.5699946  96.4756021  90.8862341
   8.3917390  96.0736208  90.6045023   7.5662349  96.3724255  91.8378457
  15.6605940  92.8194769  87.2347313  14.9069648  92.2502167  87.0791317
  15.7953481  92.7857434  88.1817947   1.0504568  97.6908171  82.9102032
   0.9150242  98.5359707  83.3386880   1.5914380  97.8927449  82.1467966
   4.3997031  81.2138733  91.4400925   4.0561301  82.1040375  91.3640036
   4.7675994  81.0240391  90.5770510   4.3647314  91.2047344  79.9473361
   3.8493937  91.9751949  80.1861748   4.0924622  90.5312481  80.5706422
   1.9494425  86.0497045  85.0058599   1.0936021  85.6603896  84.8264238
   2.3621377  86.1289006  84.1458384   3.4793572  83.5843388  89.4050159
   2.9758367  83.5473524  88.5917964   3.7724178  84.4936131  89.4646815
   9.3381588  93.9579699  81.8826534   8.5611031  93.6190859  81.4381696
  10.0173069  93.9632322  81.2081499   4.1533617  89.0774437  81.7733142
   3.8483753  89.3920586  82.6243285   5.1064059  89.1555856  81.8160475
   2.5980049  95.2364660  83.4226096   2.0701410  94.5017419  83.1099333
   2.0967552  96.0139336  83.1766064   7.5772895  93.4313680  88.5393142
   6.9196569  94.1212942  88.6273271   8.3813294  93.8210112  88.8827128
   6.3878354  91.7858053  86.5897084   6.9010235  92.4188045  87.0918793
   7.0379578  91.1859249  86.2240444   3.6500728 101.7642377  79.3457755
   2.9762427 102.0674074  79.9542713   4.0366550 102.5671458  78.9963212
   2.8659185  89.2607509  88.8355424   1.9481746  89.4822456  88.6777112
   3.2819328  89.3353819  87.9767132   3.6494232  90.6598924  83.9658105
   4.3966051  91.1720321  83.6565227   3.9185822  90.3382977  84.8262498
   1.9220882  93.1557465  80.9485059   1.0132102  92.8716498  81.0457529
   1.9515966  93.5756544  80.0888366   7.1540150  96.7664054  84.7176226
   6.7002477  95.9254964  84.7741417   6.5234117  97.4025453  85.0551007
   6.0973069  87.6956041  85.9476894   5.3595826  87.1833427  86.2787136
   6.3499843  87.2556422  85.1360171   5.5973089  98.6040551  85.6526045
   5.8896064  99.1645608  84.9338410   6.1071710  98.8969112  86.4079204
   6.1984697  80.4732293  86.5418663   6.5043574  79.6129656  86.2544578
   6.9237302  81.0649913  86.3417657   1.6196970  94.6966209  78.2873137
   1.1816400  93.9802068  77.8278775   2.3607411  94.9242323  77.7258229
   0.5606714  99.3820902  86.7419498   0.5182893  99.6081749  85.8128030
   1.4769413  99.1484277  86.8905299   4.0072348  89.8504970  93.6400127
   4.3621736  90.0776443  94.4994593   4.6544479  90.1823347  93.0177382
   9.7370085  92.9723406  84.3449456   9.5987984  93.1625002  83.4170645
   9.3806304  93.7342789  84.8017507   9.7639465  95.0399933  89.3560727
  10.1975971  94.9475222  90.2043781  10.4771045  95.0157433  88.7180743
   3.4967360  98.6402027  90.8893828   3.5504382  99.2092963  91.6571544
   2.6282141  98.8103912  90.5247865  10.6255014  95.0823633  91.8893613
  10.8190904  95.9869444  92.1352888  10.5255632  94.6231052  92.7232198
   2.2791325  84.9681524  94.3883940   1.6319240  85.6671474  94.2948417
   3.0492340  85.4017668  94.7560188   2.4555459  92.8062289  92.4480760
   3.3847519  92.9573448  92.2749727   2.0346489  92.8946310  91.5929406
   1.8491943 101.9322050  81.5604834   2.0243699 101.4610093  82.3750457
   1.1624731 102.5587816  81.7886095   2.8049006  96.2094556  87.6068135
   2.4698839  96.1695326  88.5025785   2.3052952  95.5439272  87.1338546
   5.7408198  93.5550590  77.8805195   5.1237369  92.8297418  77.7838248
   5.2724686  94.3159951  77.5372269   7.3962330  98.2649499  95.5410975
   7.3374876  97.5808719  94.8741558   7.7981848  99.0068489  95.0891601
   7.3979737  96.2289083  93.7724955   6.5106516  95.8915004  93.8951354
   7.9678288  95.4972114  94.0093720   4.0267320  85.9356934  86.8923225
   4.5236020  85.1826897  86.5724295   3.2554301  85.9721251  86.3266434
  11.8797077  91.6397300  88.5341517  11.8686954  92.5222015  88.1635450
  11.0114457  91.2868851  88.3396054   5.1097101  94.6928622  84.4661649
   4.1753379  94.8130084  84.2966353   5.2873769  93.7901088  84.2021658
   8.4969652  90.5345941  85.0011683   8.9630104  91.3673933  84.9271985
   8.9477153  90.0690922  85.7056941   6.5645883  96.8789762  81.9997835
   6.8405727  96.7646357  82.9091709   5.6950382  96.4807247  81.9610008
   6.4686315  82.9026528  89.0402584   5.5549395  83.1330755  89.2084791
   6.8979416  82.9864972  89.8916616   6.2392773  91.0916420  91.5402478
   5.5864223  91.3392327  90.8854931   6.6173153  90.2780558  91.2064955
   3.1999947 101.1276113  85.6430648   3.3822342 100.3097769  86.1058401
   4.0232933 101.3443805  85.2055538   3.5342113 100.0544298  82.9045697
   4.0629879  99.5436753  82.2915859   3.7970332  99.7386828  83.7691230
   4.1671516 101.0885134  89.2489813   4.0422656 100.2874874  88.7400759
   4.8250608 101.5831327  88.7603783   6.2306425  98.8894154  90.8769363
   5.2836760  98.7699505  90.8047690   6.5789198  98.0016652  90.9595625
   3.2352858  98.6846870  87.0773716   3.0877821  97.7563578  87.2581286
   4.0606352  98.7066961  86.5930791   6.8386980  99.5075429  88.1638588
   7.7633527  99.3018290  88.0263039   6.6702283  99.2591830  89.0727930
   3.2314372  86.5384708  82.0705833   3.4477987  87.4209346  81.7694661
   2.7508440  86.1470921  81.3411475   1.6836107  86.9210309  90.7410594
   1.4253885  87.8427380  90.7394925   1.1521148  86.5240744  91.4311059
   6.6282296 100.0261096  83.5200680   6.8019174  99.4607519  82.7674532
   7.1211187 100.8261991  83.3380170   2.1038063  83.0542260  87.1011757
   2.1259760  83.1181593  86.1463737   2.5206122  82.2146768  87.2952263
  12.4821687  92.7897519  85.1390980  12.9252833  92.0404845  84.7410103
  11.6048198  92.7807656  84.7564712   7.6157469  99.3427861  80.6197578
   8.3108373  99.9634553  80.8384893   7.9580619  98.4923212  80.8949956
   9.5148892  96.7927566  82.1484909  10.0400216  97.1314839  81.4234229
   9.4271244  95.8574582  81.9648043   1.1989553 102.8599550  86.5080162
   0.7594543 102.3675928  87.2013019   1.9497669 102.3172517  86.2672237
   9.3240673  94.2752936  94.7668835   9.3738678  94.1102944  95.7084358
   9.2154596  93.4080195  94.3766716   6.6144435  90.2583864  96.0828142
   7.5154298  90.1190329  95.7912140   6.6892410  90.4238319  97.0226319
  10.8258870  96.6949878  95.0110857  10.5343678  97.0579858  95.8474318
  10.2131001  95.9816886  94.8324189  12.0254552  94.2602758  87.5313427
  12.8601443  94.6992562  87.6950987  12.1613681  93.7841411  86.7121673
   9.0746058  91.8182492  93.4790915   9.5500180  92.0110139  92.6709766
   8.1511623  91.8741678  93.2334299   3.6526274  83.8530336  92.4446749
   4.1708218  84.5891363  92.1193237   3.2981407  84.1594329  93.2793508
   3.9038869  80.2730619  87.9647645   4.1840622  79.6053808  88.5908072
   4.6889476  80.4659714  87.4522309   1.7072337  99.4489612  79.5272672
   1.1346304 100.0679800  79.0743144   2.2805131  99.9988974  80.0612594
   7.7747727  88.6948253  91.7119220   8.7265150  88.7946350  91.7331445
   7.6051177  87.9026521  92.2217305   5.7962106  85.7803836  91.8978621
   5.2012039  86.0608849  91.2025110   5.5111803  86.2697737  92.6695362
   4.9269597  99.7326763  80.6581254   5.8600270  99.6672324  80.8614129
   4.8392810 100.5683029  80.1995787   7.5557614  99.0492633  77.6185202
   7.4771245  98.7152497  78.5120959   8.3767280  99.5414401  77.6176674
  10.2535805  91.9154372  90.8261520  10.2212125  90.9770373  91.0121204
  10.8636428  91.9938409  90.0927345   2.0919136  90.7850425  76.8688724
   3.0378240  90.6556633  76.9377142   1.7133381  90.0465087  77.3458152
  10.4030293  88.7065416  90.8719803   9.8869342  87.9223872  90.6849732
  11.2870242  88.3784132  91.0366323   8.0641020  82.4506431  86.8315616
   7.8665841  82.1421519  87.7158948   8.6740726  83.1768070  86.9613546
  16.0712355  92.9770379  89.9667557  16.8015743  92.7155667  90.5275260
  15.4619300  92.2399101  90.0069625  14.1527652  91.1178242  90.5642008
  13.4260815  90.9834207  89.9558500  13.7374939  91.4255070  91.3698726
   1.8924118  83.2537291  82.9587851   1.0824847  82.9084376  83.3343097
   2.5808535  82.9444835  83.5475462   3.8214667  82.3315338  84.5812147
   4.3745705  82.7510792  85.2402170   4.0584753  81.4051086  84.6235103
   7.1993474  84.4415863  84.0890812   6.6192143  85.1000667  83.7068864
   6.9329407  83.6193208  83.6778229   5.6497040  83.8420921  86.2912132
   6.1496819  83.9537456  85.4826451   6.2932648  83.5381974  86.9312940
   5.9818352  86.6015954  83.1447160   5.0944207  86.8865604  82.9267355
   6.3972341  86.4409717  82.2974437   9.3332888  86.6262475  86.8601499
  10.1093278  87.1158927  87.1326116   8.6081022  87.0520529  87.3173369
  11.7705447  87.3390094  87.9175440  12.3649937  87.0985830  87.2068748
  11.8432030  86.6197224  88.5448976   5.1261565  96.3660628  77.2395180
   5.8297415  96.5710631  77.8552835   4.4024214  96.9337390  77.5044263
   5.9559376  92.1170490  83.3597450   5.8994577  92.5739041  82.5205082
   6.5087718  91.3561174  83.1820293   9.7664182  87.9060221  84.1847569
   9.5101116  87.5056857  85.0155777   9.1417050  88.6204015  84.0597709
  14.0776519  90.6456295  86.6918861  13.5176077  90.7149484  87.4650423
  13.4720023  90.4697279  85.9718357   7.0348263  96.8043158  79.2893640
   7.8693867  96.3724356  79.1071115   6.8732606  96.6325171  80.2170534
   6.6894155  93.3075271  80.6549979   6.6342959  93.1419542  79.7138423
   6.0640210  94.0151304  80.8112169   3.8142400  79.4026157  84.4881234
   3.0474796  78.8484643  84.6337917   4.2253105  79.4748025  85.3495386
  15.6632538 107.3212809  89.3848817  16.3010948 107.2019556  88.6812157
  15.5453381 108.2693653  89.4436769  12.4722244 107.2740237  89.3210341
  12.1340756 107.1581301  88.4330876  13.3412012 106.8731402  89.3011347
  10.1730524 106.0428484  78.6527281  10.4256044 105.5210005  77.8910744
   9.2355083 105.8794630  78.7553965  15.2173806 105.0464263  86.4602025
  16.0036896 104.6283686  86.1092442  15.4812511 105.9510355  86.6283673
  20.6182233 104.9839496  87.3635003  21.3507405 104.4138713  87.5972833
  19.8621589 104.5961096  87.8041509  12.2358353 107.4066737  84.5598346
  11.8716560 106.8797358  85.2711267  13.0925469 107.0165206  84.3864831
  18.1407654  98.6961070  91.8229612  17.8090979  99.5656481  91.5990827
  17.5453267  98.3797354  92.5023642  11.8763840 102.4356637  79.5559694
  12.0438243 103.3036873  79.9230165  11.6861009 102.5983919  78.6320983
  18.0336317 103.4156156  88.9022962  17.1253194 103.3471564  88.6081723
  17.9823913 103.8928101  89.7304787  11.8553061 104.8914294  80.5406361
  11.7352686 105.3371345  81.3791841  11.1605649 105.2399612  79.9819899
  19.8997964 101.6172594  90.6800836  19.2572344 101.9105128  90.0340630
  19.3952892 101.5025515  91.4854032  17.5538127 105.3635768  81.3686695
  18.4655983 105.5963154  81.1934393  17.0447774 105.9472812  80.8061774
  15.8378895 109.7860395  95.0047988  16.2462251 109.3442806  94.2602620
  15.1156156 109.2113023  95.2582180  12.1909965 104.7233002  92.3781545
  13.0371160 105.1472416  92.5216194  12.1308603 104.0666627  93.0720108
  15.3409410 102.3837371  94.0362718  15.0970342 103.1379431  93.4996994
  15.6169341 102.7622718  94.8709965  17.2947873 108.9275983  92.7139984
  17.5064768 109.5707743  92.0374365  17.2477621 108.0938299  92.2461914
  14.8974102 101.5393804  89.6176556  14.0358581 101.8375057  89.9093293
  14.9236537 101.7564202  88.6857589  10.6504557 106.2059147  82.8339927
  11.3528601 106.6580190  83.3013853  10.3185186 105.5642965  83.4619820
   4.3929891 104.4642699  88.1357060   3.6028945 104.7200228  87.6597171
   4.8841139 105.2791037  88.2409101   6.3444637 104.8287278  85.0940537
   5.5475800 104.9405973  85.6124033   6.1170229 105.1673931  84.2281428
  26.4999694 108.1486687  87.2347313  25.7463402 107.5794085  87.0791317
  26.6347235 108.1149351  88.1817947  11.2933623 100.5149548  97.1636644
  12.0343336 101.1156701  97.0841106  11.5251546  99.7727186  96.6054686
  15.2390786  96.5430651  91.4400925  14.8955055  97.4332293  91.3640036
  15.6069748  96.3532309  90.5770510  15.2041068 106.5339262  79.9473361
  14.6887692 107.3043867  80.1861748  14.9318377 105.8604398  80.5706422
  12.7888179 101.3788963  85.0058599  11.9329776 100.9895813  84.8264238
  13.2015131 101.4580924  84.1458384  14.3187326  98.9135306  89.4050159
  13.8152122  98.8765441  88.5917964  14.6117933  99.8228049  89.4646815
  10.5630212  98.9974036  88.4116340  11.4283209  98.8016845  88.0522230
  10.6307721  98.7684388  89.3385697  20.1775342 109.2871617  81.8826534
  19.4004785 108.9482776  81.4381696  20.8566823 109.2924240  81.2081499
  14.9927372 104.4066354  81.7733142  14.6877507 104.7212503  82.6243285
  15.9457814 104.4847774  81.8160475  18.4166649 108.7605598  88.5393142
  17.7590324 109.4504859  88.6273271  19.2207049 109.1502030  88.8827128
   8.1692531 101.2276244  85.7832707   8.7436283 101.0051425  85.0505900
   8.7563513 101.2964938  86.5361308  17.2272108 107.1149971  86.5897084
  17.7403990 107.7479963  87.0918793  17.8773332 106.5151166  86.2240444
   8.4962118 103.2580705  79.8028592   7.6599430 103.5955391  80.1237867
   8.3566888 103.1229685  78.8655729  10.4715199  98.1017493  84.5107777
   9.8179611  97.7866510  83.8864391  10.4295673  97.4793233  85.2367600
  11.5826404 108.3836788  76.4261069  10.6753465 108.1526041  76.6252218
  12.0797436 107.5874407  76.6135050  13.7052939 104.5899426  88.8355424
  12.7875500 104.8114373  88.6777112  14.1213083 104.6645737  87.9767132
  14.4887987 105.9890842  83.9658105  15.2359806 106.5012239  83.6565227
  14.7579576 105.6674895  84.8262498  12.7614637 108.4849383  80.9485059
  11.8525856 108.2008415  81.0457529  12.7909721 108.9048461  80.0888366
  16.9366824 103.0247958  85.9476894  16.1989581 102.5125344  86.2787136
  17.1893597 102.5848340  85.1360171  17.0378451  95.8024210  86.5418663
  17.3437328  94.9421574  86.2544578  17.7631056  96.3941830  86.3417657
  11.3099531 106.0978003  87.0494854  11.3648141 105.1451840  86.9737331
  10.4990733 106.2537442  87.5336153   9.2491891 104.7155063  84.8085233
   8.4359756 105.0149234  85.2150425   9.7450885 104.3210752  85.5259715
  14.8466103 105.1796887  93.6400127  15.2015490 105.4068361  94.4994593
  15.4938234 105.5115264  93.0177382  20.5763840 108.3015323  84.3449456
  20.4381738 108.4916919  83.4170645  20.2200058 109.0634706  84.8017507
   8.7405966 102.2873419  90.4246468   9.3805345 102.1462178  89.7269431
   7.9083496 102.0007932  90.0485070  20.6033219 110.3691850  89.3560727
  21.0369726 110.2767139  90.2043781  21.3164800 110.3449351  88.7180743
   5.8249033 105.7318931  82.6141213   4.8946621 105.6703386  82.8311175
   5.9206505 105.2094883  81.8177854   5.7434582 102.2573744  85.2019455
   6.0041399 103.1719077  85.0928615   6.5651754 101.7898186  85.3516068
  21.4648769 110.4115551  91.8893613  21.6584659 111.3161362  92.1352888
  21.3649387 109.9522970  92.7232198  13.1185079 100.2973442  94.3883940
  12.4712995 100.9963391  94.2948417  13.8886095 100.7309586  94.7560188
  13.2949214 108.1354207  92.4480760  14.2241274 108.2865366  92.2749727
  12.8740244 108.2238227  91.5929406  16.5801952 108.8842508  77.8805195
  15.9631123 108.1589336  77.7838248  16.1118441 109.6451868  77.5372269
   8.3700498 103.1027932  77.0026499   7.4929965 102.9816733  76.6388746
   8.8458251 102.3114011  76.7505388  14.8661074 101.2648852  86.8923225
  15.3629774 100.5118814  86.5724295  14.0948056 101.3013169  86.3266434
  22.7190832 106.9689218  88.5341517  22.7080708 107.8513933  88.1635450
  21.8508211 106.6160768  88.3396054  11.4496043 103.4066235  86.6194910
  11.0793831 102.8537275  87.3075815  11.9455136 102.8024369  86.0669910
  19.3363406 105.8637859  85.0011683  19.8023859 106.6965850  84.9271985
  19.7870907 105.3982840  85.7056941  17.3080069  98.2318446  89.0402584
  16.3943149  98.4622672  89.2084791  17.7373171  98.3156890  89.8916616
  17.0786528 106.4208338  91.5402478  16.4257978 106.6684245  90.8854931
  17.4566908 105.6072476  91.2064955   6.8461377 100.8170226  92.8648016
   6.9102703 101.6785057  92.4525414   6.7828497 100.2044228  92.1320374
   3.0979192 104.6969788  82.4439405   3.3932633 103.7880466  82.3906459
   2.1967228 104.6757527  82.1220407   6.6273439 102.7725784  88.4266954
   5.9060025 103.3861752  88.2874427   7.4166695 103.3083549  88.3483599
   9.4299753 100.1080211  94.7007605   9.9534154 100.3542507  95.4633915
   9.2112086 100.9400245  94.2810743   4.8267034 102.3783885  82.5678730
   4.4979740 101.4981264  82.3853836   5.1806404 102.3231554  83.4555119
   7.9408857 102.6656855  82.9354208   8.2804929 103.1942776  82.2132816
   8.3880977 103.0037261  83.7112774  10.6352298 101.0493906  92.3857276
  10.2949118 100.2501719  92.7877956   9.9291304 101.3495617  91.8134109
  11.2868770  98.1343218  90.8384599  12.1094839  97.6603696  90.7163489
  11.5306833  98.9133702  91.3383285   9.9277004 101.1631477  81.1347500
  10.6485367 101.5412729  80.6311217   9.3042308 101.8820353  81.2382478
  14.0708127 101.8676626  82.0705833  14.2871741 102.7501263  81.7694661
  13.5902194 101.4762839  81.3411475   8.8107348 104.8262339  88.6476577
   8.6651929 105.1402642  89.5400859   8.3332552 105.4447239  88.0947476
  10.6703731 101.8164887  88.6957467  10.6565300 100.9205980  88.3589765
  11.3876159 101.8235550  89.3295753  12.5229862 102.2502227  90.7410594
  12.2647640 103.1719298  90.7394925  11.9914902 101.8532661  91.4311059
  10.0740627 100.6979267  83.9645037  10.1956538  99.7695913  84.1635925
   9.7842669 100.7117953  83.0523353  12.9431818  98.3834177  87.1011757
  12.9653514  98.4473511  86.1463737  13.3599877  97.5438686  87.2952263
  23.3215442 108.1189437  85.1390980  23.7646588 107.3696762  84.7410103
  22.4441952 108.1099573  84.7564712  20.1634427 109.6044854  94.7668835
  20.2132432 109.4394861  95.7084358  20.0548351 108.7372113  94.3766716
  17.4538190 105.5875782  96.0828142  18.3548053 105.4482247  95.7912140
  17.5286164 105.7530237  97.0226319  11.7880995 102.9642637  94.9281328
  10.9184305 103.2576203  94.6563917  12.0240475 103.5483082  95.6488592
  22.8648307 109.5894675  87.5313427  23.6995198 110.0284479  87.6950987
  23.0007435 109.1133329  86.7121673  19.9139812 107.1474410  93.4790915
  20.3893934 107.3402056  92.6709766  18.9905378 107.2033596  93.2334299
  14.4920029  99.1822254  92.4446749  15.0101973  99.9183281  92.1193237
  14.1375162  99.4886247  93.2793508   6.0718967 104.0426935  80.5608155
   5.3788212 104.1171290  79.9048191   5.8270718 103.2787279  81.0829672
  14.7432623  95.6022536  87.9647645  15.0234377  94.9345725  88.5908072
  15.5283230  95.7951632  87.4522309  18.6141481 104.0240170  91.7119220
  19.5658904 104.1238268  91.7331445  18.4444932 103.2318439  92.2217305
  16.6355861 101.1095753  91.8978621  16.0405793 101.3900766  91.2025110
  16.3505558 101.5989654  92.6695362  21.0929559 107.2446290  90.8261520
  21.0605879 106.3062291  91.0121204  21.7030183 107.3230327  90.0927345
  12.9312890 106.1142343  76.8688724  13.8771995 105.9848551  76.9377142
  12.5527135 105.3757005  77.3458152  21.2424048 104.0357333  90.8719803
  20.7263096 103.2515790  90.6849732  22.1263996 103.7076050  91.0366323
  18.9034775  97.7798349  86.8315616  18.7059596  97.4713437  87.7158948
  19.5134480  98.5059988  86.9613546  26.9106109 108.3062297  89.9667557
  27.6409498 108.0447585  90.5275260  26.3013055 107.5691019  90.0069625
  24.9921406 106.4470159  90.5642008  24.2654570 106.3126124  89.9558500
  24.5768693 106.7546988  91.3698726  11.1155807 104.0392319  76.8043609
  10.2087263 103.7425432  76.8806323  11.3931788 103.7422137  75.9377896
  12.7317873  98.5829209  82.9587851  11.9218601  98.2376294  83.3343097
  13.4202290  98.2736753  83.5475462  14.6608421  97.6607256  84.5812147
  15.2139460  98.0802709  85.2402170  14.8978508  96.7343004  84.6235103
   9.8854592 100.8979255  76.9455589  10.7473756 101.2234153  77.2051406
  10.0704936 100.1110750  76.4328654  18.0387228  99.7707781  84.0890812
  17.4585897 100.4292585  83.7068864  17.7723161  98.9485126  83.6778229
  16.4890795  99.1712839  86.2912132  16.9890573  99.2829373  85.4826451
  17.1326403  98.8673892  86.9312940  16.8212106 101.9307871  83.1447160
  15.9337961 102.2157522  82.9267355  17.2366095 101.7701635  82.2974437
  20.1726643 101.9554392  86.8601499  20.9487033 102.4450845  87.1326116
  19.4474777 102.3812447  87.3173369  22.6099201 102.6682012  87.9175440
  23.2043692 102.4277748  87.2068748  22.6825785 101.9489142  88.5448976
  16.7953130 107.4462407  83.3597450  16.7388332 107.9030959  82.5205082
  17.3481473 106.6853092  83.1820293  20.6057936 103.2352139  84.1847569
  20.3494870 102.8348775  85.0155777  19.9810804 103.9495933  84.0597709
  24.9170274 105.9748212  86.6918861  24.3569832 106.0441402  87.4650423
  24.3113777 105.7989197  85.9718357  17.5287909 108.6367189  80.6549979
  17.4736713 108.4711460  79.7138423  16.9033965 109.3443221  80.8112169
  10.8384035  98.1375298  80.2335298  10.8262705  99.0817137  80.3903568
  11.7307457  97.9545443  79.9394759  14.6536154  94.7318074  84.4881234
  13.8868550  94.1776561  84.6337917  15.0646859  94.8039943  85.3495386
  26.0784540 111.8722569  91.4400925  25.7348810 112.7624210  91.3640036
  26.4463503 111.6824226  90.5770510  27.8772206 111.1316128  86.5418663
  28.1831083 110.2713491  86.2544578  28.6024811 111.7233748  86.3417657
  28.1473824 113.5610363  89.0402584  27.2336904 113.7914590  89.2084791
  28.5766925 113.6448807  89.8916616  25.5826378 110.9314454  87.9647645
  25.8628131 110.2637643  88.5908072  26.3676985 111.1243550  87.4522309
  29.7428529 113.1090267  86.8315616  29.5453350 112.8005355  87.7158948
  30.3528235 113.8351906  86.9613546  25.5002176 112.9899174  84.5812147
  26.0533214 113.4094627  85.2402170  25.7372262 112.0634922  84.6235103
  25.4929909 110.0609992  84.4881234  24.7262305 109.5068479  84.6337917
  25.9040614 110.1331861  85.3495386   4.8212186  54.4964974  73.9592619
   4.0675895  53.9272372  73.8036624   4.9559727  54.4627639  74.9063254
   1.6427934  54.4667724  71.8636286   2.0859080  53.7175049  71.4655409
   0.7654444  54.4577861  71.4810018   1.1860799  55.9372963  74.2558734
   2.0207690  56.3762767  74.4196294   1.3219928  55.4611616  73.4366980
   5.2318601  54.6540584  76.6912864   5.9621990  54.3925872  77.2520567
   4.6225547  53.9169306  76.7314932   3.3133898  52.7948447  77.2887315
   2.5867062  52.6604412  76.6803806   2.8981185  53.1025275  78.0944033
   0.9311693  49.0160299  74.6420746   1.5256184  48.7756035  73.9314055
   1.0038277  48.2967429  75.2694283   3.2382766  52.3226500  73.4164168
   2.6782324  52.3919689  74.1895730   2.6326270  52.1467484  72.6963664
   4.8238785  68.9983014  76.1094123   5.4617195  68.8789761  75.4057463
   4.7059628  69.9463858  76.1682075   1.6328491  68.9510442  76.0455648
   1.2947002  68.8351506  75.1576183   2.5018259  68.5501607  76.0256654
   2.1148274  70.1045293  82.0041853   2.1036915  69.7098092  81.1322357
   2.2768913  69.3711366  82.5975625   3.0714865  74.4716886  67.3467004
   2.4202845  75.0570966  66.9601018   3.8659228  75.0023081  67.4062041
   4.3780053  66.7234467  73.1847331   5.1643142  66.3053891  72.8337748
   4.6418757  67.6280560  73.3528980   4.5490130  72.1607318  67.8835988
   3.9135963  72.2341944  68.5956893   4.2187537  72.7500917  67.2055067
   9.7788480  66.6609701  74.0880310  10.5113652  66.0908917  74.3218139
   9.0227836  66.2731301  74.5286815   1.3964600  69.0836942  71.2843652
   1.0322807  68.5567563  71.9956574   2.2531716  68.6935411  71.1110138
   7.3013901  60.3731275  78.5474918   6.9697225  61.2426686  78.3236133
   6.7059514  60.0567559  79.2268949   1.0370087  64.1126842  66.2805001
   1.2044489  64.9807078  66.6475472   0.8467256  64.2754124  65.3566290
   3.7945420  72.5743821  77.9470831   3.4946143  73.4768860  77.8386638
   3.4496480  72.3076004  78.7991984   7.1942564  65.0926361  75.6268268
   6.2859441  65.0241769  75.3327029   7.1430160  65.5698306  76.4550094
   1.2683430  66.5116007  83.5703166   0.4916764  67.0709927  83.5606030
   1.9073993  66.9972789  84.0918036   9.0604210  63.2942799  77.4046142
   8.4178591  63.5875332  76.7585937   8.5559139  63.1795720  78.2099339
   6.7144374  67.0405973  68.0932002   7.6262230  67.2733359  67.9179699
   6.2054021  67.6243017  67.5307080   4.9985142  71.4630600  81.7293294
   5.4068498  71.0213011  80.9847927   4.2762403  70.8883228  81.9827487
   1.3516212  66.4003207  79.1026851   2.1977407  66.8242621  79.2461500
   1.2914849  65.7436831  79.7965414   5.3213956  72.0231791  75.4845583
   4.6922819  72.1877505  74.7821651   4.9339618  72.4373401  76.2556547
   9.2003188  72.9586229  72.8389947   8.5154226  73.3385130  72.2886980
   9.2847037  73.5681555  73.5721895   4.5015657  64.0607575  80.7608025
   4.2576589  64.8149636  80.2242301   4.7775588  64.4392923  81.5955272
   6.4554120  70.6046188  79.4385290   6.6671015  71.2477948  78.7619671
   6.4083868  69.7708504  78.9707220   4.0580349  63.2164008  76.3421863
   3.1964828  63.5145262  76.6338600   4.0842783  63.4334407  75.4102895
   0.8741918  71.7606199  72.7495668   1.3380264  72.0393902  71.9600291
   0.6098716  70.8589644  72.5668759   7.5699948  73.4818143  77.6107648
   8.3917391  73.0798331  77.3290329   7.5662351  73.3786377  78.5623764
   1.3356551  73.0302187  79.7668358   1.4000984  73.4922594  80.6026530
   0.6267475  72.3999551  79.8950668  15.6605941  69.8256892  73.9592619
  14.9069649  69.2564290  73.8036624  15.7953482  69.7919556  74.9063254
   1.0504569  74.6970294  69.6347339   0.9150244  75.5421830  70.0632186
   1.5914381  74.8989572  68.8713272   2.6773045  75.3193861  83.7647681
   2.2336899  74.5330239  83.4468585   3.3390259  75.5073011  83.0991571
   4.7754283  75.5996660  81.7929082   4.7572759  76.4205542  81.3009351
   5.6974203  75.4750736  82.0179223   1.2327337  73.1140790  82.6352590
   1.7655674  72.3529078  82.4051898   0.7041419  72.8214442  83.3776745
   4.3997032  58.2200856  78.1646232   4.0561302  59.1102498  78.0885343
   4.7675995  58.0302514  77.3015817   4.3647315  68.2109467  66.6718667
   3.8493939  68.9814072  66.9107055   4.0924624  67.5374603  67.2951729
   1.9494426  63.0559168  71.7303906   1.0936022  62.6666018  71.5509544
   2.3621378  63.1351129  70.8703691   3.4793573  60.5905511  76.1295465
   2.9758368  60.5535646  75.3163271   3.7724180  61.4998254  76.1892122
   9.3381589  70.9641822  68.6071841   8.5611032  70.6252981  68.1627003
  10.0173070  70.9694445  67.9326806   4.1533618  66.0836559  68.4978448
   3.8483754  66.3982708  69.3488592   5.1064060  66.1617979  68.5405781
   2.5980050  72.2426782  70.1471402   2.0701412  71.5079542  69.8344640
   2.0967553  73.0201459  69.9011371   7.5772896  70.4375803  75.2638449
   6.9196571  71.1275064  75.3518577   8.3813295  70.8272235  75.6072435
   6.3878355  68.7920176  73.3142390   6.9010237  69.4250167  73.8164100
   7.0379579  68.1921371  72.9485750   3.6500729  78.7704500  66.0703062
   2.9762428  79.0736197  66.6788019   4.0366551  79.5733580  65.7208519
   2.8659186  66.2669631  75.5600731   1.9481747  66.4884578  75.4022419
   3.2819329  66.3415942  74.7012438   3.6494234  67.6661047  70.6903411
   4.3966053  68.1782444  70.3810533   3.9185823  67.3445100  71.5507805
   1.9220884  70.1619588  67.6730365   1.0132103  69.8778620  67.7702835
   1.9515968  70.5818666  66.8133672   7.1540151  73.7726177  71.4421533
   6.7002478  72.9317087  71.4986723   6.5234118  74.4087575  71.7796313
   6.0973071  64.7018163  72.6722200   5.3595828  64.1895549  73.0032443
   6.3499844  64.2618545  71.8605477   5.5973090  75.6102674  72.3771351
   5.8896065  76.1707731  71.6583717   6.1071711  75.9031235  73.1324510
   6.1984698  57.4794415  73.2663970   6.5043575  56.6191779  72.9789885
   6.9237303  58.0712035  73.0662964   1.6196972  71.7028331  65.0118444
   1.1816401  70.9864190  64.5524081   2.3607412  71.9304446  64.4503535
   0.5606716  76.3883025  73.4664804   0.5182894  76.6143871  72.5373336
   1.4769414  76.1546399  73.6150605   4.0072349  66.8567092  80.3645434
   4.3621737  67.0838566  81.2239899   4.6544481  67.1885469  79.7422689
   9.7370086  69.9785528  71.0694763   9.5987985  70.1687124  70.1415952
   9.3806305  70.7404911  71.5262814   9.7639466  72.0462055  76.0806034
  10.1975973  71.9537344  76.9289088  10.4771047  72.0219556  75.4426050
   3.4967361  75.6464149  77.6139135   3.5504383  76.2155086  78.3816851
   2.6282142  75.8166034  77.2493172  10.6255016  72.0885756  78.6138919
  10.8190906  72.9931566  78.8598194  10.5255634  71.6293175  79.4477505
   2.2791326  61.9743647  81.1129247   1.6319241  62.6733596  81.0193723
   3.0492342  62.4079790  81.4805495   5.6870124  72.2392499  84.1879800
   5.5355631  72.0103050  83.2709884   5.6774804  73.1963100  84.2011145
   2.4555461  69.8124411  79.1726067   3.3847521  69.9635571  78.9995034
   2.0346491  69.9008432  78.3174713   1.8491944  78.9384172  68.2850141
   2.0243700  78.4672216  69.0995763   1.1624732  79.5649939  68.5131401
   2.8049008  73.2156679  74.3313442   2.4698840  73.1757449  75.2271092
   2.3052953  72.5501394  73.8583852   5.7408199  70.5612713  64.6050502
   5.1237370  69.8359541  64.5083554   5.2724688  71.3222073  64.2617576
   7.3962331  75.2711621  82.2656282   7.3374877  74.5870841  81.5986865
   7.7981849  76.0130611  81.8136908   7.3979738  73.2351205  80.4970262
   6.5106517  72.8977127  80.6196660   7.9678289  72.5034236  80.7339027
   0.9280891  77.8952658  77.4631505   0.8551063  78.7007629  77.9750809
   0.4858285  78.0944623  76.6379526   4.0267321  62.9419057  73.6168532
   4.5236021  62.1889019  73.2969602   3.2554303  62.9783374  73.0511741
  11.8797079  68.6459423  75.2586823  11.8686955  69.5284138  74.8880756
  11.0114458  68.2930973  75.0641360   3.3879575  77.7939492  79.6189663
   4.1007547  78.4286956  79.5465565   2.8969604  77.8903358  78.8029665
   5.1097102  71.6990744  71.1906955   4.1753381  71.8192207  71.0211659
   5.2873770  70.7963211  70.9266965   8.4969653  67.5408064  71.7256989
   8.9630105  68.3736055  71.6517292   8.9477154  67.0753045  72.4302248
   6.5645884  73.8851885  68.7243141   6.8405728  73.7708479  69.6337015
   5.6950383  73.4869370  68.6855314   6.4686316  59.9088651  75.7647891
   5.5549396  60.1392877  75.9330098   6.8979417  59.9927095  76.6161923
   6.2392775  68.0978542  78.2647785   5.5864225  68.3454450  77.6100237
   6.6173154  67.2842681  77.9310262   3.1999948  78.1338236  72.3675955
   3.3822343  77.3159892  72.8303707   4.0232934  78.3505928  71.9300845
   3.5342114  77.0606421  69.6291003   4.0629880  76.5498875  69.0161166
   3.7970333  76.7448951  70.4936536   2.2880348  68.8398354  84.7513822
   1.6120985  68.7392483  85.4216197   3.1107981  68.6837567  85.2149819
   1.0303130  80.1465281  78.9871438   1.5821438  80.3096902  79.7520523
   1.3709324  80.7369719  78.3151463   5.8814005  74.9726538  84.8420092
   6.4253909  75.5856497  84.3475047   5.3000850  75.5306117  85.3587105
   4.1671518  78.0947257  75.9735120   4.0422657  77.2936996  75.4646065
   4.8250609  78.5893450  75.4849090   6.2306426  75.8956277  77.6014670
   5.2836762  75.7761628  77.5292997   6.5789199  75.0078775  77.6840931
   3.2352859  75.6908993  73.8019022   3.0877822  74.7625700  73.9826592
   4.0606353  75.7129084  73.3176097   6.8386981  76.5137552  74.8883895
   7.7633529  76.3080413  74.7508346   6.6702285  76.2653953  75.7973236
   3.2314374  63.5446830  68.7951139   3.4477988  64.4271468  68.4939968
   2.7508441  63.1533044  68.0656781   1.6836109  63.9272432  77.4655901
   1.4253886  64.8489503  77.4640231   1.1521149  63.5302866  78.1556365
   6.6282297  77.0323219  70.2445986   6.8019175  76.4669641  69.4919839
   7.1211189  77.8324114  70.0625476   2.1038064  60.0604382  73.8257064
   2.1259761  60.1243715  72.8709043   2.5206123  59.2208891  74.0197570
  12.4821689  69.7959642  71.8636286  12.9252835  69.0466967  71.4655409
  11.6048199  69.7869778  71.4810018   7.6157470  76.3489983  67.3442885
   8.3108375  76.9696676  67.5630199   7.9580620  75.4985335  67.6195263
   9.5148893  73.7989689  68.8730215  10.0400217  74.1376962  68.1479535
   9.4271246  72.8636704  68.6893350   1.1768942  77.7123763  81.0020092
   1.4856068  77.4672909  81.8742792   1.9744424  77.9170401  80.5138962
   1.1989554  79.8661672  73.2325469   0.7594544  79.3738051  73.9258325
   1.9497671  79.3234640  72.9917544   9.2042799  74.4322593  84.1781413
   8.4138343  74.4146731  83.6385913   8.9676154  74.9710886  84.9330450
   9.3240674  71.2815059  81.4914142   9.3738679  71.1165066  82.4329665
   9.2154597  70.4142318  81.1012023   6.6144437  67.2645987  82.8073449
   7.5154299  67.1252452  82.5157446   6.6892411  67.4300442  83.7471626
  10.8258871  73.7012000  81.7356164  10.5343679  74.0641981  82.5719624
  10.2131002  72.9879009  81.5569496  12.0254553  71.2664880  74.2558734
  12.8601445  71.7054684  74.4196294  12.1613682  70.7903533  73.4366980
   9.0746059  68.8244615  80.2036221   9.5500181  69.0172261  79.3955073
   8.1511625  68.8803801  79.9579605   3.6526276  60.8592459  79.1692055
   4.1708220  61.5953486  78.8438544   3.2981408  61.1656452  80.0038815
   3.9038870  57.2792741  74.6892952   4.1840624  56.6115930  75.3153379
   4.6889477  57.4721837  74.1767616   1.7072338  76.4551735  66.2517978
   1.1346305  77.0741922  65.7988450   2.2805132  77.0051097  66.7857900
   7.7747728  65.7010375  78.4364527   8.7265151  65.8008473  78.4576751
   7.6051179  64.9088644  78.9462611   5.7962108  62.7865958  78.6223928
   5.2012040  63.0670971  77.9270417   5.5111804  63.2759859  79.3940669
   4.9269598  76.7388885  67.3826561   5.8600271  76.6734447  67.5859436
   4.8392811  77.5745152  66.9241093   7.5557615  76.0554756  64.3430508
   7.4771246  75.7214619  65.2366266   8.3767282  76.5476523  64.3421980
  10.2535806  68.9216495  77.5506827  10.2212126  67.9832496  77.7366511
  10.8636430  69.0000532  76.8172652   2.0919137  67.7912548  63.5934031
   3.0378242  67.6618756  63.6622449   1.7133382  67.0527210  64.0703459
  10.4030294  65.7127538  77.5965110   9.8869343  64.9285995  77.4095039
  11.2870243  65.3846255  77.7611629   8.0641021  59.4568554  73.5560923
   7.8665843  59.1483642  74.4404255   8.6740727  60.1830193  73.6858852
  16.0712356  69.9832502  76.6912864  16.8015744  69.7217790  77.2520567
  15.4619301  69.2461224  76.7314932  14.1527653  68.1240364  77.2887315
  13.4260817  67.9896329  76.6803806  13.7374940  68.4317193  78.0944033
   1.9757829  71.8430294  85.0534688   2.8960839  72.0208893  85.2474734
   1.9407412  70.8986339  84.9014387   1.8924120  60.2599414  69.6833157
   1.0824848  59.9146499  70.0588403   2.5808537  59.9506958  70.2720769
   3.8214668  59.3377461  71.3057454   4.3745707  59.7572914  71.9647477
   4.0584754  58.4113209  71.3480410   7.1993475  61.4477986  70.8136118
   6.6192144  62.1062790  70.4314171   6.9329408  60.6255331  70.4023536
   5.6497041  60.8483044  73.0157439   6.1496820  60.9599578  72.2071757
   6.2932649  60.5444096  73.6558247   5.9818353  63.6078076  69.8692466
   5.0944208  63.8927727  69.6512661   6.3972342  63.4471840  69.0219743
   9.3332889  63.6324597  73.5846806  10.1093279  64.1221050  73.8571423
   8.6081023  64.0582651  74.0418675  11.7705448  64.3452216  74.6420746
  12.3649939  64.1047952  73.9314055  11.8432032  63.6259347  75.2694283
   5.1261567  73.3722751  63.9640486   5.8297417  73.5772753  64.5798142
   4.4024215  73.9399513  64.2289570   5.9559377  69.1232612  70.0842757
   5.8994578  69.5801164  69.2450389   6.5087719  68.3623297  69.9065599
   9.7664183  64.9122344  70.9092876   9.5101117  64.5118980  71.7401084
   9.1417051  65.6266138  70.7843015  14.0776521  67.6518417  73.4164168
  13.5176079  67.7211607  74.1895730  13.4720024  67.4759402  72.6963664
   7.0348264  73.8105280  66.0138947   7.8693868  73.3786479  65.8316421
   6.8732607  73.6387294  66.9415841   6.6894156  70.3137393  67.3795286
   6.6342960  70.1481665  66.4383730   6.0640211  71.0213426  67.5357476
   4.0040063  72.6186305  86.7048849   4.8731223  72.7926958  86.3435484
   3.5246815  73.4380722  86.5824578   3.8142401  56.4088279  71.2126541
   3.0474797  55.8546766  71.3583223   4.2253106  56.4810148  72.0740693
  15.6632539  84.3274931  76.1094123  16.3010949  84.2081679  75.4057463
  15.5453382  85.2755775  76.1682075  12.4722245  84.2802359  76.0455648
  12.1340757  84.1643424  75.1576183  13.3412014  83.8793524  76.0256654
   8.3309061  86.1337836  72.0352539   7.7673926  86.0427773  71.2668827
   8.2161456  85.3137740  72.5155031  12.9542028  85.4337211  82.0041853
  12.9430669  85.0390009  81.1322357  13.1162668  84.7003284  82.5975625
   5.8773493  87.6289027  74.8736759   6.6694785  87.2879852  74.4583059
   6.1170143  87.7384002  75.7938913  13.9108620  89.8008803  67.3467004
  13.2596600  90.3862884  66.9601018  14.7052983  90.3314998  67.4062041
   7.8364247  86.8897941  67.7454138   8.6095123  86.3426928  67.6067014
   8.1889646  87.7542190  67.9568600   9.6749290  88.2174323  80.9521037
   9.3839155  89.1219954  80.8367704  10.3106274  88.2590851  81.6665107
  10.6005496  85.5951171  77.5422397  11.1969069  85.3707194  76.8279360
  10.6580468  84.8535917  78.1447845  10.1730525  83.0490607  65.3772588
  10.4256045  82.5272128  64.6156051   9.2355084  82.8856752  65.4799272
  15.2173808  82.0526385  73.1847331  16.0036897  81.6345808  72.8337748
  15.4812512  82.9572477  73.3528980  15.3883885  87.4899235  67.8835988
  14.7529718  87.5633862  68.5956893  15.0581291  88.0792834  67.2055067
  20.6182235  81.9901618  74.0880310  21.3507407  81.4200835  74.3218139
  19.8621590  81.6023219  74.5286815   9.8926814  84.9518713  67.5796963
   9.7763072  84.2763616  68.2478047  10.0029073  84.4651087  66.7629116
  12.2358354  84.4128860  71.2843652  11.8716562  83.8859481  71.9956574
  13.0925470  84.0227329  71.1110138  18.1407655  75.7023192  78.5474918
  17.8090980  76.5718603  78.3236133  17.5453268  75.3859476  79.2268949
  11.8763841  79.4418760  66.2805001  12.0438244  80.3098996  66.6475472
  11.6861010  79.6046041  65.3566290  14.6339175  87.9035738  77.9470831
  14.3339898  88.8060777  77.8386638  14.2890234  87.6367922  78.7991984
   8.0851656  84.3549535  73.9807536   7.1602153  84.2225749  74.1885227
   8.3336069  85.1343755  74.4777478  18.0336318  80.4218279  75.6268268
  17.1253196  80.3533687  75.3327029  17.9823914  80.8990224  76.4550094
  11.8553062  81.8976417  67.2651668  11.7352687  82.3433468  68.1037148
  11.1605651  82.2461735  66.7065206   5.4460467  83.9982809  74.8151325
   5.5752848  84.2517288  75.7290736   4.7657918  84.5910517  74.4955980
   9.6159954  94.6680059  70.9141799   9.5383984  95.6187884  70.9930279
   9.0121598  94.3225931  71.5716725  12.1077184  81.8407924  83.5703166
  11.3310518  82.4001844  83.5606030  12.7467747  82.3264707  84.0918036
  19.8997965  78.6234717  77.4046142  19.2572345  78.9167250  76.7585937
  19.3952893  78.5087637  78.2099339  17.5538128  82.3697890  68.0932002
  18.4655985  82.6025277  67.9179699  17.0447776  82.9534934  67.5307080
  10.3623556  84.6493378  83.1321133  11.1038241  85.1878422  82.8555956
   9.6560542  85.2759666  83.2892685  15.8378896  86.7922518  81.7293294
  16.2462252  86.3504929  80.9847927  15.1156158  86.2175146  81.9827487
  12.1909966  81.7295125  79.1026851  13.0371161  82.1534538  79.2461500
  12.1308604  81.0728749  79.7965414  16.1607711  87.3523709  75.4845583
  15.5316573  87.5169423  74.7821651  15.7733373  87.7665318  76.2556547
  20.0396943  88.2878146  72.8389947  19.3547981  88.6677048  72.2886980
  20.1240792  88.8973473  73.5721895  15.3409411  79.3899493  80.7608025
  15.0970343  80.1441554  80.2242301  15.6169342  79.7684841  81.5955272
  17.2947874  85.9338106  79.4385290  17.5064770  86.5769865  78.7619671
  17.2477623  85.1000422  78.9707220  14.8974103  78.5455926  76.3421863
  14.0358582  78.8437180  76.6338600  14.9236538  78.7626325  75.4102895
  11.7135673  87.0898117  72.7495668  12.1774018  87.3685820  71.9600291
  11.4492471  86.1881561  72.5668759   8.6059754  86.6369598  75.6875431
   9.1761111  87.0656867  75.0492916   9.1967866  86.3552183  76.3859617
  10.6504559  83.2121269  69.5585233  11.3528602  83.6642313  70.0259160
  10.3185187  82.5705088  70.1865126   9.0984920  81.8033026  83.9336443
   8.4683581  82.4849307  84.1671840   8.9921008  81.6916107  82.9889581
   4.3929893  81.4704822  74.8602367   3.6028947  81.7262350  74.3842478
   4.8841140  82.2853160  74.9654407  18.4093702  88.8110061  77.6107648
  19.2311146  88.4090248  77.3290329  18.4056105  88.7078295  78.5623764
   6.3444638  81.8349401  71.8185844   5.5475801  81.9468095  72.3369339
   6.1170230  82.1736053  70.9526734  12.1750306  88.3594104  79.7668358
  12.2394738  88.8214511  80.6026530  11.4661230  87.7291469  79.8950668
   2.6767596  81.7235312  77.2917358   2.9275634  82.6082322  77.5574934
   3.2127144  81.5439914  76.5192450  26.4999695  85.1548809  73.9592619
  25.7463404  84.5856207  73.8036624  26.6347236  85.1211474  74.9063254
  11.8898323  90.0262212  69.6347339  11.7543998  90.8713747  70.0632186
  12.4308136  90.2281489  68.8713272   8.3765663  76.1053792  86.2961694
   7.9832609  75.5519990  86.9709338   9.1931803  76.4164370  86.6868211
   5.3427721  87.5437650  70.2075264   5.8552241  88.3380900  70.3580828
   5.9950434  86.8463940  70.1408865   7.1522605  90.6603406  72.2898017
   7.3289234  91.5821371  72.1019001   7.9479439  90.3461825  72.7192397
  11.2933624  77.5211671  83.8881950  12.0343337  78.1218824  83.8086413
  11.5251547  76.7789308  83.3299993   6.4374962  82.7068038  82.1660180
   6.3228477  81.8053295  82.4667279   5.5819480  82.9531735  81.8144997
  13.5166800  90.6485778  83.7647681  13.0730654  89.8622157  83.4468585
  14.1784013  90.8364929  83.0991571   8.2753921  92.1781580  78.2908359
   8.8261346  92.0498643  77.5185353   7.4365397  92.4776469  77.9403252
  15.6148038  90.9288578  81.7929082  15.5966513  91.7497459  81.3009351
  16.5367958  90.8042653  82.0179223  12.0721092  88.4432708  82.6352590
  12.6049429  87.6820996  82.4051898  11.5435173  88.1506359  83.3776745
  15.2390787  73.5492774  78.1646232  14.8955056  74.4394415  78.0885343
  15.6069749  73.3594431  77.3015817   3.3076637  85.8726304  70.9834834
   4.1451859  86.2823312  70.7668542   3.4854905  84.9325746  70.9535028
  15.2041070  83.5401385  66.6718667  14.6887693  84.3105989  66.9107055
  14.9318378  82.8666521  67.2951729  12.7888181  78.3851085  71.7303906
  11.9329777  77.9957936  71.5509544  13.2015132  78.4643046  70.8703691
  14.3187327  75.9197429  76.1295465  13.8152123  75.8827564  75.3163271
  14.6117934  76.8290171  76.1892122  10.5630213  76.0036158  75.1361647
  11.4283210  75.8078967  74.7767536  10.6307722  75.7746510  76.0631004
  20.1775344  86.2933739  68.6071841  19.4004787  85.9544899  68.1627003
  20.8566825  86.2986363  67.9326806  14.9927373  81.4128477  68.4978448
  14.6877508  81.7274626  69.3488592  15.9457815  81.4909897  68.5405781
  13.4373805  87.5718700  70.1471402  12.9095166  86.8371460  69.8344640
  12.9361307  88.3493376  69.9011371  18.4166651  85.7667721  75.2638449
  17.7590325  86.4566982  75.3518577  19.2207050  86.1564153  75.6072435
   8.1692532  78.2338366  72.5078014   8.7436284  78.0113548  71.7751207
   8.7563515  78.3027061  73.2606615  17.2272109  84.1212093  73.3142390
  17.7403991  84.7542085  73.8164100  17.8773333  83.5213289  72.9485750
   8.4962119  80.2642827  66.5273899   7.6599432  80.6017514  66.8483174
   8.3566889  80.1291807  65.5901036  10.4715200  75.1079615  71.2353083
   9.8179612  74.7928632  70.6109698  10.4295674  74.4855356  71.9612906
  11.5826405  85.3898910  63.1506375  10.6753467  85.1588164  63.3497524
  12.0797437  84.5936530  63.3380357  14.4894484  94.0996418  66.0703062
  13.8156182  94.4028114  66.6788019  14.8760306  94.9025498  65.7208519
  13.7052940  81.5961549  75.5600731  12.7875502  81.8176496  75.4022419
  14.1213084  81.6707859  74.7012438  14.4887988  82.9952965  70.6903411
  15.2359807  83.5074362  70.3810533  14.7579578  82.6737017  71.5507805
  12.7614638  85.4911505  67.6730365  11.8525858  85.2070538  67.7702835
  12.7909722  85.9110584  66.8133672  17.9933906  89.1018095  71.4421533
  17.5396233  88.2609005  71.4986723  17.3627872  89.7379493  71.7796313
  16.9366825  80.0310081  72.6722200  16.1989582  79.5187467  73.0032443
  17.1893599  79.5910462  71.8605477  16.4366845  90.9394591  72.3771351
  16.7289819  91.4999649  71.6583717  16.9465465  91.2323152  73.1324510
  17.0378453  72.8086333  73.2663970  17.3437329  71.9483696  72.9789885
  17.7631057  73.4003953  73.0662964   3.3302809  83.2117019  71.6545568
   3.1327208  82.6186380  70.9296634   2.7749473  82.9069230  72.3721506
  11.3099532  83.1040126  73.7740161  11.3648142  82.1513962  73.6982637
  10.4990734  83.2599565  74.2581459  12.4590726  87.0320249  65.0118444
  12.0210156  86.3156108  64.5524081  13.2001167  87.2596364  64.4503535
   9.2491892  81.7217186  71.5330540   8.4359758  82.0211356  71.9395732
   9.7450886  81.3272874  72.2505022  11.4000470  91.7174943  73.4664804
  11.3576649  91.9435789  72.5373336  12.3163169  91.4838317  73.6150605
  14.8466104  82.1859010  80.3645434  15.2015492  82.4130483  81.2239899
  15.4938235  82.5177387  79.7422689  20.5763841  85.3077446  71.0694763
  20.4381739  85.4979042  70.1415952  20.2200060  86.0696829  71.5262814
   8.7405967  79.2935541  77.1491775   9.3805346  79.1524300  76.4514738
   7.9083498  79.0070055  76.7730377  20.6033220  87.3753973  76.0806034
  21.0369727  87.2829262  76.9289088  21.3164801  87.3511473  75.4426050
   9.5166271  88.5937972  73.2626767  10.3106869  88.0988292  73.0609342
   8.8057963  88.0655835  72.8994473  14.3361115  90.9756067  77.6139135
  14.3898138  91.5447003  78.3816851  13.4675897  91.1457952  77.2493172
   5.8249034  82.7381053  69.3386520   4.8946622  82.6765509  69.5556482
   5.9206506  82.2157006  68.5423161   5.7434583  79.2635866  71.9264761
   6.0041401  80.1781199  71.8173922   6.5651756  78.7960309  72.0761374
   7.2159509  80.6773623  79.0963586   7.8882562  80.4690985  78.4476235
   6.3889295  80.4795709  78.6568818  21.4648770  87.4177674  78.6138919
  21.6584660  88.3223484  78.8598194  21.3649388  86.9585093  79.4477505
  13.1185081  77.3035564  81.1129247  12.4712996  78.0025514  81.0193723
  13.8886096  77.7371708  81.4805495  16.5263879  87.5684416  84.1879800
  16.3749385  87.3394968  83.2709884  16.5168558  88.5255018  84.2011145
  13.2949215  85.1416329  79.1726067  14.2241275  85.2927489  78.9995034
  12.8740245  85.2300350  78.3174713  12.0937547  89.1666994  76.9424604
  11.9548633  88.7985778  77.8150542  11.3052143  89.6814633  76.7708562
  12.6885699  94.2676090  68.2850141  12.8637455  93.7964133  69.0995763
  12.0018487  94.8941856  68.5131401  13.6442762  88.5448596  74.3313442
  13.3092595  88.5049366  75.2271092  13.1446708  87.8793312  73.8583852
   7.6187006  83.9516226  79.8566023   7.4806804  83.2196465  80.4577562
   8.5291929  83.8625126  79.5750211  16.5801954  85.8904631  64.6050502
  15.9631124  85.1651459  64.5083554  16.1118442  86.6513991  64.2617576
  10.2469307  83.6636186  79.3449703  10.9568925  83.0229378  79.3036321
  10.2038615  83.9149080  80.2675884  18.2356085  90.6003539  82.2656282
  18.1768631  89.9162759  81.5986865  18.6375604  91.3422529  81.8136908
   8.9598241  80.6501403  81.1645342   8.4235598  80.1992142  81.8166939
   8.3714949  80.7847312  80.4215807   7.2546784  97.4165453  75.0590001
   7.4943382  98.0483977  75.7369019   6.4115981  97.0653493  75.3455360
   8.3700500  80.1090055  63.7271806   7.4929966  79.9878856  63.3634053
   8.8458253  79.3176133  63.4750695  18.2373493  88.5643123  80.4970262
  17.3500271  88.2269045  80.6196660  18.8072044  87.8326154  80.7339027
   4.6937362  79.7857411  78.2498337   4.6095551  79.1783081  77.5148747
   3.8720068  80.2766429  78.2507833  11.7674646  93.2244575  77.4631505
  11.6944817  94.0299547  77.9750809  11.3252039  93.4236541  76.6379526
  11.5564426  92.4616345  70.9734326  10.7731947  93.0038025  71.0672551
  12.2557171  92.9790325  71.3728568  14.8661076  78.2710975  73.6168532
  15.3629775  77.5180937  73.2969602  14.0948057  78.3075291  73.0511741
  22.7190833  83.9751340  75.2586823  22.7080709  84.8576056  74.8880756
  21.8508213  83.6222891  75.0641360  14.2273330  93.1231409  79.6189663
  14.9401302  93.7578874  79.5465565  13.7363358  93.2195275  78.8029665
  15.9490856  87.0282662  71.1906955  15.0147135  87.1484124  71.0211659
  16.1267525  86.1255129  70.9266965  11.4496044  80.4128358  73.3440216
  11.0793832  79.8599398  74.0321122  11.9455137  79.8086491  72.7915216
  19.3363408  82.8699981  71.7256989  19.8023860  83.7027973  71.6517292
  19.7870908  82.4044963  72.4302248   9.2785243  90.8725853  80.4395234
   9.9794703  91.5062336  80.5924629   8.8080358  91.2140584  79.6790874
  17.4039639  89.2143802  68.7243141  17.6799483  89.1000397  69.6337015
  16.5344138  88.8161287  68.6855314  17.3080071  75.2380568  75.7647891
  16.3943150  75.4684795  75.9330098  17.7373172  75.3219012  76.6161923
  17.0786529  83.4270460  78.2647785  16.4257979  83.6746368  77.6100237
  17.4566909  82.6134598  77.9310262  14.0393703  93.4630153  72.3675955
  14.2216097  92.6451809  72.8303707  14.8626689  93.6797846  71.9300845
  14.3735868  92.3898338  69.6291003  14.9023635  91.8790793  69.0161166
  14.6364088  92.0740869  70.4936536  13.1274102  84.1690271  84.7513822
  12.4514739  84.0684401  85.4216197  13.9501736  84.0129485  85.2149819
   4.8752961  90.4062208  77.3726337   5.4606398  89.6605896  77.5054241
   4.6777800  90.7166164  78.2563001   7.7291616  93.4413455  72.3888779
   7.0601992  93.9259583  71.9052819   7.5904486  93.6882676  73.3032158
  11.8696885  95.4757199  78.9871438  12.4215193  95.6388820  79.7520523
  12.2103078  96.0661636  78.3151463   6.8461378  77.8232348  79.5893322
   6.9102705  78.6847179  79.1770720   6.7828498  77.2106350  78.8565681
   6.3213651  79.8955481  83.2366357   6.9485689  79.5132558  83.8503881
   5.4641570  79.6769683  83.6022049  16.7207759  90.3018456  84.8420092
  17.2647663  90.9148414  84.3475047  16.1394604  90.8598035  85.3587105
   3.0979193  81.7031910  69.1684712   3.3932634  80.7942589  69.1151765
   2.1967229  81.6819650  68.8465714  15.0065272  93.4239174  75.9735120
  14.8816412  92.6228914  75.4646065  15.6644363  93.9185368  75.4849090
   6.6273440  79.7787907  75.1512260   5.9060026  80.3923874  75.0119733
   7.4166696  80.3145672  75.0728906  17.0700181  91.2248194  77.6014670
  16.1230516  91.1053545  77.5292997  17.4182954  90.3370692  77.6840931
   9.4299754  77.1142333  81.4252912   9.9534156  77.3604630  82.1879221
   9.2112087  77.9462368  81.0056049   4.8267035  79.3846008  69.2924037
   4.4979741  78.5043387  69.1099143   5.1806406  79.3293676  70.1800426
  14.0746614  91.0200910  73.8019022  13.9271576  90.0917618  73.9826592
  14.9000107  91.0421001  73.3176097   7.9408858  79.6718978  69.6599514
   8.2804931  80.2004899  68.9378123   8.3880979  80.0099384  70.4358081
  17.6780736  91.8429469  74.8883895  18.6027283  91.6372331  74.7508346
  17.5096039  91.5945870  75.7973236  10.6352299  78.0556028  79.1102582
  10.2949119  77.2563841  79.5123262   9.9291305  78.3557739  78.5379416
  11.2868771  75.1405341  77.5629905  12.1094840  74.6665819  77.4408796
  11.5306834  75.9195824  78.0628592   9.9277005  78.1693599  67.8592807
  10.6485368  78.5474852  67.3556524   9.3042309  78.8882476  67.9627785
  14.0708128  78.8738748  68.7951139  14.2871743  79.7563386  68.4939968
  13.5902195  78.4824962  68.0656781   8.8107350  81.8324461  75.3721884
   8.6651930  82.1464764  76.2646166   8.3332553  82.4509362  74.8192783
  10.6703732  78.8227009  75.4202774  10.6565301  77.9268103  75.0835072
  11.3876161  78.8297673  76.0541060  12.5229863  79.2564350  77.4655901
  12.2647641  80.1781420  77.4640231  11.9914904  78.8594784  78.1556365
  17.4676052  92.3615137  70.2445986  17.6412929  91.7961559  69.4919839
  17.9604943  93.1616032  70.0625476   3.2853012  84.3729806  78.3109545
   2.7406480  85.1489614  78.4429820   4.1632362  84.7200610  78.1528667
  10.0740628  77.7041390  70.6890344  10.1956540  76.7758036  70.8881231
   9.7842671  77.7180076  69.7768659  12.9431819  75.3896300  73.8257064
  12.9653516  75.4535633  72.8709043  13.3599878  74.5500809  74.0197570
  23.3215443  85.1251560  71.8636286  23.7646589  84.3758885  71.4655409
  22.4441953  85.1161696  71.4810018  18.4551224  91.6781901  67.3442885
  19.1502129  92.2988594  67.5630199  18.7974375  90.8277252  67.6195263
   4.0719034  83.4999702  81.2039702   3.3300770  83.6482337  81.7904333
   3.7511778  83.7607968  80.3406452  20.3542648  89.1281607  68.8730215
  20.8793972  89.4668879  68.1479535  20.2665000  88.1928622  68.6893350
  12.0162696  93.0415680  81.0020092  12.3249823  92.7964827  81.8742792
  12.8138178  93.2462319  80.5138962  12.0383308  95.1953590  73.2325469
  11.5988299  94.7029969  73.9258325  12.7891425  94.6526558  72.9917544
   4.5175647  91.3865131  73.2350097   5.3433667  91.0868903  72.8548740
   4.1669699  90.6172753  73.6839885   9.4857180  90.7391599  75.3047770
   8.8637190  90.0762304  75.0049998  10.1562047  90.7652731  74.6221418
   2.7184252  89.3051457  74.1939030   1.8816161  88.8773632  74.0123032
   2.6907898  89.4983901  75.1309822   9.5581708  79.2173387  84.8980276
   9.6069863  80.0935510  84.5158046  10.1004222  78.6750780  84.3251920
  20.0436554  89.7614510  84.1781413  19.2532097  89.7438649  83.6385913
  19.8069908  90.3002804  84.9330450  20.1634429  86.6106977  81.4914142
  20.2132434  86.4456984  82.4329665  20.0548352  85.7434236  81.1012023
   9.0470687  89.2895522  68.7806231   9.1958808  89.9730987  68.1272904
   9.8537131  89.2700612  69.2955687  17.4538191  82.5937905  82.8073449
  18.3548054  82.4544369  82.5157446  17.5286166  82.7592359  83.7471626
  11.7880996  79.9704759  81.6526635  10.9184306  80.2638325  81.3809224
  12.0240477  80.5545204  82.3733899  21.6652625  89.0303918  81.7356164
  21.3737434  89.3933899  82.5719624  21.0524757  88.3170926  81.5569496
  22.8648308  86.5956798  74.2558734  23.6995199  87.0346602  74.4196294
  23.0007437  86.1195451  73.4366980  19.9139814  84.1536533  80.2036221
  20.3893935  84.3464179  79.3955073  18.9905379  84.2095719  79.9579605
   6.8023320  85.3160700  69.7867300   6.5569362  84.4123030  69.9847510
   6.9719235  85.3177850  68.8446778  14.4920030  76.1884376  79.1692055
  15.0101974  76.9245403  78.8438544  14.1375163  76.4948370  80.0038815
   6.0718968  81.0489058  67.2853461   5.3788213  81.1233413  66.6293497
   5.8270720  80.2849401  67.8074978  14.7432624  72.6084659  74.6892952
  15.0234378  71.9407848  75.3153379  15.5283231  72.8013754  74.1767616
  12.5466093  91.7843653  66.2517978  11.9740060  92.4033840  65.7988450
  13.1198887  92.3343014  66.7857900  18.6141483  81.0302293  78.4364527
  19.5658906  81.1300391  78.4576751  18.4444933  80.2380561  78.9462611
  16.6355862  78.1157876  78.6223928  16.0405794  78.3962889  77.9270417
  16.3505559  78.6051777  79.3940669  15.7663353  92.0680803  67.3826561
  16.6994026  92.0026365  67.5859436  15.6786565  92.9037070  66.9241093
  18.3951369  91.3846673  64.3430508  18.3165001  91.0506537  65.2366266
  19.2161036  91.8768441  64.3421980  21.0929560  84.2508413  77.5506827
  21.0605881  83.3124413  77.7366511  21.7030184  84.3292449  76.8172652
  12.9312891  83.1204466  63.5934031  13.8771996  82.9910674  63.6622449
  12.5527136  82.3819127  64.0703459  21.2424049  81.0419456  77.5965110
  20.7263098  80.2577913  77.4095039  22.1263998  80.7138173  77.7611629
  18.9034776  74.7860472  73.5560923  18.7059597  74.4775560  74.4404255
  19.5134481  75.5122110  73.6858852  26.9106110  85.3124419  76.6912864
  27.6409499  85.0509708  77.2520567  26.3013056  84.5753141  76.7314932
  24.9921407  83.4532282  77.2887315  24.2654571  83.3188247  76.6803806
  24.5768694  83.7609111  78.0944033  12.8151584  87.1722212  85.0534688
  13.7354593  87.3500811  85.2474734  12.7801167  86.2278257  84.9014387
  11.1155809  81.0454442  63.5288916  10.2087264  80.7487555  63.6051630
  11.3931790  80.7484260  62.6623202   2.0333749  82.3660805  73.9787962
   1.7136533  81.5126114  73.6862336   1.4867177  82.5809383  74.7345930
   5.8113656  85.0823246  77.6957469   6.0299666  86.0140354  77.7145503
   6.2239430  84.7231221  78.4812273  12.7317874  75.5891332  69.6833157
  11.9218603  75.2438417  70.0588403  13.4202291  75.2798875  70.2720769
  14.6608423  74.6669378  71.3057454  15.2139461  75.0864832  71.9647477
  14.8978509  73.7405127  71.3480410  10.6841522  80.6556452  87.0860218
  10.5838249  81.6050809  87.0172309  10.4663064  80.3274691  86.2136288
   9.8854593  77.9041377  63.6700895  10.7473757  78.2296275  63.9296713
  10.0704937  77.1172873  63.1573961   1.9022009  85.9863717  75.9481084
   1.2085480  85.5717670  75.4351038   2.6495000  86.0284253  75.3514503
  18.0387230  76.7769904  70.8136118  17.4585899  77.4354708  70.4314171
  17.7723162  75.9547248  70.4023536  16.4890796  76.1774961  73.0157439
  16.9890574  76.2891496  72.2071757  17.1326404  75.8736014  73.6558247
  10.5472792  84.0853591  85.9025280  10.0639874  84.8853951  86.1089169
  10.6333731  84.0961536  84.9492723   3.8158751  85.9181971  73.8247099
   3.7929440  86.0169658  72.8728982   4.1259388  86.7647121  74.1464265
   6.4746129  87.9758126  77.9393713   7.4289383  87.9442068  77.8723645
   6.2758653  87.5148749  78.7543939   7.0645511  86.5459242  80.5064511
   7.8838400  87.0403320  80.5299348   7.3382319  85.6291210  80.4782078
  16.8212108  78.9369994  69.8692466  15.9337963  79.2219645  69.6512661
  17.2366097  78.7763757  69.0219743  20.1726644  78.9616515  73.5846806
  20.9487034  79.4512967  73.8571423  19.4474778  79.3874569  74.0418675
  22.6099202  79.6744134  74.6420746  23.2043693  79.4339870  73.9314055
  22.6825786  78.9551265  75.2694283   4.8296358  93.5177745  74.9563911
   4.6950826  92.7578146  74.3901909   4.4128420  94.2418645  74.4892700
  15.9655321  88.7014669  63.9640486  16.6691171  88.9064671  64.5798142
  15.2417970  89.2691431  64.2289570  16.7953131  84.4524530  70.0842757
  16.7388333  84.9093081  69.2450389  17.3481474  83.6915214  69.9065599
  20.6057937  80.2414262  70.9092876  20.3494872  79.8410897  71.7401084
  19.9810805  80.9558056  70.7843015  24.9170275  82.9810335  73.4164168
  24.3569833  83.0503524  74.1895730  24.3113779  82.8051320  72.6963664
   7.9865484  94.4147062  75.1682354   7.8697868  95.3592495  75.0661044
   7.1657930  94.1120624  75.5568153  17.8742019  89.1397198  66.0138947
  18.7087622  88.7078396  65.8316421  17.7126361  88.9679212  66.9415841
  17.5287911  85.6429311  67.3795286  17.4736714  85.4773583  66.4383730
  16.9033966  86.3505344  67.5357476   2.3180426  80.8797376  81.2056708
   2.9639289  80.3696329  81.6943933   2.1097577  81.6166057  81.7800133
  14.8433818  87.9478223  86.7048849  15.7124977  88.1218875  86.3435484
  14.3640569  88.7672640  86.5824578  10.8384036  75.1437420  66.9580604
  10.8262706  76.0879260  67.1148875  11.7307458  74.9607566  66.6640065
   9.0119998  95.0675324  78.3838282   9.9147245  95.0998934  78.7004777
   8.7857368  94.1375775  78.3984618  10.7673600  93.8206311  75.0448361
   9.8169231  93.8208172  74.9312733  11.0706086  93.0739045  74.5284395
  14.6536156  71.7380197  71.2126541  13.8868551  71.1838683  71.3583223
  15.0646861  71.8102066  72.0740693   6.6577917  78.0264993  85.3031722
   7.5209378  77.6701797  85.5135047   6.0843327  77.6878887  85.9907127
  26.5026294  99.6566849  76.1094123  27.1404704  99.5373596  75.4057463
  26.3847136 100.6047693  76.1682075  23.3116000  99.6094277  76.0455648
  22.9734511  99.4935342  75.1576183  24.1805768  99.2085442  76.0256654
  19.1702816 101.4629753  72.0352539  18.6067681 101.3719690  71.2668827
  19.0555211 100.6429658  72.5155031  23.7935783 100.7629129  82.0041853
  23.7824424 100.3681927  81.1322357  23.9556422 100.0295201  82.5975625
  16.7167248 102.9580945  74.8736759  17.5088539 102.6171770  74.4583059
  16.9563898 103.0675920  75.7938913  24.7502374 105.1300721  67.3467004
  24.0990354 105.7154802  66.9601018  25.5446737 105.6606916  67.4062041
  18.6758001 102.2189858  67.7454138  19.4488877 101.6718845  67.6067014
  19.0283400 103.0834108  67.9568600  20.5143044 103.5466241  80.9521037
  20.2232910 104.4511871  80.8367704  21.1500028 103.5882768  81.6665107
  21.4399251 100.9243089  77.5422397  22.0362823 100.6999112  76.8279360
  21.4974222 100.1827835  78.1447845  21.0124279  98.3782524  65.3772588
  21.2649800  97.8564046  64.6156051  20.0748838  98.2148670  65.4799272
  26.0567562  97.3818303  73.1847331  26.8430651  96.9637726  72.8337748
  26.3206266  98.2864395  73.3528980  26.2277639 102.8191153  67.8835988
  25.5923472 102.8925780  68.5956893  25.8975046 103.4084752  67.2055067
  31.4575989  97.3193536  74.0880310  32.1901161  96.7492753  74.3218139
  30.7015345  96.9315136  74.5286815  20.7320568 100.2810630  67.5796963
  20.6156826  99.6055534  68.2478047  20.8422828  99.7943004  66.7629116
  23.0752109  99.7420777  71.2843652  22.7110316  99.2151398  71.9956574
  23.9319225  99.3519247  71.1110138  28.9801410  91.0315110  78.5474918
  28.6484734  91.9010521  78.3236133  28.3847023  90.7151394  79.2268949
  22.7157596  94.7710677  66.2805001  22.8831998  95.6390914  66.6475472
  22.5254765  94.9337959  65.3566290  25.4732929 103.2327656  77.9470831
  25.1733652 104.1352695  77.8386638  25.1283989 102.9659839  78.7991984
  18.9245411  99.6841453  73.9807536  17.9995907  99.5517667  74.1885227
  19.1729824 100.4635672  74.4777478  28.8730073  95.7510196  75.6268268
  27.9646950  95.6825605  75.3327029  28.8217669  96.2282141  76.4550094
  22.6946817  97.2268335  67.2651668  22.5746442  97.6725385  68.1037148
  21.9999405  97.5753652  66.7065206  16.2854222  99.3274726  74.8151325
  16.4146603  99.5809205  75.7290736  15.6051673  99.9202434  74.4955980
  20.4553709 109.9971976  70.9141799  20.3777739 110.9479802  70.9930279
  19.8515352 109.6517849  71.5716725  22.9470939  97.1699842  83.5703166
  22.1704273  97.7293762  83.5606030  23.5861502  97.6556625  84.0918036
  30.7391719  93.9526635  77.4046142  30.0966100  94.2459168  76.7585937
  30.2346648  93.8379555  78.2099339  28.3931883  97.6989808  68.0932002
  29.3049739  97.9317195  67.9179699  27.8841530  98.2826852  67.5307080
  21.2017311  99.9785295  83.1321133  21.9431995 100.5170339  82.8555956
  20.4954296 100.6051584  83.2892685  26.6772651 102.1214436  81.7293294
  27.0856007 101.6796846  80.9847927  25.9549912 101.5467063  81.9827487
  23.0303721  97.0587042  79.1026851  23.8764916  97.4826456  79.2461500
  22.9702358  96.4020667  79.7965414  27.0001465 102.6815626  75.4845583
  26.3710328 102.8461340  74.7821651  26.6127127 103.0957236  76.2556547
  30.8790697 103.6170064  72.8389947  30.1941735 103.9968966  72.2886980
  30.9634546 104.2265391  73.5721895  26.1803166  94.7191411  80.7608025
  25.9364098  95.4733471  80.2242301  26.4563096  95.0976758  81.5955272
  28.1341629 101.2630023  79.4385290  28.3458524 101.9061783  78.7619671
  28.0871377 100.4292340  78.9707220  25.7367858  93.8747844  76.3421863
  24.8752337  94.1729097  76.6338600  25.7630292  94.0918243  75.4102895
  22.5529427 102.4190034  72.7495668  23.0167773 102.6977737  71.9600291
  22.2886225 101.5173479  72.5668759  19.4453508 101.9661516  75.6875431
  20.0154865 102.3948784  75.0492916  20.0361620 101.6844101  76.3859617
  21.4898313  98.5413187  69.5585233  22.1922357  98.9934230  70.0259160
  21.1578942  97.8997006  70.1865126  19.9378675  97.1324943  83.9336443
  19.3077335  97.8141224  84.1671840  19.8314763  97.0208025  82.9889581
  15.2323647  96.7996739  74.8602367  14.4422701  97.0554268  74.3842478
  15.7234895  97.6145077  74.9654407  29.2487457 104.1401979  77.6107648
  30.0704900 103.7382166  77.3290329  29.2449860 104.0370213  78.5623764
  17.1838393  97.1641319  71.8185844  16.3869556  97.2760013  72.3369339
  16.9563985  97.5027971  70.9526734  23.0144060 103.6886022  79.7668358
  23.0788493 104.1506429  80.6026530  22.3054984 103.0583387  79.8950668
  13.5161350  97.0527230  77.2917358  13.7669389  97.9374240  77.5574934
  14.0520899  96.8731831  76.5192450  37.3393450 100.4840727  73.9592619
  36.5857158  99.9148125  73.8036624  37.4740991 100.4503392  74.9063254
  22.7292078 105.3554129  69.6347339  22.5937753 106.2005665  70.0632186
  23.2701890 105.5573407  68.8713272  19.2159417  91.4345709  86.2961694
  18.8226363  90.8811908  86.9709338  20.0325558  91.7456288  86.6868211
  16.1821475 102.8729567  70.2075264  16.6945996 103.6672818  70.3580828
  16.8344188 102.1755858  70.1408865  17.9916360 105.9895324  72.2898017
  18.1682988 106.9113288  72.1019001  18.7873193 105.6753743  72.7192397
  22.1327378  92.8503588  83.8881950  22.8737092  93.4510741  83.8086413
  22.3645301  92.1081226  83.3299993  17.2768716  98.0359956  82.1660180
  17.1622232  97.1345213  82.4667279  16.4213234  98.2823652  81.8144997
  24.3560554 105.9777696  83.7647681  23.9124408 105.1914074  83.4468585
  25.0177768 106.1656846  83.0991571  19.1147675 107.5073497  78.2908359
  19.6655100 107.3790561  77.5185353  18.2759151 107.8068387  77.9403252
  26.4541792 106.2580496  81.7929082  26.4360268 107.0789377  81.3009351
  27.3761712 106.1334571  82.0179223  22.9114846 103.7724625  82.6352590
  23.4443183 103.0112914  82.4051898  22.3828928 103.4798277  83.3776745
  26.0784541  88.8784691  78.1646232  25.7348811  89.7686333  78.0885343
  26.4463504  88.6886349  77.3015817  14.1470392 101.2018222  70.9834834
  14.9845614 101.6115230  70.7668542  14.3248660 100.2617664  70.9535028
  26.0434824  98.8693302  66.6718667  25.5281448  99.6397907  66.9107055
  25.7712133  98.1958439  67.2951729  23.6281935  93.7143003  71.7303906
  22.7723531  93.3249854  71.5509544  24.0408887  93.7934964  70.8703691
  25.1581082  91.2489346  76.1295465  24.6545877  91.2119482  75.3163271
  25.4511689  92.1582089  76.1892122  21.4023968  91.3328076  75.1361647
  22.2676964  91.1370885  74.7767536  21.4701477  91.1038428  76.0631004
  31.0169098 101.6225657  68.6071841  30.2398541 101.2836817  68.1627003
  31.6960579 101.6278280  67.9326806  25.8321127  96.7420394  68.4978448
  25.5271263  97.0566544  69.3488592  26.7851569  96.8201814  68.5405781
  24.2767559 102.9010618  70.1471402  23.7488921 102.1663377  69.8344640
  23.7755062 103.6785294  69.9011371  29.2560405 101.0959638  75.2638449
  28.5984080 101.7858900  75.3518577  30.0600804 101.4856070  75.6072435
  19.0086287  93.5630284  72.5078014  19.5830039  93.3405466  71.7751207
  19.5957269  93.6318979  73.2606615  28.0665864  99.4504011  73.3142390
  28.5797746 100.0834003  73.8164100  28.7167088  98.8505206  72.9485750
  19.3355874  95.5934745  66.5273899  18.4993186  95.9309432  66.8483174
  19.1960643  95.4583725  65.5901036  21.3108954  90.4371533  71.2353083
  20.6573367  90.1220550  70.6109698  21.2689429  89.8147273  71.9612906
  22.4220159 100.7190828  63.1506375  21.5147221 100.4880082  63.3497524
  22.9191191  99.9228447  63.3380357  25.3288238 109.4288335  66.0703062
  24.6549937 109.7320032  66.6788019  25.7154060 110.2317416  65.7208519
  24.5446695  96.9253467  75.5600731  23.6269256  97.1468414  75.4022419
  24.9606838  96.9999777  74.7012438  25.3281743  98.3244882  70.6903411
  26.0753562  98.8366279  70.3810533  25.5973332  98.0028935  71.5507805
  23.6008393 100.8203423  67.6730365  22.6919612 100.5362456  67.7702835
  23.6303477 101.2402501  66.8133672  28.8327660 104.4310012  71.4421533
  28.3789987 103.5900922  71.4986723  28.2021627 105.0671411  71.7796313
  27.7760580  95.3601998  72.6722200  27.0383337  94.8479385  73.0032443
  28.0287353  94.9202380  71.8605477  27.2760599 106.2686509  72.3771351
  27.5683574 106.8291566  71.6583717  27.7859220 106.5615070  73.1324510
  27.8772207  88.1378250  73.2663970  28.1831084  87.2775614  72.9789885
  28.6024812  88.7295871  73.0662964  14.1696563  98.5408937  71.6545568
  13.9720963  97.9478298  70.9296634  13.6143227  98.2361147  72.3721506
  22.1493287  98.4332044  73.7740161  22.2041897  97.4805880  73.6982637
  21.3384489  98.5891483  74.2581459  23.2984481 102.3612167  65.0118444
  22.8603910 101.6448026  64.5524081  24.0394921 102.5888281  64.4503535
  20.0885647  97.0509103  71.5330540  19.2753512  97.3503274  71.9395732
  20.5844641  96.6564792  72.2505022  22.2394225 107.0466860  73.4664804
  22.1970403 107.2727707  72.5373336  23.1556923 106.8130235  73.6150605
  25.6859858  97.5150928  80.3645434  26.0409246  97.7422401  81.2239899
  26.3331990  97.8469305  79.7422689  31.4157595 100.6369364  71.0694763
  31.2775494 100.8270960  70.1415952  31.0593814 101.3988746  71.5262814
  19.5799721  94.6227459  77.1491775  20.2199101  94.4816218  76.4514738
  18.7477252  94.3361972  76.7730377  31.4426975 102.7045891  76.0806034
  31.8763482 102.6121180  76.9289088  32.1558556 102.6803391  75.4426050
  20.3560025 103.9229889  73.2626767  21.1500624 103.4280209  73.0609342
  19.6451718 103.3947752  72.8994473  25.1754870 106.3047985  77.6139135
  25.2291892 106.8738921  78.3816851  24.3069651 106.4749870  77.2493172
  16.6642789  98.0672971  69.3386520  15.7340377  98.0057426  69.5556482
  16.7600261  97.5448924  68.5423161  16.5828338  94.5927784  71.9264761
  16.8435155  95.5073117  71.8173922  17.4045510  94.1252226  72.0761374
  18.0553263  96.0065541  79.0963586  18.7276317  95.7982903  78.4476235
  17.2283050  95.8087627  78.6568818  32.3042524 102.7469591  78.6138919
  32.4978415 103.6515402  78.8598194  32.2043143 102.2877010  79.4477505
  23.9578835  92.6327482  81.1129247  23.3106750  93.3317432  81.0193723
  24.7279851  93.0663626  81.4805495  27.3657633 102.8976334  84.1879800
  27.2143140 102.6686886  83.2709884  27.3562313 103.8546935  84.2011145
  24.1342970 100.4708247  79.1726067  25.0635030 100.6219406  78.9995034
  23.7134000 100.5592268  78.3174713  22.9331301 104.4958911  76.9424604
  22.7942387 104.1277696  77.8150542  22.1445898 105.0106551  76.7708562
  23.5279453 109.5968008  68.2850141  23.7031209 109.1256051  69.0995763
  22.8412241 110.2233774  68.5131401  24.4836516 103.8740514  74.3313442
  24.1486349 103.8341284  75.2271092  23.9840462 103.2085230  73.8583852
  18.4580760  99.2808144  79.8566023  18.3200558  98.5488383  80.4577562
  19.3685684  99.1917044  79.5750211  27.4195708 101.2196548  64.6050502
  26.8024879 100.4943376  64.5083554  26.9512197 101.9805909  64.2617576
  21.0863061  98.9928103  79.3449703  21.7962680  98.3521295  79.3036321
  21.0432369  99.2440998  80.2675884  29.0749840 105.9295457  82.2656282
  29.0162386 105.2454677  81.5986865  29.4769358 106.6714447  81.8136908
  19.7991995  95.9793321  81.1645342  19.2629352  95.5284060  81.8166939
  19.2108704  96.1139230  80.4215807  19.2094254  95.4381973  63.7271806
  18.3323720  95.3170773  63.3634053  19.6852007  94.6468051  63.4750695
  29.0767247 103.8935041  80.4970262  28.1894026 103.5560962  80.6196660
  29.6465798 103.1618072  80.7339027  10.7296394 100.2259132  73.8213313
  11.4167434  99.9120862  73.2334328  10.5744523 101.1300497  73.5480564
  15.5331116  95.1149329  78.2498337  15.4489305  94.5074998  77.5148747
  14.7113823  95.6058347  78.2507833  22.6068400 108.5536493  77.4631505
  22.5338572 109.3591464  77.9750809  22.1645794 108.7528459  76.6379526
  22.3958180 107.7908263  70.9734326  21.6125702 108.3329943  71.0672551
  23.0950925 108.3082243  71.3728568  25.7054830  93.6002892  73.6168532
  26.2023530  92.8472855  73.2969602  24.9341812  93.6367209  73.0511741
  33.5584588  99.3043258  75.2586823  33.5474464 100.1867973  74.8880756
  32.6901967  98.9514809  75.0641360  25.0667084 108.4523327  79.6189663
  25.7795056 109.0870792  79.5465565  24.5757113 108.5487193  78.8029665
  26.7884611 102.3574580  71.1906955  25.8540890 102.4776042  71.0211659
  26.9661279 101.4547046  70.9266965  22.2889799  95.7420275  73.3440216
  21.9187586  95.1891316  74.0321122  22.7848891  95.1378409  72.7915216
  30.1757162  98.1991899  71.7256989  30.6417614  99.0319890  71.6517292
  30.6264663  97.7336880  72.4302248  20.1178998 106.2017770  80.4395234
  20.8188457 106.8354253  80.5924629  19.6474113 106.5432502  79.6790874
  28.2433393 104.5435720  68.7243141  28.5193237 104.4292315  69.6337015
  27.3737892 104.1453205  68.6855314  28.1473825  90.5672486  75.7647891
  27.2336905  90.7976713  75.9330098  28.5766926  90.6510930  76.6161923
  27.9180283  98.7562378  78.2647785  27.2651734  99.0038285  77.6100237
  28.2960663  97.9426516  77.9310262  24.8787457 108.7922071  72.3675955
  25.0609852 107.9743727  72.8303707  25.7020443 109.0089763  71.9300845
  25.2129623 107.7190256  69.6291003  25.7417389 107.2082711  69.0161166
  25.4757842 107.4032786  70.4936536  23.9667857  99.4982189  84.7513822
  23.2908494  99.3976318  85.4216197  24.7895490  99.3421403  85.2149819
  15.7146716 105.7354125  77.3726337  16.3000152 104.9897813  77.5054241
  15.5171554 106.0458082  78.2563001  18.5685371 108.7705373  72.3888779
  17.8995746 109.2551500  71.9052819  18.4298241 109.0174593  73.3032158
  10.3064370  98.3059726  76.0930780  10.3448470  97.7723316  76.8867898
   9.8004663  97.7794931  75.4741757  22.7090639 110.8049116  78.9871438
  23.2608947 110.9680738  79.7520523  23.0496833 111.3953554  78.3151463
  17.6855133  93.1524266  79.5893322  17.7496459  94.0139097  79.1770720
  17.6222253  92.5398268  78.8565681  17.1607405  95.2247399  83.2366357
  17.7879444  94.8424476  83.8503881  16.3035324  95.0061601  83.6022049
  27.5601514 105.6310374  84.8420092  28.1041418 106.2440332  84.3475047
  26.9788359 106.1889952  85.3587105  13.9372948  97.0323828  69.1684712
  14.2326389  96.1234506  69.1151765  13.0360984  97.0111567  68.8465714
  25.8459027 108.7531092  75.9735120  25.7210166 107.9520832  75.4646065
  26.5038118 109.2477285  75.4849090  17.4667195  95.1079824  75.1512260
  16.7453781  95.7215792  75.0119733  18.2560451  95.6437589  75.0728906
  27.9093935 106.5540112  77.6014670  26.9624271 106.4345463  77.5292997
  28.2576708 105.6662610  77.6840931  20.2693508  92.4434251  81.4252912
  20.7927910  92.6896547  82.1879221  20.0505842  93.2754286  81.0056049
  15.6660789  94.7137925  69.2924037  15.3373496  93.8335304  69.1099143
  16.0200160  94.6585594  70.1800426  24.9140368 106.3492828  73.8019022
  24.7665331 105.4209536  73.9826592  25.7393862 106.3712919  73.3176097
  18.7802613  95.0010895  69.6599514  19.1198685  95.5296816  68.9378123
  19.2274733  95.3391301  70.4358081  28.5174490 107.1721387  74.8883895
  29.4421038 106.9664248  74.7508346  28.3489794 106.9237788  75.7973236
  21.4746053  93.3847946  79.1102582  21.1342874  92.5855759  79.5123262
  20.7685060  93.6849657  78.5379416  22.1262525  90.4697258  77.5629905
  22.9488595  89.9957737  77.4408796  22.3700589  91.2487742  78.0628592
  20.7670760  93.4985517  67.8592807  21.4879122  93.8766770  67.3556524
  20.1436064  94.2174394  67.9627785  24.9101883  94.2030666  68.7951139
  25.1265497  95.0855304  68.4939968  24.4295950  93.8116879  68.0656781
  19.6501104  97.1616379  75.3721884  19.5045685  97.4756682  76.2646166
  19.1726308  97.7801279  74.8192783  21.5097487  94.1518927  75.4202774
  21.4959056  93.2560020  75.0835072  22.2269915  94.1589591  76.0541060
  23.3623618  94.5856267  77.4655901  23.1041395  95.5073338  77.4640231
  22.8308658  94.1886702  78.1556365  28.3069806 107.6907054  70.2445986
  28.4806684 107.1253477  69.4919839  28.7998698 108.4907949  70.0625476
  14.1246766  99.7021723  78.3109545  13.5800234 100.4781531  78.4429820
  15.0026116 100.0492528  78.1528667  20.9134383  93.0333307  70.6890344
  21.0350294  92.1049953  70.8881231  20.6236425  93.0471993  69.7768659
  23.7825573  90.7188218  73.8257064  23.8047270  90.7827551  72.8709043
  24.1993632  89.8792726  74.0197570  34.1609198 100.4543477  71.8636286
  34.6040344  99.7050802  71.4655409  33.2835708 100.4453614  71.4810018
  29.2944979 107.0073819  67.3442885  29.9895884 107.6280511  67.5630199
  29.6368129 106.1569170  67.6195263  14.9112788  98.8291620  81.2039702
  14.1694524  98.9774255  81.7904333  14.5905532  99.0899885  80.3406452
  31.1936402 104.4573524  68.8730215  31.7187726 104.7960797  68.1479535
  31.1058755 103.5220540  68.6893350  22.8556451 108.3707598  81.0020092
  23.1643577 108.1256745  81.8742792  23.6531933 108.5754236  80.5138962
  22.8777063 110.5245508  73.2325469  22.4382053 110.0321886  73.9258325
  23.6285180 109.9818475  72.9917544  15.3569402 106.7157048  73.2350097
  16.1827422 106.4160820  72.8548740  15.0063454 105.9464671  73.6839885
  20.3250935 106.0683517  75.3047770  19.7030944 105.4054222  75.0049998
  20.9955802 106.0944649  74.6221418  13.5578007 104.6343375  74.1939030
  12.7209915 104.2065549  74.0123032  13.5301652 104.8275818  75.1309822
  20.3975462  94.5465305  84.8980276  20.4463618  95.4227427  84.5158046
  20.9397977  94.0042698  84.3251920  30.8830308 105.0906428  84.1781413
  30.0925852 105.0730567  83.6385913  30.6463663 105.6294722  84.9330450
  31.0028183 101.9398894  81.4914142  31.0526188 101.7748902  82.4329665
  30.8942106 101.0726153  81.1012023  19.8864442 104.6187440  68.7806231
  20.0352562 105.3022904  68.1272904  20.6930885 104.5992530  69.2955687
  28.2931946  97.9229822  82.8073449  29.1941808  97.7836287  82.5157446
  28.3679920  98.0884277  83.7471626  22.6274751  95.2996677  81.6526635
  21.7578060  95.5930243  81.3809224  22.8634231  95.8837122  82.3733899
  32.5046380 104.3595836  81.7356164  32.2131188 104.7225816  82.5719624
  31.8918511 103.6462844  81.5569496  33.7042062 101.9248716  74.2558734
  34.5388954 102.3638520  74.4196294  33.8401191 101.4487369  73.4366980
  30.7533568  99.4828450  80.2036221  31.2287690  99.6756097  79.3955073
  29.8299134  99.5387636  79.9579605  17.6417075 100.6452618  69.7867300
  17.3963117  99.7414948  69.9847510  17.8112989 100.6469768  68.8446778
  25.3313785  91.5176294  79.1692055  25.8495729  92.2537321  78.8438544
  24.9768917  91.8240287  80.0038815  16.9112722  96.3780975  67.2853461
  16.2181967  96.4525330  66.6293497  16.6664474  95.6141319  67.8074978
  25.5826379  87.9376577  74.6892952  25.8628133  87.2699766  75.3153379
  26.3676986  88.1305672  74.1767616  23.3859847 107.1135570  66.2517978
  22.8133814 107.7325758  65.7988450  23.9592641 107.6634932  66.7857900
  29.4535237  96.3594211  78.4364527  30.4052660  96.4592308  78.4576751
  29.2838688  95.5672479  78.9462611  27.4749617  93.4449794  78.6223928
  26.8799549  93.7254806  77.9270417  27.1899313  93.9343695  79.3940669
  26.6057107 107.3972721  67.3826561  27.5387780 107.3318282  67.5859436
  26.5180320 108.2328987  66.9241093  29.2345124 106.7138591  64.3430508
  29.1558755 106.3798455  65.2366266  30.0554791 107.2060359  64.3421980
  31.9323315  99.5800330  77.5506827  31.8999635  98.6416331  77.7366511
  32.5423939  99.6584367  76.8172652  23.7706646  98.4496383  63.5934031
  24.7165751  98.3202591  63.6622449  23.3920891  97.7111045  64.0703459
  32.0817803  96.3711374  77.5965110  31.5656852  95.5869830  77.4095039
  32.9657752  96.0430090  77.7611629  29.7428530  90.1152389  73.5560923
  29.5453352  89.8067477  74.4404255  30.3528236  90.8414028  73.6858852
  37.7499865 100.6416337  76.6912864  38.4803253 100.3801625  77.2520567
  37.1406810  99.9045059  76.7314932  35.8315162  98.7824200  77.2887315
  35.1048326  98.6480165  76.6803806  35.4162449  99.0901028  78.0944033
  23.6545338 102.5014129  85.0534688  24.5748348 102.6792728  85.2474734
  23.6194921 101.5570175  84.9014387  21.9549563  96.3746360  63.5288916
  21.0481018  96.0779472  63.6051630  22.2325544  96.0776178  62.6623202
  12.8727503  97.6952723  73.9787962  12.5530288  96.8418031  73.6862336
  12.3260932  97.9101301  74.7345930  16.6507411 100.4115164  77.6957469
  16.8693421 101.3432272  77.7145503  17.0633185 100.0523138  78.4812273
  23.5711629  90.9183249  69.6833157  22.7612357  90.5730334  70.0588403
  24.2596046  90.6090793  70.2720769  25.5002177  89.9961296  71.3057454
  26.0533216  90.4156750  71.9647477  25.7372263  89.0697044  71.3480410
  21.5235276  95.9848370  87.0860218  21.4232003  96.9342727  87.0172309
  21.3056818  95.6566609  86.2136288  20.7248348  93.2333295  63.6700895
  21.5867512  93.5588193  63.9296713  20.9098692  92.4464791  63.1573961
  12.7415763 101.3155634  75.9481084  12.0479235 100.9009587  75.4351038
  13.4888754 101.3576171  75.3514503  28.8780984  92.1061821  70.8136118
  28.2979653  92.7646625  70.4314171  28.6116917  91.2839166  70.4023536
  27.3284550  91.5066879  73.0157439  27.8284329  91.6183413  72.2071757
  27.9720158  91.2027932  73.6558247  21.3866546  99.4145509  85.9025280
  20.9033628 100.2145869  86.1089169  21.4727485  99.4253453  84.9492723
  14.6552506 101.2473888  73.8247099  14.6323194 101.3461576  72.8728982
  14.9653142 102.0939039  74.1464265  17.3139884 103.3050043  77.9393713
  18.2683137 103.2733986  77.8723645  17.1152407 102.8440667  78.7543939
  17.9039266 101.8751159  80.5064511  18.7232155 102.3695238  80.5299348
  18.1776074 100.9583127  80.4782078  27.6605862  94.2661912  69.8692466
  26.7731717  94.5511562  69.6512661  28.0759851  94.1055675  69.0219743
  31.0120398  94.2908433  73.5846806  31.7880788  94.7804885  73.8571423
  30.2868532  94.7166487  74.0418675  33.4492957  95.0036052  74.6420746
  34.0437448  94.7631788  73.9314055  33.5219541  94.2843182  75.2694283
  15.6690113 108.8469663  74.9563911  15.5344581 108.0870064  74.3901909
  15.2522175 109.5710563  74.4892700  26.8049076 104.0306586  63.9640486
  27.5084926 104.2356589  64.5798142  26.0811724 104.5983348  64.2289570
  27.6346886  99.7816448  70.0842757  27.5782087 100.2384999  69.2450389
  28.1875228  99.0207132  69.9065599  31.4451692  95.5706179  70.9092876
  31.1888626  95.1702815  71.7401084  30.8204560  96.2849973  70.7843015
  35.7564030  98.3102253  73.4164168  35.1963588  98.3795442  74.1895730
  35.1507533  98.1343237  72.6963664  18.8259238 109.7438980  75.1682354
  18.7091623 110.6884412  75.0661044  18.0051685 109.4412541  75.5568153
  28.7135773 104.4689116  66.0138947  29.5481377 104.0370314  65.8316421
  28.5520116 104.2971129  66.9415841  28.3681665 100.9721229  67.3795286
  28.3130469 100.8065500  66.4383730  27.7427720 101.6797262  67.5357476
  13.1574180  96.2089293  81.2056708  13.8033044  95.6988247  81.6943933
  12.9491331  96.9457975  81.7800133  25.6827572 103.2770141  86.7048849
  26.5518732 103.4510793  86.3435484  25.2034324 104.0964558  86.5824578
  21.6777791  90.4729338  66.9580604  21.6656460  91.4171178  67.1148875
  22.5701213  90.2899483  66.6640065  19.8513753 110.3967242  78.3838282
  20.7540999 110.4290852  78.7004777  19.6251123 109.4667693  78.3984618
  21.6067355 109.1498228  75.0448361  20.6562986 109.1500090  74.9312733
  21.9099841 108.4030963  74.5284395  25.4929910  87.0672114  71.2126541
  24.7262306  86.5130601  71.3583223  25.9040615  87.1393983  72.0740693
  17.4971671  93.3556910  85.3031722  18.3603133  92.9993715  85.5135047
  16.9237082  93.0170805  85.9907127  37.3420048 114.9858767  76.1094123
  37.9798458 114.8665514  75.4057463  37.2240891 115.9339611  76.1682075
  34.1509754 114.9386195  76.0455648  33.8128266 114.8227259  75.1576183
  35.0199523 114.5377360  76.0256654  34.6329537 116.0921046  82.0041853
  34.6218178 115.6973845  81.1322357  34.7950177 115.3587119  82.5975625
  31.8518034 113.7074442  65.3772588  32.1043554 113.1855963  64.6156051
  30.9142593 113.5440588  65.4799272  36.8961317 112.7110220  73.1847331
  37.6824406 112.2929644  72.8337748  37.1600021 113.6156313  73.3528980
  42.2969744 112.6485454  74.0880310  43.0294916 112.0784670  74.3218139
  41.5409099 112.2607054  74.5286815  33.9145863 115.0712695  71.2843652
  33.5504071 114.5443316  71.9956574  34.7712979 114.6811164  71.1110138
  39.8195164 106.3607028  78.5474918  39.4878489 107.2302439  78.3236133
  39.2240777 106.0443312  79.2268949  33.5551350 110.1002595  66.2805001
  33.7225753 110.9682831  66.6475472  33.3648519 110.2629877  65.3566290
  39.7123827 111.0802114  75.6268268  38.8040705 111.0117522  75.3327029
  39.6611423 111.5574059  76.4550094  33.5340571 112.5560252  67.2651668
  33.4140196 113.0017303  68.1037148  32.8393160 112.9045570  66.7065206
  33.7864693 112.4991760  83.5703166  33.0098027 113.0585680  83.5606030
  34.4255256 112.9848543  84.0918036  41.5785474 109.2818552  77.4046142
  40.9359854 109.5751086  76.7585937  41.0740402 109.1671473  78.2099339
  39.2325637 113.0281726  68.0932002  40.1443494 113.2609112  67.9179699
  38.7235285 113.6118770  67.5307080  37.5166405 117.4506353  81.7293294
  37.9249761 117.0088764  80.9847927  36.7943667 116.8758981  81.9827487
  33.8697475 112.3878960  79.1026851  34.7158670 112.8118374  79.2461500
  33.8096113 111.7312584  79.7965414  37.0196920 110.0483329  80.7608025
  36.7757852 110.8025389  80.2242301  37.2956851 110.4268676  81.5955272
  38.9735383 116.5921941  79.4385290  39.1852278 117.2353701  78.7619671
  38.9265131 115.7584257  78.9707220  36.5761612 109.2039762  76.3421863
  35.7146091 109.5021015  76.6338600  36.6024047 109.4210160  75.4102895
  32.3292068 113.8705104  69.5585233  33.0316111 114.3226148  70.0259160
  31.9972696 113.2288923  70.1865126  30.7772429 112.4616861  83.9336443
  30.1471090 113.1433142  84.1671840  30.6708517 112.3499943  82.9889581
  26.0717402 112.1288657  74.8602367  25.2816456 112.3846186  74.3842478
  26.5628649 112.9436995  74.9654407  28.0232147 112.4933236  71.8185844
  27.2263310 112.6051931  72.3369339  27.7957739 112.8319889  70.9526734
  48.1787204 115.8132645  73.9592619  47.4250913 115.2440043  73.8036624
  48.3134745 115.7795309  74.9063254  30.0553172 106.7637627  86.2961694
  29.6620117 106.2103825  86.9709338  30.8719312 107.0748205  86.6868211
  32.9721133 108.1795506  83.8881950  33.7130846 108.7802659  83.8086413
  33.2039056 107.4373144  83.3299993  28.1162471 113.3651873  82.1660180
  28.0015986 112.4637131  82.4667279  27.2606989 113.6115570  81.8144997
  36.9178296 104.2076609  78.1646232  36.5742565 105.0978251  78.0885343
  37.2857258 104.0178267  77.3015817  36.8828579 114.1985220  66.6718667
  36.3675202 114.9689825  66.9107055  36.6105887 113.5250356  67.2951729
  34.4675690 109.0434921  71.7303906  33.6117286 108.6541771  71.5509544
  34.8802641 109.1226882  70.8703691  35.9974836 106.5781264  76.1295465
  35.4939632 106.5411399  75.3163271  36.2905443 107.4874007  76.1892122
  32.2417722 106.6619994  75.1361647  33.1070719 106.4662803  74.7767536
  32.3095231 106.4330346  76.0631004  41.8562853 116.9517575  68.6071841
  41.0792295 116.6128734  68.1627003  42.5354334 116.9570198  67.9326806
  36.6714882 112.0712312  68.4978448  36.3665017 112.3858461  69.3488592
  37.6245324 112.1493732  68.5405781  40.0954160 116.4251556  75.2638449
  39.4377834 117.1150817  75.3518577  40.8994559 116.8147988  75.6072435
  29.8480041 108.8922202  72.5078014  30.4223793 108.6697383  71.7751207
  30.4351024 108.9610896  73.2606615  38.9059618 114.7795929  73.3142390
  39.4191500 115.4125920  73.8164100  39.5560842 114.1797124  72.9485750
  30.1749628 110.9226663  66.5273899  29.3386941 111.2601349  66.8483174
  30.0354398 110.7875643  65.5901036  32.1502709 105.7663451  71.2353083
  31.4967121 105.4512468  70.6109698  32.1083183 105.1439191  71.9612906
  33.2613914 116.0482746  63.1506375  32.3540976 115.8171999  63.3497524
  33.7584946 115.2520365  63.3380357  35.3840449 112.2545384  75.5600731
  34.4663011 112.4760331  75.4022419  35.8000593 112.3291695  74.7012438
  36.1675497 113.6536800  70.6903411  36.9147316 114.1658197  70.3810533
  36.4367087 113.3320853  71.5507805  34.4402147 116.1495341  67.6730365
  33.5313366 115.8654373  67.7702835  34.4697231 116.5694419  66.8133672
  38.6154334 110.6893916  72.6722200  37.8777091 110.1771302  73.0032443
  38.8681108 110.2494298  71.8605477  38.7165962 103.4670168  73.2663970
  39.0224838 102.6067532  72.9789885  39.4418566 104.0587788  73.0662964
  32.9887041 113.7623961  73.7740161  33.0435651 112.8097798  73.6982637
  32.1778243 113.9183400  74.2581459  30.9279401 112.3801021  71.5330540
  30.1147267 112.6795192  71.9395732  31.4238395 111.9856710  72.2505022
  36.5253613 112.8442845  80.3645434  36.8803001 113.0714319  81.2239899
  37.1725744 113.1761222  79.7422689  42.2551350 115.9661281  71.0694763
  42.1169248 116.1562877  70.1415952  41.8987569 116.7280664  71.5262814
  30.4193476 109.9519376  77.1491775  31.0592855 109.8108136  76.4514738
  29.5871006 109.6653890  76.7730377  42.2820729 118.0337808  76.0806034
  42.7157236 117.9413097  76.9289088  42.9952310 118.0095309  75.4426050
  27.5036543 113.3964889  69.3386520  26.5734131 113.3349344  69.5556482
  27.5994015 112.8740841  68.5423161  27.4222092 109.9219701  71.9264761
  27.6828910 110.8365035  71.8173922  28.2439265 109.4544144  72.0761374
  28.8947018 111.3357459  79.0963586  29.5670071 111.1274821  78.4476235
  28.0676804 111.1379545  78.6568818  43.1436279 118.0761509  78.6138919
  43.3372169 118.9807319  78.8598194  43.0436897 117.6168928  79.4477505
  34.7972590 107.9619400  81.1129247  34.1500505 108.6609349  81.0193723
  35.5673605 108.3955543  81.4805495  34.9736724 115.8000164  79.1726067
  35.9028784 115.9511324  78.9995034  34.5527754 115.8884185  78.3174713
  29.2974515 114.6100062  79.8566023  29.1594313 113.8780300  80.4577562
  30.2079438 114.5208962  79.5750211  38.2589463 116.5488466  64.6050502
  37.6418633 115.8235294  64.5083554  37.7905951 117.3097826  64.2617576
  31.9256816 114.3220021  79.3449703  32.6356434 113.6813213  79.3036321
  31.8826124 114.5732916  80.2675884  30.6385750 111.3085239  81.1645342
  30.1023107 110.8575977  81.8166939  30.0502458 111.4431148  80.4215807
  30.0488009 110.7673890  63.7271806  29.1717475 110.6462691  63.3634053
  30.5245762 109.9759969  63.4750695  26.3724871 110.4441247  78.2498337
  26.2883060 109.8366916  77.5148747  25.5507577 110.9350265  78.2507833
  36.5448585 108.9294810  73.6168532  37.0417284 108.1764772  73.2969602
  35.7735566 108.9659127  73.0511741  44.3978342 114.6335176  75.2586823
  44.3868218 115.5159891  74.8880756  43.5295722 114.2806726  75.0641360
  33.1283553 111.0712193  73.3440216  32.7581341 110.5183233  74.0321122
  33.6242646 110.4670327  72.7915216  41.0150917 113.5283817  71.7256989
  41.4811369 114.3611808  71.6517292  41.4658417 113.0628798  72.4302248
  38.9867579 105.8964404  75.7647891  38.0730659 106.1268630  75.9330098
  39.4160681 105.9802848  76.6161923  38.7574038 114.0854296  78.2647785
  38.1045488 114.3330203  77.6100237  39.1354418 113.2718434  77.9310262
  34.8061611 114.8274107  84.7513822  34.1302248 114.7268236  85.4216197
  35.6289245 114.6713320  85.2149819  28.5248887 108.4816184  79.5893322
  28.5890214 109.3431015  79.1770720  28.4616007 107.8690185  78.8565681
  28.0001160 110.5539316  83.2366357  28.6273198 110.1716394  83.8503881
  27.1429078 110.3353518  83.6022049  24.7766702 112.3615745  69.1684712
  25.0720143 111.4526424  69.1151765  23.8754738 112.3403485  68.8465714
  28.3060949 110.4371742  75.1512260  27.5847535 111.0507710  75.0119733
  29.0954205 110.9729507  75.0728906  31.1087263 107.7726169  81.4252912
  31.6321665 108.0188465  82.1879221  30.8899596 108.6046203  81.0056049
  26.5054544 110.0429843  69.2924037  26.1767250 109.1627222  69.1099143
  26.8593915 109.9877512  70.1800426  29.6196367 110.3302813  69.6599514
  29.9592440 110.8588734  68.9378123  30.0668488 110.6683219  70.4358081
  32.3139808 108.7139864  79.1102582  31.9736628 107.9147677  79.5123262
  31.6078814 109.0141574  78.5379416  32.9656280 105.7989176  77.5629905
  33.7882349 105.3249654  77.4408796  33.2094343 106.5779660  78.0628592
  31.6064514 108.8277435  67.8592807  32.3272877 109.2058687  67.3556524
  30.9829818 109.5466311  67.9627785  35.7495637 109.5322583  68.7951139
  35.9659252 110.4147221  68.4939968  35.2689704 109.1408797  68.0656781
  30.4894859 112.4908297  75.3721884  30.3439439 112.8048600  76.2646166
  30.0120062 113.1093197  74.8192783  32.3491241 109.4810845  75.4202774
  32.3352810 108.5851938  75.0835072  33.0663670 109.4881508  76.0541060
  34.2017372 109.9148185  77.4655901  33.9435150 110.8365256  77.4640231
  33.6702413 109.5178619  78.1556365  31.7528137 108.3625225  70.6890344
  31.8744049 107.4341871  70.8881231  31.4630180 108.3763911  69.7768659
  34.6219328 106.0480135  73.8257064  34.6441025 106.1119469  72.8709043
  35.0387387 105.2084644  74.0197570  45.0002952 115.7835395  71.8636286
  45.4434098 115.0342720  71.4655409  44.1229462 115.7745531  71.4810018
  31.2369217 109.8757222  84.8980276  31.2857372 110.7519345  84.5158046
  31.7791731 109.3334615  84.3251920  41.8421938 117.2690812  81.4914142
  41.8919943 117.1040819  82.4329665  41.7335861 116.4018071  81.1012023
  39.1325700 113.2521740  82.8073449  40.0335563 113.1128205  82.5157446
  39.2073675 113.4176195  83.7471626  33.4668505 110.6288595  81.6526635
  32.5971815 110.9222161  81.3809224  33.7027986 111.2129040  82.3733899
  44.5435817 117.2540633  74.2558734  45.3782708 117.6930437  74.4196294
  44.6794946 116.7779286  73.4366980  41.5927323 114.8120368  80.2036221
  42.0681444 115.0048014  79.3955073  40.6692888 114.8679554  79.9579605
  36.1707539 106.8468212  79.1692055  36.6889483 107.5829239  78.8438544
  35.8162672 107.1532205  80.0038815  27.7506477 111.7072893  67.2853461
  27.0575722 111.7817248  66.6293497  27.5058229 110.9433237  67.8074978
  36.4220133 103.2668494  74.6892952  36.7021887 102.5991683  75.3153379
  37.2070740 103.4597590  74.1767616  40.2928992 111.6886128  78.4364527
  41.2446415 111.7884226  78.4576751  40.1232442 110.8964397  78.9462611
  38.3143371 108.7741711  78.6223928  37.7193303 109.0546724  77.9270417
  38.0293068 109.2635612  79.3940669  42.7717069 114.9092248  77.5506827
  42.7393390 113.9708249  77.7366511  43.3817693 114.9876285  76.8172652
  34.6100400 113.7788301  63.5934031  35.5559505 113.6494509  63.6622449
  34.2314645 113.0402963  64.0703459  42.9211558 111.7003291  77.5965110
  42.4050607 110.9161748  77.4095039  43.8051506 111.3722008  77.7611629
  40.5822285 105.4444307  73.5560923  40.3847106 105.1359395  74.4404255
  41.1921990 106.1705946  73.6858852  48.5893619 115.9708255  76.6912864
  49.3197008 115.7093543  77.2520567  47.9800565 115.2336977  76.7314932
  46.6708916 114.1116117  77.2887315  45.9442080 113.9772082  76.6803806
  46.2556203 114.4192946  78.0944033  32.7943317 111.7038277  63.5288916
  31.8874773 111.4071390  63.6051630  33.0719298 111.4068095  62.6623202
  34.4105383 106.2475167  69.6833157  33.6006112 105.9022252  70.0588403
  35.0989800 105.9382711  70.2720769  36.3395932 105.3253214  71.3057454
  36.8926970 105.7448667  71.9647477  36.5766018 104.3988962  71.3480410
  32.3629031 111.3140287  87.0860218  32.2625758 112.2634644  87.0172309
  32.1450573 110.9858526  86.2136288  31.5642102 108.5625212  63.6700895
  32.4261266 108.8880111  63.9296713  31.7492446 107.7756708  63.1573961
  39.7174739 107.4353739  70.8136118  39.1373408 108.0938543  70.4314171
  39.4510671 106.6131084  70.4023536  38.1678305 106.8358797  73.0157439
  38.6678083 106.9475331  72.2071757  38.8113913 106.5319849  73.6558247
  32.2260301 114.7437426  85.9025280  31.7427382 115.5437786  86.1089169
  32.3121240 114.7545371  84.9492723  38.4999617 109.5953829  69.8692466
  37.6125472 109.8803480  69.6512661  38.9153606 109.4347593  69.0219743
  41.8514153 109.6200350  73.5846806  42.6274543 110.1096803  73.8571423
  41.1262287 110.0458404  74.0418675  44.2886711 110.3327970  74.6420746
  44.8831202 110.0923705  73.9314055  44.3613295 109.6135100  75.2694283
  38.4740640 115.1108365  70.0842757  38.4175842 115.5676917  69.2450389
  39.0268983 114.3499050  69.9065599  42.2845446 110.8998097  70.9092876
  42.0282380 110.4994733  71.7401084  41.6598314 111.6141891  70.7843015
  46.5957784 113.6394170  73.4164168  46.0357342 113.7087360  74.1895730
  45.9901287 113.4635155  72.6963664  39.2075420 116.3013146  67.3795286
  39.1524223 116.1357418  66.4383730  38.5821475 117.0089179  67.5357476
  23.9967935 111.5381211  81.2056708  24.6426798 111.0280165  81.6943933
  23.7885086 112.2749893  81.7800133  32.5171545 105.8021256  66.9580604
  32.5050215 106.7463095  67.1148875  33.4094967 105.6191401  66.6640065
  36.3323665 102.3964032  71.2126541  35.5656060 101.8422519  71.3583223
  36.7434370 102.4685901  72.0740693  28.3365426 108.6848828  85.3031722
  29.1996887 108.3285633  85.5135047  27.7630836 108.3462723  85.9907127
  47.7572050 119.5368527  78.1646232  47.4136320 120.4270168  78.0885343
  48.1251013 119.3470184  77.3015817  49.5559716 118.7962086  73.2663970
  49.8618593 117.9359449  72.9789885  50.2812321 119.3879706  73.0662964
  49.8261334 121.2256321  75.7647891  48.9124414 121.4560548  75.9330098
  50.2554435 121.3094765  76.6161923  47.2613888 118.5960412  74.6892952
  47.5415642 117.9283601  75.3153379  48.0464495 118.7889508  74.1767616
  51.4216039 120.7736225  73.5560923  51.2240861 120.4651313  74.4404255
  52.0315745 121.4997863  73.6858852  47.1789686 120.6545131  71.3057454
  47.7320725 121.0740585  71.9647477  47.4159772 119.7280880  71.3480410
  47.1717419 117.7255950  71.2126541  46.4049815 117.1714437  71.3583223
  47.5828124 117.7977819  72.0740693   4.8212188  31.5027097  60.6837926
   4.0675896  30.9334495  60.5281930   4.9559729  31.4689761  61.6308561
   1.6427935  31.4729847  58.5881593   2.0859081  30.7237172  58.1900716
   0.7654446  31.4639983  58.2055325   1.1860800  32.9435085  60.9804040
   2.0207691  33.3824889  61.1441601   1.3219929  32.4673738  60.1612286
   5.2318603  31.6602707  63.4158170   5.9621991  31.3987995  63.9765874
   4.6225548  30.9231429  63.4560238   3.3133900  29.8010569  64.0132621
   2.5867063  29.6666534  63.4049113   2.8981187  30.1087398  64.8189339
   0.9311695  26.0222421  61.3666053   1.5256185  25.7818157  60.6559361
   1.0038278  25.3029552  61.9939589   3.2382767  29.3288622  60.1409474
   2.6782325  29.3981812  60.9141036   2.6326271  29.1529607  59.4208970
   4.8238786  46.0045136  62.8339430   5.4617196  45.8851884  62.1302770
   4.7059629  46.9525980  62.8927382   1.6328492  45.9572564  62.7700955
   1.2947004  45.8413629  61.8821489   2.5018260  45.5563729  62.7501961
   2.1148275  47.1107416  68.7287160   2.1036916  46.7160214  67.8567664
   2.2768915  46.3773489  69.3220932   3.0714867  51.4779008  54.0712310
   2.4202846  52.0633089  53.6846324   3.8659229  52.0085203  54.1307348
   4.3780054  43.7296590  59.9092638   5.1643144  43.3116013  59.5583055
   4.6418759  44.6342682  60.0774286   4.5490132  49.1669440  54.6081295
   3.9135965  49.2404067  55.3202199   4.2187538  49.7563039  53.9300374
   9.7788481  43.6671823  60.8125616  10.5113653  43.0971040  61.0463446
   9.0227837  43.2793424  61.2532122   1.3964601  46.0899065  58.0088959
   1.0322808  45.5629686  58.7201880   2.2531717  45.6997534  57.8355444
   7.3013902  37.3793397  65.2720225   6.9697227  38.2488808  65.0481440
   6.7059515  37.0629681  65.9514255   1.0370088  41.1188964  53.0050307
   1.2044491  41.9869201  53.3720778   0.8467257  41.2816246  52.0811597
   3.7945421  49.5805943  64.6716138   3.4946144  50.4830982  64.5631945
   3.4496481  49.3138127  65.5237291   7.1942565  42.0988484  62.3513575
   6.2859442  42.0303892  62.0572336   7.1430161  42.5760428  63.1795401
   1.2683431  43.5178129  70.2948472   0.4916765  44.0772049  70.2851337
   1.9073994  44.0034912  70.8163342   9.0604212  40.3004922  64.1291449
   8.4178592  40.5937455  63.4831244   8.5559140  40.1857842  64.9344646
   6.7144375  44.0468095  54.8177308   7.6262231  44.2795482  54.6425006
   6.2054022  44.6305139  54.2552387   4.9985143  48.4692723  68.4538601
   5.4068499  48.0275133  67.7093233   4.2762404  47.8945350  68.7072794
   1.3516213  43.4065330  65.8272158   2.1977408  43.8304743  65.9706807
   1.2914851  42.7498954  66.5210721   5.3213958  49.0293914  62.2090890
   4.6922820  49.1939628  61.5066958   4.9339620  49.4435523  62.9801854
   9.2003189  49.9648351  59.5635254   8.5154228  50.3447253  59.0132287
   9.2847039  50.5743678  60.2967201   4.5015658  41.0669698  67.4853331
   4.2576590  41.8211759  66.9487607   4.7775589  41.4455046  68.3200579
   6.4554121  47.6108310  66.1630597   6.6671016  48.2540070  65.4864978
   6.4083869  46.7770627  65.6952527   4.0580350  40.2226131  63.0667169
   3.1964829  40.5207385  63.3583907   4.0842785  40.4396530  62.1348202
   0.8741919  48.7668322  59.4740975   1.3380265  49.0456025  58.6845597
   0.6098718  47.8651766  59.2914066   7.5699949  50.4880266  64.3352954
   8.3917393  50.0860453  64.0535636   7.5662352  50.3848500  65.2869070
   1.3356552  50.0364309  66.4913665   1.4000985  50.4984716  67.3271837
   0.6267476  49.4061674  66.6195975  15.6605942  46.8319014  60.6837926
  14.9069650  46.2626412  60.5281930  15.7953483  46.7981679  61.6308561
   1.0504570  51.7032417  56.3592645   0.9150245  52.5483952  56.7877493
   1.5914383  51.9051694  55.5958579   2.6773046  52.3255983  70.4892987
   2.2336901  51.5392362  70.1713892   3.3390260  52.5135134  69.8236878
   4.7754285  52.6058783  68.5174389   4.7572760  53.4267664  68.0254658
   5.6974205  52.4812858  68.7424530   1.2327339  50.1202913  69.3597897
   1.7655675  49.3591201  69.1297205   0.7041420  49.8276564  70.1022051
   4.3997034  35.2262979  64.8891539   4.0561303  36.1164620  64.8130649
   4.7675996  35.0364636  64.0261124   4.3647316  45.2171590  53.3963974
   3.8493940  45.9876194  53.6352361   4.0924625  44.5436726  54.0197035
   1.9494427  40.0621290  58.4549212   1.0936024  39.6728141  58.2754851
   2.3621379  40.1413251  57.5948998   3.4793574  37.5967634  62.8540772
   2.9758370  37.5597769  62.0408577   3.7724181  38.5060376  62.9137429
   9.3381591  47.9703944  55.3317147   8.5611033  47.6315104  54.8872309
  10.0173071  47.9756567  54.6572112   4.1533620  43.0898682  55.2223755
   3.8483755  43.4044831  56.0733898   5.1064062  43.1680102  55.2651088
   2.5980051  49.2488905  56.8716709   2.0701413  48.5141665  56.5589946
   2.0967554  50.0263581  56.6256677   7.5772897  47.4437926  61.9883755
   6.9196572  48.1337187  62.0763884   8.3813297  47.8334357  62.3317742
   6.3878356  45.7982298  60.0387697   6.9010238  46.4312290  60.5409407
   7.0379580  45.1983494  59.6731057   3.6500730  55.7766622  52.7948368
   2.9762429  56.0798319  53.4033326   4.0366552  56.5795703  52.4453825
   2.8659187  43.2731754  62.2846038   1.9481748  43.4946701  62.1267726
   3.2819331  43.3478064  61.4257745   3.6494235  44.6723169  57.4148718
   4.3966054  45.1844567  57.1055840   3.9185824  44.3507222  58.2753111
   1.9220885  47.1681710  54.3975672   1.0132104  46.8840743  54.4948142
   1.9515969  47.5880789  53.5378979   7.1540152  50.7788300  58.1666840
   6.7002480  49.9379210  58.2232030   6.5234119  51.4149698  58.5041620
   6.0973072  41.7080286  59.3967507   5.3595829  41.1957672  59.7277750
   6.3499846  41.2680667  58.5850784   5.5973092  52.6164796  59.1016658
   5.8896066  53.1769853  58.3829023   6.1071712  52.9093357  59.8569817
   6.1984699  34.4856538  59.9909276   6.5043576  33.6253901  59.7035191
   6.9237304  35.0774158  59.7908270   1.6196973  48.7090454  51.7363751
   1.1816403  47.9926313  51.2769388   2.3607414  48.9366569  51.1748842
   0.5606717  53.3945147  60.1910111   0.5182896  53.6205994  59.2618643
   1.4769416  53.1608522  60.3395912   4.0072351  43.8629215  67.0890740
   4.3621738  44.0900688  67.9485206   4.6544482  44.1947592  66.4667995
   9.7370088  46.9847651  57.7940069   9.5987986  47.1749247  56.8661258
   9.3806306  47.7467034  58.2508120   9.7639467  49.0524178  62.8051341
  10.1975974  48.9599467  63.6534395  10.4771048  49.0281678  62.1671357
   3.4967362  52.6526272  64.3384441   3.5504384  53.2217208  65.1062157
   2.6282143  52.8228157  63.9738478  10.6255017  49.0947879  65.3384226
  10.8190907  49.9993689  65.5843501  10.5255635  48.6355298  66.1722811
   2.2791327  38.9805769  67.8374553   1.6319243  39.6795719  67.7439030
   3.0492343  39.4141913  68.2050802   5.6870125  49.2454621  70.9125107
   5.5355632  49.0165173  69.9955190   5.6774805  50.2025223  70.9256452
   2.4555462  46.8186534  65.8971373   3.3847522  46.9697694  65.7240340
   2.0346492  46.9070555  65.0420020   1.8491946  55.9446295  55.0095447
   2.0243701  55.4734338  55.8241070   1.1624734  56.5712061  55.2376708
   2.8049009  50.2218801  61.0558749   2.4698841  50.1819571  61.9516398
   2.3052954  49.5563517  60.5829159   5.7408200  47.5674835  51.3295808
   5.1237371  46.8421664  51.2328861   5.2724689  48.3284196  50.9862882
   7.3962332  52.2773744  68.9901589   7.3374878  51.5932964  68.3232172
   7.7981850  53.0192734  68.5382215   7.3979739  50.2413328  67.2215568
   6.5106518  49.9039250  67.3441967   7.9678290  49.5096359  67.4584334
   0.9280893  54.9014780  64.1876811   0.8551064  55.7069752  64.6996116
   0.4858286  55.1006746  63.3624833   4.0267322  39.9481180  60.3413838
   4.5236022  39.1951142  60.0214909   3.2554304  39.9845496  59.7757048
  11.8797080  45.6521545  61.9832130  11.8686956  46.5346261  61.6126063
  11.0114459  45.2993096  61.7886667   3.3879576  54.8001614  66.3434970
   4.1007548  55.4349079  66.2710872   2.8969605  54.8965480  65.5274972
   5.1097103  48.7052867  57.9152262   4.1753382  48.8254329  57.7456966
   5.2873772  47.8025334  57.6512272   8.4969655  44.5470186  58.4502296
   8.9630107  45.3798178  58.3762599   8.9477155  44.0815168  59.1547554
   6.5645886  50.8914007  55.4488448   6.8405730  50.7770602  56.3582322
   5.6950384  50.4931492  55.4100621   6.4686317  36.9150773  62.4893197
   5.5549397  37.1455000  62.6575404   6.8979419  36.9989217  63.3407230
   6.2392776  45.1040665  64.9893091   5.5864226  45.3516573  64.3345544
   6.6173156  44.2904803  64.6555569   3.1999950  55.1400358  59.0921262
   3.3822344  54.3222014  59.5549014   4.0232936  55.3568051  58.6546152
   3.5342115  54.0668543  56.3536310   4.0629882  53.5560998  55.7406472
   3.7970335  53.7511074  57.2181843   2.2880349  45.8460476  71.4759128
   1.6120986  45.7454605  72.1461504   3.1107983  45.6899690  71.9395126
   1.0303132  57.1527404  65.7116744   1.5821440  57.3159025  66.4765830
   1.3709325  57.7431841  65.0396769   5.8814006  51.9788661  71.5665399
   6.4253910  52.5918619  71.0720354   5.3000851  52.5368240  72.0832412
   4.1671519  55.1009379  62.6980427   4.0422658  54.2999119  62.1891372
   4.8250610  55.5955572  62.2094397   6.2306427  52.9018399  64.3259977
   5.2836763  52.7823750  64.2538303   6.5789200  52.0140897  64.4086238
   3.2352861  52.6971115  60.5264329   3.0877823  51.7687823  60.7071899
   4.0606354  52.7191206  60.0421404   6.8386982  53.5199674  61.6129202
   7.7633530  53.3142535  61.4753653   6.6702286  53.2716075  62.5218543
   3.2314375  40.5508953  55.5196446   3.4477989  41.4333591  55.2185274
   2.7508442  40.1595166  54.7902088   1.6836110  40.9334554  64.1901208
   1.4253888  41.8551625  64.1885538   1.1521150  40.5364989  64.8801672
   6.6282299  54.0385342  56.9691293   6.8019176  53.4731764  56.2165146
   7.1211190  54.8386236  56.7870783   2.1038066  37.0666505  60.5502370
   2.1259762  37.1305838  59.5954350   2.5206125  36.2271014  60.7442876
  12.4821690  46.8021765  58.5881593  12.9252836  46.0529090  58.1900716
  11.6048200  46.7931901  58.2055325   7.6157471  53.3552106  54.0688191
   8.3108376  53.9758799  54.2875506   7.9580621  52.5047457  54.3440569
   9.5148894  50.8051812  55.5975522  10.0400218  51.1439084  54.8724842
   9.4271247  49.8698827  55.4138657   1.1768943  54.7185885  67.7265399
   1.4856069  54.4735032  68.5988098   1.9744425  54.9232524  67.2384269
   1.1989555  56.8723795  59.9570775   0.7594545  56.3800174  60.6503632
   1.9497672  56.3296762  59.7162851   9.2042800  51.4384715  70.9026720
   8.4138344  51.4208854  70.3631219   8.9676155  51.9773009  71.6575757
   9.3240675  48.2877182  68.2159449   9.3738680  48.1227189  69.1574971
   9.2154599  47.4204441  67.8257329   6.6144438  44.2708110  69.5318755
   7.5154301  44.1314574  69.2402753   6.6892412  44.4362564  70.4716933
  10.8258872  50.7074123  68.4601470  10.5343681  51.0704104  69.2964931
  10.2131004  49.9941131  68.2814802  12.0254555  48.2727003  60.9804040
  12.8601446  48.7116807  61.1441601  12.1613683  47.7965656  60.1612286
   9.0746060  45.8306738  66.9281528   9.5500182  46.0234384  66.1200380
   8.1511626  45.8865924  66.6824912   3.6526277  37.8654581  65.8937362
   4.1708221  38.6015608  65.5683851   3.2981410  38.1718575  66.7284121
   3.9038871  34.2854864  61.4138259   4.1840625  33.6178053  62.0398685
   4.6889478  34.4783959  60.9012922   1.7072340  53.4613858  52.9763285
   1.1346307  54.0804045  52.5233757   2.2805133  54.0113219  53.5103207
   7.7747729  42.7072498  65.1609834   8.7265152  42.8070595  65.1822058
   7.6051180  41.9150766  65.6707918   5.7962109  39.7928081  65.3469235
   5.2012041  40.0733094  64.6515723   5.5111806  40.2821982  66.1185976
   4.9269599  53.7451008  54.1071867   5.8600273  53.6796569  54.3104743
   4.8392812  54.5807275  53.6486400   7.5557616  53.0616878  51.0675815
   7.4771248  52.7276742  51.9611573   8.3767283  53.5538646  51.0667287
  10.2535807  45.9278617  64.2752133  10.2212127  44.9894618  64.4611817
  10.8636431  46.0062654  63.5417958   2.0919138  44.7974670  50.3179337
   3.0378243  44.6680879  50.3867755   1.7133383  44.0589332  50.7948766
  10.4030296  42.7189661  64.3210417   9.8869344  41.9348118  64.1340345
  11.2870244  42.3908378  64.4856936   8.0641023  36.4630676  60.2806229
   7.8665844  36.1545765  61.1649561   8.6740728  37.1892315  60.4104159
  16.0712357  46.9894624  63.4158170  16.8015746  46.7279912  63.9765874
  15.4619303  46.2523346  63.4560238  14.1527654  45.1302487  64.0132621
  13.4260818  44.9958452  63.4049113  13.7374941  45.4379316  64.8189339
   1.9757831  48.8492417  71.7779994   2.8960840  49.0271016  71.9720041
   1.9407414  47.9048462  71.6259694   1.8924121  37.2661537  56.4078464
   1.0824849  36.9208622  56.7833710   2.5808538  36.9569080  56.9966076
   3.8214669  36.3439583  58.0302761   4.3745708  36.7635037  58.6892784
   4.0584756  35.4175331  58.0725717   7.1993476  38.4540108  57.5381425
   6.6192145  39.1124913  57.1559477   6.9329409  37.6317453  57.1268842
   5.6497043  37.8545166  59.7402745   6.1496821  37.9661701  58.9317064
   6.2932651  37.5506219  60.3803554   5.9818354  40.6140199  56.5937773
   5.0944209  40.8989850  56.3757968   6.3972343  40.4533962  55.7465050
   9.3332891  40.6386720  60.3092112  10.1093281  41.1283172  60.5816729
   8.6081025  41.0644774  60.7663982  11.7705449  41.3514339  61.3666053
  12.3649940  41.1110075  60.6559361  11.8432033  40.6321470  61.9939589
   5.1261568  50.3784874  50.6885793   5.8297418  50.5834876  51.3043449
   4.4024217  50.9461635  50.9534877   5.9559378  46.1294735  56.8088063
   5.8994580  46.5863286  55.9695696   6.5087721  45.3685419  56.6310906
   9.7664184  41.9184467  57.6338183   9.5101118  41.5181102  58.4646390
   9.1417052  42.6328261  57.5088322  14.0776522  44.6580540  60.1409474
  13.5176080  44.7273729  60.9141036  13.4720025  44.4821525  59.4208970
   7.0348265  50.8167403  52.7384253   7.8693869  50.3848601  52.5561728
   6.8732608  50.6449416  53.6661148   6.6894157  47.3199516  54.1040592
   6.6342961  47.1543787  53.1629037   6.0640213  48.0275549  54.2602782
   4.0040065  49.6248428  73.4294155   4.8731224  49.7989080  73.0680790
   3.5246816  50.4442845  73.3069885   3.8142402  33.4150402  57.9371848
   3.0474798  32.8608888  58.0828530   4.2253107  33.4872270  58.7985999
  15.6632540  61.3337054  62.8339430  16.3010950  61.2143801  62.1302770
  15.5453383  62.2817898  62.8927382  12.4722247  61.2864482  62.7700955
  12.1340758  61.1705547  61.8821489  13.3412015  60.8855647  62.7501961
   8.3309062  63.1399958  58.7597846   7.7673927  63.0489895  57.9914133
   8.2161457  62.3199863  59.2400338  12.9542030  62.4399334  68.7287160
  12.9430670  62.0452132  67.8567664  13.1162669  61.7065406  69.3220932
   5.8773494  64.6351150  61.5982066   6.6694786  64.2941975  61.1828365
   6.1170144  64.7446125  62.5184219  13.9108621  66.8070926  54.0712310
  13.2596601  67.3925006  53.6846324  14.7052984  67.3377121  54.1307348
   7.8364248  63.8960063  54.4699445   8.6095124  63.3489050  54.3312321
   8.1889647  64.7604313  54.6813906   9.6749291  65.2236446  67.6766344
   9.3839157  66.1282076  67.5613010  10.3106275  65.2652973  68.3910414
  10.6005498  62.6013294  64.2667704  11.1969070  62.3769316  63.5524667
  10.6580469  61.8598039  64.8693152  10.1730526  60.0552729  52.1017895
  10.4256047  59.5334251  51.3401358   9.2355085  59.8918875  52.2044578
  15.2173809  59.0588508  59.9092638  16.0036898  58.6407931  59.5583055
  15.4812513  59.9634600  60.0774286  15.3883886  64.4961358  54.6081295
  14.7529719  64.5695985  55.3202199  15.0581293  65.0854957  53.9300374
  20.6182236  58.9963741  60.8125616  21.3507408  58.4262958  61.0463446
  19.8621592  58.6085341  61.2532122   9.8926815  61.9580835  54.3042270
   9.7763073  61.2825739  54.9723354  10.0029075  61.4713209  53.4874423
  12.2358356  61.4190982  58.0088959  11.8716563  60.8921603  58.7201880
  13.0925472  61.0289451  57.8355444  18.1407656  52.7085315  65.2720225
  17.8090981  53.5780726  65.0481440  17.5453270  52.3921599  65.9514255
  11.8763843  56.4480882  53.0050307  12.0438245  57.3161119  53.3720778
  11.6861012  56.6108164  52.0811597  14.6339176  64.9097861  64.6716138
  14.3339899  65.8122900  64.5631945  14.2890235  64.6430044  65.5237291
   8.0851657  61.3611658  60.7052842   7.1602154  61.2287872  60.9130534
   8.3336071  62.1405877  61.2022785  18.0336320  57.4280401  62.3513575
  17.1253197  57.3595810  62.0572336  17.9823915  57.9052346  63.1795401
  11.8553064  58.9038540  53.9896974  11.7352689  59.3495590  54.8282455
  11.1605652  59.2523857  53.4310512   5.4460468  61.0044931  61.5396631
   5.5752850  61.2579410  62.4536043   4.7657920  61.5972639  61.2201286
   9.6159956  71.6742181  57.6387105   9.5383985  72.6250006  57.7175586
   9.0121599  71.3288054  58.2962032  12.1077185  58.8470047  70.2948472
  11.3310519  59.4063967  70.2851337  12.7467748  59.3326830  70.8163342
  19.8997966  55.6296840  64.1291449  19.2572346  55.9229373  63.4831244
  19.3952895  55.5149760  64.9344646  17.5538130  59.3760013  54.8177308
  18.4655986  59.6087400  54.6425006  17.0447777  59.9597057  54.2552387
  10.3623558  61.6555500  69.8566439  11.1038242  62.1940544  69.5801263
   9.6560543  62.2821789  70.0137991  15.8378897  63.7984641  68.4538601
  16.2462253  63.3567051  67.7093233  15.1156159  63.2237268  68.7072794
  12.1909967  58.7357247  65.8272158  13.0371163  59.1596661  65.9706807
  12.1308605  58.0790872  66.5210721  16.1607712  64.3585831  62.2090890
  15.5316574  64.5231545  61.5066958  15.7733374  64.7727441  62.9801854
  20.0396944  65.2940269  59.5635254  19.3547982  65.6739170  59.0132287
  20.1240793  65.9035596  60.2967201  15.3409413  56.3961616  67.4853331
  15.0970345  57.1503676  66.9487607  15.6169343  56.7746963  68.3200579
  17.2947876  62.9400228  66.1630597  17.5064771  63.5831988  65.4864978
  17.2477624  62.1062545  65.6952527  14.8974104  55.5518049  63.0667169
  14.0358584  55.8499302  63.3583907  14.9236539  55.7688448  62.1348202
  11.7135674  64.0960239  59.4740975  12.1774019  64.3747942  58.6845597
  11.4492472  63.1943684  59.2914066   8.6059755  63.6431721  62.4120738
   9.1761112  64.0718989  61.7738223   9.1967867  63.3614306  63.1104924
  10.6504560  60.2183392  56.2830540  11.3528603  60.6704435  56.7504466
  10.3185188  59.5767211  56.9110433   9.0984921  58.8095148  70.6581749
   8.4683582  59.4911429  70.8917146   8.9921009  58.6978230  69.7134888
   4.3929894  58.4766944  61.5847674   3.6028948  58.7324473  61.1087784
   4.8841141  59.2915282  61.6899714  18.4093703  65.8172184  64.3352954
  19.2311147  65.4152371  64.0535636  18.4056106  65.7140418  65.2869070
   6.3444639  58.8411524  58.5431150   5.5475803  58.9530218  59.0614646
   6.1170231  59.1798176  57.6772041  12.1750307  65.3656227  66.4913665
  12.2394739  65.8276634  67.3271837  11.4661231  64.7353592  66.6195975
   2.6767597  58.7297435  64.0162664   2.9275635  59.6144445  64.2820240
   3.2127145  58.5502036  63.2437756  26.4999697  62.1610932  60.6837926
  25.7463405  61.5918330  60.5281930  26.6347238  62.1273597  61.6308561
  11.8898325  67.0324334  56.3592645  11.7543999  67.8775870  56.7877493
  12.4308137  67.2343612  55.5958579   8.3765664  53.1115914  73.0207000
   7.9832610  52.5582113  73.6954645   9.1931805  53.4226493  73.4113518
   5.3427722  64.5499772  56.9320570   5.8552243  65.3443023  57.0826135
   5.9950435  63.8526063  56.8654172   7.1522607  67.6665529  59.0143323
   7.3289235  68.5883493  58.8264307   7.9479440  67.3523948  59.4437703
  11.2933625  54.5273793  70.6127257  12.0343339  55.1280946  70.5331719
  11.5251548  53.7851431  70.0545300   6.4374963  59.7130161  68.8905487
   6.3228478  58.8115418  69.1912586   5.5819481  59.9593857  68.5390303
  13.5166801  67.6547901  70.4892987  13.0730655  66.8684279  70.1713892
  14.1784015  67.8427051  69.8236878   8.2753922  69.1843702  65.0153666
   8.8261347  69.0560766  64.2430660   7.4365398  69.4838591  64.6648559
  15.6148039  67.9350701  68.5174389  15.5966514  68.7559582  68.0254658
  16.5367959  67.8104776  68.7424530  12.0721093  65.4494830  69.3597897
  12.6049430  64.6883118  69.1297205  11.5435174  65.1568482  70.1022051
  15.2390788  50.5554896  64.8891539  14.8955058  51.4456538  64.8130649
  15.6069751  50.3656554  64.0261124   3.3076639  62.8788427  57.7080141
   4.1451861  63.2885435  57.4913849   3.4854906  61.9387869  57.6780335
  15.2041071  60.5463507  53.3963974  14.6887694  61.3168112  53.6352361
  14.9318379  59.8728643  54.0197035  12.7888182  55.3913208  58.4549212
  11.9329778  55.0020058  58.2754851  13.2015134  55.4705169  57.5948998
  14.3187329  52.9259551  62.8540772  13.8152124  52.8889687  62.0408577
  14.6117935  53.8352294  62.9137429  10.5630214  53.0098281  61.8606954
  11.4283211  52.8141090  61.5012843  10.6307723  52.7808633  62.7876310
  20.1775345  63.2995862  55.3317147  19.4004788  62.9607021  54.8872309
  20.8566826  63.3048485  54.6572112  14.9927374  58.4190599  55.2223755
  14.6877510  58.7336749  56.0733898  15.9457816  58.4972019  55.2651088
  13.4373806  64.5780823  56.8716709  12.9095167  63.8433582  56.5589946
  12.9361309  65.3555499  56.6256677  18.4166652  62.7729843  61.9883755
  17.7590326  63.4629105  62.0763884  19.2207051  63.1626275  62.3317742
   8.1692533  55.2400489  59.2323320   8.7436285  55.0175670  58.4996513
   8.7563516  55.3089184  59.9851922  17.2272111  61.1274216  60.0387697
  17.7403992  61.7604208  60.5409407  17.8773335  60.5275411  59.6731057
   8.4962121  57.2704950  53.2519206   7.6599433  57.6079637  53.5728480
   8.3566890  57.1353930  52.3146343  10.4715201  52.1141738  57.9598390
   9.8179614  51.7990755  57.3355005  10.4295675  51.4917478  58.6858213
  11.5826406  62.3961033  49.8751682  10.6753468  62.1650286  50.0742831
  12.0797438  61.5998652  50.0625664  14.4894485  71.1058540  52.7948368
  13.8156184  71.4090237  53.4033326  14.8760307  71.9087621  52.4453825
  13.7052942  58.6023671  62.2846038  12.7875503  58.8238618  62.1267726
  14.1213085  58.6769982  61.4257745  14.4887989  60.0015087  57.4148718
  15.2359808  60.5136484  57.1055840  14.7579579  59.6799140  58.2753111
  12.7614639  62.4973628  54.3975672  11.8525859  62.2132661  54.4948142
  12.7909723  62.9172706  53.5378979  17.9933907  66.1080217  58.1666840
  17.5396234  65.2671127  58.2232030  17.3627874  66.7441616  58.5041620
  16.9366826  57.0372203  59.3967507  16.1989583  56.5249590  59.7277750
  17.1893600  56.5972585  58.5850784  16.4366846  67.9456714  59.1016658
  16.7289821  68.5061771  58.3829023  16.9465467  68.2385275  59.8569817
  17.0378454  49.8148455  59.9909276  17.3437331  48.9545819  59.7035191
  17.7631059  50.4066076  59.7908270   3.3302810  60.2179142  58.3790874
   3.1327210  59.6248503  57.6541941   2.7749474  59.9131352  59.0966813
  11.3099534  60.1102248  60.4985467  11.3648143  59.1576085  60.4227944
  10.4990736  60.2661688  60.9826766  12.4590727  64.0382372  51.7363751
  12.0210157  63.3218230  51.2769388  13.2001168  64.2658486  51.1748842
   9.2491893  58.7279308  58.2575846   8.4359759  59.0273479  58.6641038
   9.7450888  58.3334997  58.9750329  11.4000471  68.7237065  60.1910111
  11.3576650  68.9497911  59.2618643  12.3163170  68.4900440  60.3395912
  14.8466105  59.1921133  67.0890740  15.2015493  59.4192606  67.9485206
  15.4938236  59.5239509  66.4667995  20.5763842  62.3139569  57.7940069
  20.4381741  62.5041165  56.8661258  20.2200061  63.0758951  58.2508120
   8.7405968  56.2997664  63.8737081   9.3805348  56.1586423  63.1760045
   7.9083499  56.0132177  63.4975683  20.6033222  64.3816096  62.8051341
  21.0369728  64.2891385  63.6534395  21.3164802  64.3573596  62.1671357
   9.5166272  65.6000094  59.9872074  10.3106871  65.1050414  59.7854649
   8.8057965  65.0717957  59.6239779  14.3361117  67.9818190  64.3384441
  14.3898139  68.5509126  65.1062157  13.4675898  68.1520075  63.9738478
   5.8249036  59.7443176  56.0631826   4.8946624  59.6827631  56.2801789
   5.9206508  59.2219129  55.2668468   5.7434585  56.2697989  58.6510068
   6.0041402  57.1843322  58.5419229   6.5651757  55.8022431  58.8006681
   7.2159510  57.6835746  65.8208893   7.8882563  57.4753108  65.1721541
   6.3889296  57.4857832  65.3814125  21.4648771  64.4239796  65.3384226
  21.6584661  65.3285607  65.5843501  21.3649389  63.9647215  66.1722811
  13.1185082  54.3097687  67.8374553  12.4712997  55.0087636  67.7439030
  13.8886097  54.7433831  68.2050802  16.5263880  64.5746539  70.9125107
  16.3749386  64.3457091  69.9955190  16.5168559  65.5317140  70.9256452
  13.2949216  62.1478452  65.8971373  14.2241276  62.2989611  65.7240340
  12.8740246  62.2362473  65.0420020  12.0937548  66.1729116  63.6669911
  11.9548634  65.8047901  64.5395849  11.3052144  66.6876756  63.4953869
  12.6885700  71.2738213  55.0095447  12.8637456  70.8026256  55.8241070
  12.0018488  71.9003979  55.2376708  13.6442763  65.5510719  61.0558749
  13.3092596  65.5111489  61.9516398  13.1446709  64.8855435  60.5829159
   7.6187007  60.9578349  66.5811330   7.4806805  60.2258588  67.1822869
   8.5291931  60.8687249  66.2995517  16.5801955  62.8966753  51.3295808
  15.9631126  62.1713581  51.2328861  16.1118443  63.6576113  50.9862882
  10.2469308  60.6698308  66.0695009  10.9568926  60.0291500  66.0281628
  10.2038616  60.9211203  66.9921190  18.2356087  67.6065662  68.9901589
  18.1768633  66.9224882  68.3232172  18.6375605  68.3484652  68.5382215
   8.9598242  57.6563526  67.8890649   8.4235599  57.2054265  68.5412245
   8.3714950  57.7909435  67.1461113   7.2546785  74.4227575  61.7835307
   7.4943384  75.0546100  62.4614326   6.4115982  74.0715615  62.0700667
   8.3700501  57.1152177  50.4517113   7.4929967  56.9940978  50.0879359
   8.8458254  56.3238256  50.1996001  18.2373494  65.5705245  67.2215568
  17.3500273  65.2331167  67.3441967  18.8072045  64.8388277  67.4584334
   4.6937363  56.7919534  64.9743643   4.6095552  56.1845203  64.2394053
   3.8720070  57.2828552  64.9753140  11.7674647  70.2306698  64.1876811
  11.6944819  71.0361669  64.6996116  11.3252040  70.4298664  63.3624833
  11.5564427  69.4678468  57.6979633  10.7731949  70.0100148  57.7917858
  12.2557172  69.9852447  58.0973874  14.8661077  55.2773097  60.3413838
  15.3629777  54.5243060  60.0214909  14.0948058  55.3137414  59.7757048
  22.7190834  60.9813463  61.9832130  22.7080711  61.8638178  61.6126063
  21.8508214  60.6285014  61.7886667  14.2273331  70.1293532  66.3434970
  14.9401303  70.7640997  66.2710872  13.7363359  70.2257398  65.5274972
  15.9490858  64.0344785  57.9152262  15.0147136  64.1546247  57.7456966
  16.1267526  63.1317251  57.6512272  11.4496046  57.4190480  60.0685523
  11.0793833  56.8661521  60.7566429  11.9455138  56.8148614  59.5160523
  19.3363409  59.8762104  58.4502296  19.8023861  60.7090095  58.3762599
  19.7870910  59.4107085  59.1547554   9.2785244  67.8787975  67.1640541
   9.9794704  68.5124458  67.3169935   8.8080359  68.2202707  66.4036180
  17.4039640  66.2205925  55.4488448  17.6799484  66.1062520  56.3582322
  16.5344139  65.8223410  55.4100621  17.3080072  52.2442691  62.4893197
  16.3943152  52.4746918  62.6575404  17.7373173  52.3281135  63.3407230
  17.0786530  60.4332583  64.9893091  16.4257980  60.6808490  64.3345544
  17.4566910  59.6196721  64.6555569  14.0393704  70.4692276  59.0921262
  14.2216099  69.6513932  59.5549014  14.8626690  70.6859968  58.6546152
  14.3735870  69.3960461  56.3536310  14.9023636  68.8852916  55.7406472
  14.6364089  69.0802991  57.2181843  13.1274103  61.1752394  71.4759128
  12.4514740  61.0746523  72.1461504  13.9501737  61.0191608  71.9395126
   4.8752962  67.4124330  64.0971644   5.4606399  66.6668018  64.2299548
   4.6777801  67.7228287  64.9808308   7.7291618  70.4475578  59.1134086
   7.0601993  70.9321705  58.6298126   7.5904487  70.6944798  60.0277465
  11.8696886  72.4819321  65.7116744  12.4215194  72.6450943  66.4765830
  12.2103080  73.0723759  65.0396769   6.8461379  54.8294471  66.3138629
   6.9102706  55.6909302  65.9016027   6.7828500  54.2168473  65.5810988
   6.3213652  56.9017604  69.9611663   6.9485691  56.5194681  70.5749188
   5.4641571  56.6831806  70.3267356  16.7207760  67.3080579  71.5665399
  17.2647664  67.9210537  71.0720354  16.1394605  67.8660157  72.0832412
   3.0979195  58.7094033  55.8930018   3.3932636  57.8004711  55.8397072
   2.1967230  58.6881772  55.5711021  15.0065273  70.4301297  62.6980427
  14.8816413  69.6291037  62.1891372  15.6644365  70.9247490  62.2094397
   6.6273442  56.7850029  61.8757567   5.9060027  57.3985997  61.7365040
   7.4166697  57.3207794  61.7974213  17.0700182  68.2310317  64.3259977
  16.1230517  68.1115668  64.2538303  17.4182955  67.3432815  64.4086238
   9.4299755  54.1204456  68.1498219   9.9534157  54.3666752  68.9124528
   9.2112088  54.9524491  67.7301356   4.8267036  56.3908130  56.0169343
   4.4979742  55.5105509  55.8344449   5.1806407  56.3355799  56.9045733
  14.0746615  68.0263033  60.5264329  13.9271578  67.0979741  60.7071899
  14.9000109  68.0483124  60.0421404   7.9408859  56.6781100  56.3844821
   8.2804932  57.2067021  55.6623429   8.3880980  57.0161506  57.1603388
  17.6780737  68.8491592  61.6129202  18.6027284  68.6434453  61.4753653
  17.5096040  68.6007993  62.5218543  10.6352300  55.0618151  65.8347889
  10.2949121  54.2625964  66.2368569   9.9291307  55.3619862  65.2624722
  11.2868772  52.1467463  64.2875212  12.1094841  51.6727942  64.1654102
  11.5306836  52.9257947  64.7873898   9.9277007  55.1755722  54.5838114
  10.6485369  55.5536975  54.0801831   9.3042311  55.8944599  54.6873092
  14.0708129  55.8800871  55.5196446  14.2871744  56.7625509  55.2185274
  13.5902197  55.4887084  54.7902088   8.8107351  58.8386584  62.0967191
   8.6651932  59.1526887  62.9891472   8.3332554  59.4571484  61.5438089
  10.6703734  55.8289132  62.1448080  10.6565302  54.9330225  61.8080378
  11.3876162  55.8359796  62.7786366  12.5229864  56.2626472  64.1901208
  12.2647642  57.1843543  64.1885538  11.9914905  55.8656907  64.8801672
  17.4676053  69.3677259  56.9691293  17.6412931  68.8023682  56.2165146
  17.9604944  70.1678154  56.7870783   3.2853013  61.3791928  65.0354852
   2.7406481  62.1551736  65.1675126   4.1632363  61.7262733  64.8773973
  10.0740630  54.7103512  57.4135650  10.1956541  53.7820158  57.6126538
   9.7842672  54.7242198  56.5013966  12.9431820  52.3958423  60.5502370
  12.9653517  52.4597756  59.5954350  13.3599879  51.5562931  60.7442876
  23.3215444  62.1313682  58.5881593  23.7646590  61.3821007  58.1900716
  22.4441955  62.1223819  58.2055325  18.4551226  68.6844024  54.0688191
  19.1502130  69.3050716  54.2875506  18.7974376  67.8339375  54.3440569
   4.0719035  60.5061825  67.9285009   3.3300771  60.6544460  68.5149639
   3.7511779  60.7670090  67.0651758  20.3542649  66.1343729  55.5975522
  20.8793973  66.4731002  54.8724842  20.2665001  65.1990745  55.4138657
  12.0162697  70.0477803  67.7265399  12.3249824  69.8026950  68.5988098
  12.8138180  70.2524441  67.2384269  12.0383310  72.2015712  59.9570775
  11.5988300  71.7092091  60.6503632  12.7891426  71.6588680  59.7162851
   4.5175649  68.3927253  59.9595403   5.3433668  68.0931025  59.5794047
   4.1669701  67.6234876  60.4085192   9.4857182  67.7453722  62.0293077
   8.8637191  67.0824427  61.7295305  10.1562049  67.7714853  61.3466725
   2.7184254  66.3113580  60.9184337   1.8816162  65.8835754  60.7368338
   2.6907899  66.5046023  61.8555128   9.5581709  56.2235510  71.6225583
   9.6069865  57.0997632  71.2403353  10.1004223  55.6812903  71.0497226
  20.0436555  66.7676633  70.9026720  19.2532099  66.7500772  70.3631219
  19.8069909  67.3064927  71.6575757  20.1634430  63.6169099  68.2159449
  20.2132435  63.4519107  69.1574971  20.0548353  62.7496358  67.8257329
   9.0470689  66.2957645  55.5051538   9.1958809  66.9793109  54.8518210
   9.8537132  66.2762735  56.0200993  17.4538192  59.6000027  69.5318755
  18.3548055  59.4606492  69.2402753  17.5286167  59.7654482  70.4716933
  11.7880998  56.9766882  68.3771942  10.9184307  57.2700448  68.1054530
  12.0240478  57.5607327  69.0979205  21.6652627  66.0366041  68.4601470
  21.3737435  66.3996021  69.2964931  21.0524758  65.3233049  68.2814802
  22.8648309  63.6018921  60.9804040  23.6995200  64.0408725  61.1441601
  23.0007438  63.1257574  60.1612286  19.9139815  61.1598655  66.9281528
  20.3893937  61.3526302  66.1200380  18.9905380  61.2157841  66.6824912
   6.8023322  62.3222823  56.5112606   6.5569364  61.4185153  56.7092817
   6.9719236  62.3239973  55.5692084  14.4920031  53.1946499  65.8937362
  15.0101975  53.9307526  65.5683851  14.1375164  53.5010492  66.7284121
   6.0718969  58.0551180  54.0098768   5.3788214  58.1295535  53.3538804
   5.8270721  57.2911524  54.5320285  14.7432626  49.6146781  61.4138259
  15.0234379  48.9469971  62.0398685  15.5283233  49.8075877  60.9012922
  12.5466094  68.7905775  52.9763285  11.9740061  69.4095962  52.5233757
  13.1198888  69.3405137  53.5103207  18.6141484  58.0364415  65.1609834
  19.5658907  58.1362513  65.1822058  18.4444934  57.2442684  65.6707918
  16.6355863  55.1219999  65.3469235  16.0405796  55.4025011  64.6515723
  16.3505560  55.6113900  66.1185976  15.7663354  69.0742925  54.1071867
  16.6994027  69.0088487  54.3104743  15.6786567  69.9099192  53.6486400
  18.3951371  68.3908796  51.0675815  18.3165002  68.0568659  51.9611573
  19.2161037  68.8830564  51.0667287  21.0929562  61.2570535  64.2752133
  21.0605882  60.3186536  64.4611817  21.7030185  61.3354572  63.5417958
  12.9312893  60.1266588  50.3179337  13.8771997  59.9972796  50.3867755
  12.5527138  59.3881250  50.7948766  21.2424050  58.0481579  64.3210417
  20.7263099  57.2640035  64.1340345  22.1263999  57.7200295  64.4856936
  18.9034777  51.7922594  60.2806229  18.7059598  51.4837682  61.1649561
  19.5134483  52.5184233  60.4104159  26.9106112  62.3186542  63.4158170
  27.6409500  62.0571830  63.9765874  26.3013057  61.5815264  63.4560238
  24.9921409  60.4594405  64.0132621  24.2654572  60.3250370  63.4049113
  24.5768696  60.7671233  64.8189339  12.8151585  64.1784334  71.7779994
  13.7354595  64.3562933  71.9720041  12.7801168  63.2340380  71.6259694
  11.1155810  58.0516565  50.2534223  10.2087265  57.7549677  50.3296936
  11.3931791  57.7546383  49.3868509   2.0333750  59.3722928  60.7033269
   1.7136534  58.5188236  60.4107643   1.4867178  59.5871506  61.4591236
   5.8113658  62.0885369  64.4202776   6.0299667  63.0202477  64.4390809
   6.2239432  61.7293343  65.2057579  12.7317875  52.5953454  56.4078464
  11.9218604  52.2500539  56.7833710  13.4202292  52.2860998  56.9966076
  14.6608424  51.6731501  58.0302761  15.2139462  52.0926954  58.6892784
  14.8978510  50.7467249  58.0725717  10.6841523  57.6618575  73.8105525
  10.5838250  58.6112932  73.7417616  10.4663065  57.3336814  72.9381595
   9.8854594  54.9103500  50.3946202  10.7473758  55.2358398  50.6542019
  10.0704939  54.1234996  49.8819268   1.9022010  62.9925839  62.6726391
   1.2085482  62.5779792  62.1596345   2.6495001  63.0346376  62.0759810
  18.0387231  53.7832026  57.5381425  17.4585900  54.4416830  57.1559477
  17.7723164  52.9609371  57.1268842  16.4890797  53.1837084  59.7402745
  16.9890576  53.2953618  58.9317064  17.1326405  52.8798137  60.3803554
  10.5472793  61.0915714  72.6270586  10.0639875  61.8916074  72.8334475
  10.6333732  61.1023658  71.6738030   3.8158753  62.9244093  60.5492406
   3.7929441  63.0231780  59.5974289   4.1259389  63.7709244  60.8709572
   6.4746131  64.9820248  64.6639020   7.4289384  64.9504191  64.5968952
   6.2758654  64.5210872  65.4789246   7.0645513  63.5521364  67.2309818
   7.8838402  64.0465443  67.2544655   7.3382320  62.6353332  67.2027385
  16.8212109  55.9432117  56.5937773  15.9337964  56.2281767  56.3757968
  17.2366098  55.7825880  55.7465050  20.1726645  55.9678638  60.3092112
  20.9487035  56.4575090  60.5816729  19.4474779  56.3936692  60.7663982
  22.6099204  56.6806257  61.3666053  23.2043694  56.4401993  60.6559361
  22.6825787  55.9613387  61.9939589   4.8296359  70.5239868  61.6809218
   4.6950827  69.7640269  61.1147216   4.4128422  71.2480768  61.2138007
  15.9655322  65.7076791  50.6885793  16.6691172  65.9126794  51.3043449
  15.2417971  66.2753553  50.9534877  16.7953133  61.4586652  56.8088063
  16.7388334  61.9155204  55.9695696  17.3481475  60.6977337  56.6310906
  20.6057939  57.2476384  57.6338183  20.3494873  56.8473020  58.4646390
  19.9810807  57.9620178  57.5088322  24.9170276  59.9872458  60.1409474
  24.3569834  60.0565647  60.9141036  24.3113780  59.8113442  59.4208970
   7.9865485  71.4209185  61.8927660   7.8697869  72.3654617  61.7906351
   7.1657931  71.1182746  62.2813460  17.8742020  66.1459320  52.7384253
  18.7087624  65.7140519  52.5561728  17.7126363  65.9741334  53.6661148
  17.5287912  62.6491434  54.1040592  17.4736716  62.4835705  53.1629037
  16.9033967  63.3567467  54.2602782   2.3180427  57.8859498  67.9302015
   2.9639291  57.3758452  68.4189240   2.1097578  58.6228180  68.5045440
  14.8433819  64.9540346  73.4294155  15.7124979  65.1280998  73.0680790
  14.3640571  65.7734762  73.3069885  10.8384037  52.1499543  53.6825911
  10.8262707  53.0941383  53.8394182  11.7307459  51.9669688  53.3885372
   9.0119999  72.0737447  65.1083589   9.9147246  72.1061057  65.4250084
   8.7857369  71.1437898  65.1229925  10.7673601  70.8268433  61.7693668
   9.8169232  70.8270295  61.6558040  11.0706088  70.0801168  61.2529702
  14.6536157  48.7442319  57.9371848  13.8868553  48.1900806  58.0828530
  15.0646862  48.8164188  58.7985999   6.6577918  55.0327115  72.0277029
   7.5209379  54.6763920  72.2380353   6.0843329  54.6941010  72.7152433
  23.3116001  76.6156400  62.7700955  22.9734513  76.4997464  61.8821489
  24.1805769  76.2147565  62.7501961  19.1702817  78.4691876  58.7597846
  18.6067682  78.3781813  57.9914133  19.0555212  77.6491781  59.2400338
  16.7167249  79.9643068  61.5982066  17.5088541  79.6233892  61.1828365
  16.9563899  80.0738043  62.5184219  24.7502376  82.1362844  54.0712310
  24.0990355  82.7216924  53.6846324  25.5446738  82.6669039  54.1307348
  18.6758003  79.2251981  54.4699445  19.4488879  78.6780968  54.3312321
  19.0283402  80.0896230  54.6813906  20.5143045  80.5528363  67.6766344
  20.2232911  81.4573994  67.5613010  21.1500030  80.5944891  68.3910414
  21.4399252  77.9305212  64.2667704  22.0362824  77.7061234  63.5524667
  21.4974224  77.1889957  64.8693152  21.0124281  75.3844647  52.1017895
  21.2649801  74.8626168  51.3401358  20.0748840  75.2210792  52.2044578
  26.0567563  74.3880425  59.9092638  26.8430653  73.9699849  59.5583055
  26.3206268  75.2926518  60.0774286  26.2277641  79.8253276  54.6081295
  25.5923474  79.8987902  55.3202199  25.8975047  80.4146875  53.9300374
  20.7320569  77.2872753  54.3042270  20.6156827  76.6117656  54.9723354
  20.8422829  76.8005127  53.4874423  23.0752110  76.7482900  58.0088959
  22.7110317  76.2213521  58.7201880  23.9319226  76.3581369  57.8355444
  28.9801411  68.0377233  65.2720225  28.6484736  68.9072644  65.0481440
  28.3847024  67.7213517  65.9514255  22.7157597  71.7772800  53.0050307
  22.8832000  72.6453036  53.3720778  22.5254766  71.9400081  52.0811597
  18.9245412  76.6903576  60.7052842  17.9995908  76.5579790  60.9130534
  19.1729825  77.4697795  61.2022785  28.8730074  72.7572319  62.3513575
  27.9646951  72.6887727  62.0572336  28.8217670  73.2344264  63.1795401
  22.6946818  74.2330457  53.9896974  22.5746443  74.6787508  54.8282455
  21.9999406  74.5815775  53.4310512  16.2854223  76.3336849  61.5396631
  16.4146604  76.5871328  62.4536043  15.6051674  76.9264557  61.2201286
  20.4553710  87.0034099  57.6387105  20.3777740  87.9541924  57.7175586
  19.8515354  86.6579972  58.2962032  22.9470940  74.1761964  70.2948472
  22.1704274  74.7355885  70.2851337  23.5861503  74.6618747  70.8163342
  28.3931884  74.7051930  54.8177308  29.3049740  74.9379317  54.6425006
  27.8841531  75.2888975  54.2552387  21.2017312  76.9847418  69.8566439
  21.9431997  77.5232462  69.5801263  20.4954298  77.6113707  70.0137991
  23.0303722  74.0649165  65.8272158  23.8764917  74.4888579  65.9706807
  22.9702360  73.4082789  66.5210721  26.1803167  71.7253533  67.4853331
  25.9364099  72.4795594  66.9487607  26.4563098  72.1038881  68.3200579
  25.7367859  70.8809966  63.0667169  24.8752338  71.1791220  63.3583907
  25.7630294  71.0980365  62.1348202  22.5529428  79.4252157  59.4740975
  23.0167774  79.7039860  58.6845597  22.2886226  78.5235602  59.2914066
  19.4453509  78.9723639  62.4120738  20.0154867  79.4010907  61.7738223
  20.0361621  78.6906223  63.1104924  21.4898314  75.5475309  56.2830540
  22.1922358  75.9996353  56.7504466  21.1578943  74.9059128  56.9110433
  19.9378676  74.1387066  70.6581749  19.3077337  74.8203347  70.8917146
  19.8314764  74.0270148  69.7134888  15.2323648  73.8058862  61.5847674
  14.4422702  74.0616391  61.1087784  15.7234896  74.6207200  61.6899714
  17.1838394  74.1703441  58.5431150  16.3869557  74.2822136  59.0614646
  16.9563986  74.5090094  57.6772041  23.0144061  80.6948145  66.4913665
  23.0788494  81.1568552  67.3271837  22.3054985  80.0645509  66.6195975
  13.5161351  74.0589352  64.0162664  13.7669390  74.9436362  64.2820240
  14.0520900  73.8793954  63.2437756  22.7292079  82.3616252  56.3592645
  22.5937754  83.2067788  56.7877493  23.2701892  82.5635530  55.5958579
  19.2159419  68.4407832  73.0207000  18.8226364  67.8874030  73.6954645
  20.0325559  68.7518410  73.4113518  16.1821476  79.8791690  56.9320570
  16.6945997  80.6734940  57.0826135  16.8344189  79.1817980  56.8654172
  17.9916361  82.9957446  59.0143323  18.1682989  83.9175411  58.8264307
  18.7873195  82.6815866  59.4437703  22.1327380  69.8565711  70.6127257
  22.8737093  70.4572864  70.5331719  22.3645303  69.1143349  70.0545300
  17.2768718  75.0422078  68.8905487  17.1622233  74.1407335  69.1912586
  16.4213235  75.2885775  68.5390303  24.3560555  82.9839819  70.4892987
  23.9124410  82.1976197  70.1713892  25.0177769  83.1718969  69.8236878
  19.1147677  84.5135620  65.0153666  19.6655102  84.3852683  64.2430660
  18.2759153  84.8130509  64.6648559  26.4541794  83.2642618  68.5174389
  26.4360269  84.0851499  68.0254658  27.3761714  83.1396694  68.7424530
  22.9114848  80.7786748  69.3597897  23.4443184  80.0175036  69.1297205
  22.3828929  80.4860400  70.1022051  26.0784543  65.8846814  64.8891539
  25.7348812  66.7748456  64.8130649  26.4463505  65.6948472  64.0261124
  14.1470393  78.2080344  57.7080141  14.9845615  78.6177353  57.4913849
  14.3248661  77.2679786  57.6780335  26.0434825  75.8755425  53.3963974
  25.5281449  76.6460030  53.6352361  25.7712134  75.2020561  54.0197035
  23.6281936  70.7205126  58.4549212  22.7723533  70.3311976  58.2754851
  24.0408888  70.7997087  57.5948998  25.1581083  68.2551469  62.8540772
  24.6545879  68.2181604  62.0408577  25.4511690  69.1644212  62.9137429
  21.4023969  68.3390199  61.8606954  22.2676966  68.1433007  61.5012843
  21.4701478  68.1100551  62.7876310  25.8321129  73.7482517  55.2223755
  25.5271264  74.0628666  56.0733898  26.7851571  73.8263937  55.2651088
  24.2767560  79.9072740  56.8716709  23.7488922  79.1725500  56.5589946
  23.7755063  80.6847417  56.6256677  19.0086288  70.5692407  59.2323320
  19.5830040  70.3467588  58.4996513  19.5957270  70.6381101  59.9851922
  19.3355875  72.5996868  53.2519206  18.4993187  72.9371554  53.5728480
  19.1960645  72.4645847  52.3146343  21.3108956  67.4433656  57.9598390
  20.6573368  67.1282673  57.3355005  21.2689430  66.8209396  58.6858213
  22.4220161  77.7252951  49.8751682  21.5147222  77.4942204  50.0742831
  22.9191193  76.9290570  50.0625664  25.3288239  86.4350458  52.7948368
  24.6549938  86.7382155  53.4033326  25.7154061  87.2379538  52.4453825
  24.5446696  73.9315589  62.2846038  23.6269257  74.1530536  62.1267726
  24.9606840  74.0061900  61.4257745  25.3281744  75.3307005  57.4148718
  26.0753563  75.8428402  57.1055840  25.5973333  75.0091058  58.2753111
  23.6008394  77.8265546  54.3975672  22.6919613  77.5424578  54.4948142
  23.6303478  78.2464624  53.5378979  27.7760581  72.3664121  59.3967507
  27.0383338  71.8541507  59.7277750  28.0287354  71.9264503  58.5850784
  27.2760601  83.2748632  59.1016658  27.5683575  83.8353689  58.3829023
  27.7859221  83.5677193  59.8569817  27.8772208  65.1440373  59.9909276
  28.1831085  64.2837736  59.7035191  28.6024813  65.7357993  59.7908270
  14.1696564  75.5471060  58.3790874  13.9720964  74.9540420  57.6541941
  13.6143228  75.2423270  59.0966813  22.1493288  75.4394166  60.4985467
  22.2041898  74.4868003  60.4227944  21.3384490  75.5953605  60.9826766
  23.2984482  79.3674289  51.7363751  22.8603912  78.6510148  51.2769388
  24.0394923  79.5950404  51.1748842  20.0885648  74.0571226  58.2575846
  19.2753513  74.3565396  58.6641038  20.5844642  73.6626915  58.9750329
  22.2394226  84.0528983  60.1910111  22.1970405  84.2789829  59.2618643
  23.1556925  83.8192357  60.3395912  19.5799723  71.6289581  63.8737081
  20.2199102  71.4878340  63.1760045  18.7477253  71.3424095  63.4975683
  20.3560027  80.9292012  59.9872074  21.1500625  80.4342332  59.7854649
  19.6451719  80.4009875  59.6239779  25.1754871  83.3110107  64.3384441
  25.2291893  83.8801044  65.1062157  24.3069652  83.4811992  63.9738478
  16.6642790  75.0735094  56.0631826  15.7340378  75.0119549  56.2801789
  16.7600262  74.5511046  55.2668468  16.5828339  71.5989906  58.6510068
  16.8435156  72.5135240  58.5419229  17.4045511  71.1314349  58.8006681
  18.0553264  73.0127664  65.8208893  18.7276318  72.8045026  65.1721541
  17.2283051  72.8149750  65.3814125  23.9578836  69.6389604  67.8374553
  23.3106752  70.3379554  67.7439030  24.7279852  70.0725748  68.2050802
  24.1342971  77.4770369  65.8971373  25.0635031  77.6281529  65.7240340
  23.7134001  77.5654390  65.0420020  22.9331303  81.5021034  63.6669911
  22.7942388  81.1339818  64.5395849  22.1445899  82.0168673  63.4953869
  23.5279455  86.6030130  55.0095447  23.7031210  86.1318173  55.8241070
  22.8412243  87.2295896  55.2376708  24.4836518  80.8802636  61.0558749
  24.1486350  80.8403406  61.9516398  23.9840463  80.2147352  60.5829159
  18.4580762  76.2870267  66.5811330  18.3200560  75.5550505  67.1822869
  19.3685685  76.1979167  66.2995517  27.4195709  78.2258671  51.3295808
  26.8024880  77.5005499  51.2328861  26.9512198  78.9868031  50.9862882
  21.0863062  75.9990226  66.0695009  21.7962681  75.3583418  66.0281628
  21.0432371  76.2503121  66.9921190  19.7991996  72.9855444  67.8890649
  19.2629353  72.5346182  68.5412245  19.2108705  73.1201353  67.1461113
  18.0940540  89.7519493  61.7835307  18.3337138  90.3838017  62.4614326
  17.2509736  89.4007533  62.0700667  19.2094255  72.4444095  50.4517113
  18.3323722  72.3232896  50.0879359  19.6852008  71.6530173  50.1996001
  10.7296395  77.2321255  60.5458620  11.4167435  76.9182985  59.9579635
  10.5744524  78.1362620  60.2725871  15.5331118  72.1211451  64.9743643
  15.4489306  71.5137121  64.2394053  14.7113824  72.6120470  64.9753140
  22.6068402  85.5598615  64.1876811  22.5338573  86.3653587  64.6996116
  22.1645795  85.7590581  63.3624833  22.3958181  84.7970386  57.6979633
  21.6125703  85.3392066  57.7917858  23.0950927  85.3144365  58.0973874
  25.7054831  70.6065015  60.3413838  26.2023531  69.8534977  60.0214909
  24.9341813  70.6429332  59.7757048  25.0667085  85.4585450  66.3434970
  25.7795057  86.0932914  66.2710872  24.5757114  85.5549316  65.5274972
  22.2889800  72.7482398  60.0685523  21.9187588  72.1953438  60.7566429
  22.7848893  72.1440531  59.5160523  20.1178999  83.2079893  67.1640541
  20.8188458  83.8416376  67.3169935  19.6474114  83.5494625  66.4036180
  28.2433395  81.5497843  55.4488448  28.5193239  81.4354437  56.3582322
  27.3737893  81.1515328  55.4100621  28.1473826  67.5734608  62.4893197
  27.2336906  67.8038835  62.6575404  28.5766928  67.6573053  63.3407230
  24.8787459  85.7984194  59.0921262  25.0609853  84.9805850  59.5549014
  25.7020445  86.0151886  58.6546152  25.2129624  84.7252379  56.3536310
  25.7417391  84.2144833  55.7406472  25.4757844  84.4094909  57.2181843
  23.9667858  76.5044311  71.4759128  23.2908495  76.4038441  72.1461504
  24.7895492  76.3483525  71.9395126  15.7146717  82.7416248  64.0971644
  16.3000154  81.9959936  64.2299548  15.5171555  83.0520205  64.9808308
  18.5685372  85.7767495  59.1134086  17.8995747  86.2613623  58.6298126
  18.4298242  86.0236716  60.0277465  10.3064372  75.3121848  62.8176087
  10.3448471  74.7785439  63.6113205   9.8004664  74.7857054  62.1987064
  22.7090641  87.8111239  65.7116744  23.2608949  87.9742860  66.4765830
  23.0496834  88.4015677  65.0396769  17.6855134  70.1586389  66.3138629
  17.7496460  71.0201220  65.9016027  17.6222254  69.5460390  65.5810988
  17.1607406  72.2309521  69.9611663  17.7879445  71.8486599  70.5749188
  16.3035325  72.0123723  70.3267356  13.9372949  74.0385950  55.8930018
  14.2326390  73.1296629  55.8397072  13.0360985  74.0173690  55.5711021
  25.8459028  85.7593214  62.6980427  25.7210167  84.9582954  62.1891372
  26.5038119  86.2539408  62.2094397  17.4667196  72.1141947  61.8757567
  16.7453782  72.7277915  61.7365040  18.2560452  72.6499712  61.7974213
  27.9093936  83.5602235  64.3259977  26.9624272  83.4407586  64.2538303
  28.2576709  82.6724733  64.4086238  20.2693510  69.4496373  68.1498219
  20.7927911  69.6958670  68.9124528  20.0505843  70.2816408  67.7301356
  15.6660791  71.7200048  56.0169343  15.3373497  70.8397427  55.8344449
  16.0200161  71.6647717  56.9045733  24.9140370  83.3554951  60.5264329
  24.7665332  82.4271658  60.7071899  25.7393863  83.3775041  60.0421404
  18.7802614  72.0073018  56.3844821  19.1198686  72.5358939  55.6623429
  19.2274734  72.3453424  57.1603388  28.5174491  84.1783509  61.6129202
  29.4421039  83.9726371  61.4753653  28.3489795  83.9299911  62.5218543
  21.4746055  70.3910069  65.8347889  21.1342875  69.5917882  66.2368569
  20.7685061  70.6911779  65.2624722  22.1262527  67.4759381  64.2875212
  22.9488596  67.0019859  64.1654102  22.3700590  68.2549865  64.7873898
  20.7670761  70.5047639  54.5838114  21.4879124  70.8828892  54.0801831
  20.1436065  71.2236516  54.6873092  24.9101884  71.2092788  55.5196446
  25.1265498  72.0917426  55.2185274  24.4295951  70.8179002  54.7902088
  19.6501105  74.1678502  62.0967191  19.5045686  74.4818805  62.9891472
  19.1726309  74.7863402  61.5438089  21.5097488  71.1581050  62.1448080
  21.4959057  70.2622143  61.8080378  22.2269916  71.1651713  62.7786366
  23.3623619  71.5918390  64.1901208  23.1041397  72.5135460  64.1885538
  22.8308659  71.1948824  64.8801672  28.3069808  84.6969177  56.9691293
  28.4806685  84.1315599  56.2165146  28.7998699  85.4970072  56.7870783
  14.1246767  76.7083846  65.0354852  13.5800236  77.4843654  65.1675126
  15.0026117  77.0554651  64.8773973  20.9134384  70.0395430  57.4135650
  21.0350295  69.1112076  57.6126538  20.6236426  70.0534116  56.5013966
  23.7825575  67.7250340  60.5502370  23.8047271  67.7889673  59.5954350
  24.1993634  66.8854849  60.7442876  29.2944980  84.0135941  54.0688191
  29.9895885  84.6342634  54.2875506  29.6368130  83.1631293  54.3440569
  14.9112789  75.8353742  67.9285009  14.1694525  75.9836378  68.5149639
  14.5905534  76.0962008  67.0651758  31.1936403  81.4635647  55.5975522
  31.7187727  81.8022920  54.8724842  31.1058756  80.5282662  55.4138657
  22.8556452  85.3769721  67.7265399  23.1643578  85.1318867  68.5988098
  23.6531934  85.5816359  67.2384269  22.8777064  87.5307630  59.9570775
  22.4382054  87.0384009  60.6503632  23.6285181  86.9880598  59.7162851
  15.3569403  83.7219171  59.9595403  16.1827423  83.4222943  59.5794047
  15.0063455  82.9526793  60.4085192  20.3250936  83.0745639  62.0293077
  19.7030945  82.4116344  61.7295305  20.9955803  83.1006771  61.3466725
  13.5578008  81.6405497  60.9184337  12.7209916  81.2127672  60.7368338
  13.5301653  81.8337941  61.8555128  20.3975464  71.5527427  71.6225583
  20.4463619  72.4289550  71.2403353  20.9397978  71.0104820  71.0497226
  19.8864443  81.6249563  55.5051538  20.0352563  82.3085027  54.8518210
  20.6930887  81.6054653  56.0200993  22.6274752  72.3058800  68.3771942
  21.7578062  72.5992366  68.1054530  22.8634232  72.8899245  69.0979205
  17.6417076  77.6514740  56.5112606  17.3963118  76.7477070  56.7092817
  17.8112991  77.6531891  55.5692084  25.3313786  68.5238417  65.8937362
  25.8495730  69.2599444  65.5683851  24.9768919  68.8302410  66.7284121
  16.9112724  73.3843098  54.0098768  16.2181969  73.4587453  53.3538804
  16.6664475  72.6203441  54.5320285  25.5826380  64.9438699  61.4138259
  25.8628134  64.2761888  62.0398685  26.3676987  65.1367795  60.9012922
  23.3859849  84.1197693  52.9763285  22.8133816  84.7387880  52.5233757
  23.9592642  84.6697055  53.5103207  27.4749618  70.4511916  65.3469235
  26.8799550  70.7316929  64.6515723  27.1899315  70.9405817  66.1185976
  26.6057108  84.4034843  54.1071867  27.5387782  84.3380405  54.3104743
  26.5180321  85.2391110  53.6486400  29.2345125  83.7200714  51.0675815
  29.1558757  83.3860577  51.9611573  30.0554792  84.2122481  51.0667287
  23.7706647  75.4558506  50.3179337  24.7165752  75.3264714  50.3867755
  23.3920892  74.7173168  50.7948766  29.7428532  67.1214512  60.2806229
  29.5453353  66.8129600  61.1649561  30.3528237  67.8476151  60.4104159
  23.6545340  79.5076252  71.7779994  24.5748349  79.6854851  71.9720041
  23.6194923  78.5632297  71.6259694  21.9549564  73.3808482  50.2534223
  21.0481020  73.0841595  50.3296936  22.2325545  73.0838300  49.3868509
  12.8727505  74.7014846  60.7033269  12.5530289  73.8480154  60.4107643
  12.3260933  74.9163424  61.4591236  16.6507412  77.4177287  64.4202776
  16.8693422  78.3494394  64.4390809  17.0633186  77.0585261  65.2057579
  23.5711630  67.9245372  56.4078464  22.7612358  67.5792457  56.7833710
  24.2596047  67.6152916  56.9966076  25.5002178  67.0023419  58.0302761
  26.0533217  67.4218872  58.6892784  25.7372265  66.0759167  58.0725717
  21.5235278  72.9910492  73.8105525  21.4232004  73.9404849  73.7417616
  21.3056820  72.6628731  72.9381595  20.7248349  70.2395417  50.3946202
  21.5867513  70.5650316  50.6542019  20.9098693  69.4526913  49.8819268
  12.7415765  78.3217757  62.6726391  12.0479236  77.9071710  62.1596345
  13.4888756  78.3638294  62.0759810  28.8780985  69.1123944  57.5381425
  28.2979654  69.7708748  57.1559477  28.6116918  68.2901288  57.1268842
  27.3284552  68.5129002  59.7402745  27.8284330  68.6245536  58.9317064
  27.9720160  68.2090054  60.3803554  21.3866548  76.4207631  72.6270586
  20.9033629  77.2207991  72.8334475  21.4727487  76.4315576  71.6738030
  14.6552507  78.2536011  60.5492406  14.6323195  78.3523698  59.5974289
  14.9653144  79.1001162  60.8709572  17.3139885  80.3112166  64.6639020
  18.2683139  80.2796108  64.5968952  17.1152409  79.8502790  65.4789246
  17.9039267  78.8813282  67.2309818  18.7232156  79.3757361  67.2544655
  18.1776075  77.9645250  67.2027385  27.6605863  71.2724034  56.5937773
  26.7731718  71.5573685  56.3757968  28.0759852  71.1117798  55.7465050
  31.0120400  71.2970555  60.3092112  31.7880790  71.7867008  60.5816729
  30.2868534  71.7228609  60.7663982  15.6690114  85.8531785  61.6809218
  15.5344582  85.0932186  61.1147216  15.2522176  86.5772685  61.2138007
  26.8049077  81.0368709  50.6885793  27.5084927  81.2418711  51.3043449
  26.0811726  81.6045471  50.9534877  18.8259240  86.7501102  61.8927660
  18.7091624  87.6946535  61.7906351  18.0051686  86.4474664  62.2813460
  28.7135774  81.4751238  52.7384253  29.5481378  81.0432437  52.5561728
  28.5520117  81.3033252  53.6661148  28.3681666  77.9783351  54.1040592
  28.3130470  77.8127623  53.1629037  27.7427722  78.6859384  54.2602782
  13.1574181  73.2151416  67.9302015  13.8033045  72.7050370  68.4189240
  12.9491333  73.9520097  68.5045440  25.6827574  80.2832263  73.4294155
  26.5518733  80.4572916  73.0680790  25.2034325  81.1026680  73.3069885
  21.6777792  67.4791460  53.6825911  21.6656462  68.4233300  53.8394182
  22.5701214  67.2961606  53.3885372  19.8513754  87.4029364  65.1083589
  20.7541001  87.4352975  65.4250084  19.6251124  86.4729815  65.1229925
  21.6067356  86.1560351  61.7693668  20.6562987  86.1562212  61.6558040
  21.9099842  85.4093085  61.2529702  25.4929911  64.0734237  57.9371848
  24.7262307  63.5192724  58.0828530  25.9040616  64.1456106  58.7985999
  17.4971672  70.3619033  72.0277029  18.3603134  70.0055838  72.2380353
  16.9237083  70.0232928  72.7152433  37.3420049  91.9920889  62.8339430
  37.9798459  91.8727637  62.1302770  37.2240892  92.9401733  62.8927382
  34.1509756  91.9448317  62.7700955  33.8128267  91.8289382  61.8821489
  35.0199524  91.5439482  62.7501961  30.0096571  93.7983794  58.7597846
  29.4461436  93.7073731  57.9914133  29.8948966  92.9783698  59.2400338
  34.6329539  93.0983169  68.7287160  34.6218179  92.7035967  67.8567664
  34.7950178  92.3649242  69.3220932  27.5561003  95.2934985  61.5982066
  28.3482295  94.9525810  61.1828365  27.7957653  95.4029960  62.5184219
  35.5896130  97.4654761  54.0712310  34.9384110  98.0508842  53.6846324
  36.3840493  97.9960956  54.1307348  29.5151757  94.5543899  54.4699445
  30.2882633  94.0072886  54.3312321  29.8677156  95.4188148  54.6813906
  31.3536800  95.8820281  67.6766344  31.0626666  96.7865912  67.5613010
  31.9893784  95.9236808  68.3910414  32.2793007  93.2597129  64.2667704
  32.8756579  93.0353152  63.5524667  32.3367978  92.5181875  64.8693152
  31.8518035  90.7136565  52.1017895  32.1043556  90.1918086  51.3401358
  30.9142594  90.5502710  52.2044578  36.8961318  89.7172343  59.9092638
  37.6824407  89.2991766  59.5583055  37.1600022  90.6218435  60.0774286
  37.0671395  95.1545193  54.6081295  36.4317228  95.2279820  55.3202199
  36.7368802  95.7438792  53.9300374  42.2969745  89.6547576  60.8125616
  43.0294917  89.0846793  61.0463446  41.5409101  89.2669177  61.2532122
  31.5714324  92.6164671  54.3042270  31.4550582  91.9409574  54.9723354
  31.6816584  92.1297045  53.4874423  33.9145865  92.0774818  58.0088959
  33.5504072  91.5505439  58.7201880  34.7712981  91.6873287  57.8355444
  33.5551352  87.1064717  53.0050307  33.7225754  87.9744954  53.3720778
  33.3648521  87.2691999  52.0811597  36.3126685  95.5681696  64.6716138
  36.0127408  96.4706735  64.5631945  35.9677744  95.3013880  65.5237291
  29.7639166  92.0195493  60.7052842  28.8389663  91.8871707  60.9130534
  30.0123580  92.7989712  61.2022785  39.7123829  88.0864237  62.3513575
  38.8040706  88.0179645  62.0572336  39.6611424  88.5636181  63.1795401
  33.5340573  89.5622375  53.9896974  33.4140198  90.0079426  54.8282455
  32.8393161  89.9107693  53.4310512  27.1247977  91.6628767  61.5396631
  27.2540359  91.9163246  62.4536043  26.4445429  92.2556475  61.2201286
  31.2947465 102.3326017  57.6387105  31.2171494 103.2833842  57.7175586
  30.6909108 101.9871889  58.2962032  33.7864694  89.5053882  70.2948472
  33.0098028  90.0647802  70.2851337  34.4255257  89.9910665  70.8163342
  41.5785475  86.2880675  64.1291449  40.9359855  86.5813208  63.4831244
  41.0740404  86.1733595  64.9344646  39.2325639  90.0343848  54.8177308
  40.1443495  90.2671235  54.6425006  38.7235286  90.6180892  54.2552387
  32.0411067  92.3139336  69.8566439  32.7825751  92.8524379  69.5801263
  31.3348052  92.9405624  70.0137991  37.5166406  94.4568476  68.4538601
  37.9249762  94.0150886  67.7093233  36.7943668  93.8821103  68.7072794
  33.8697476  89.3941083  65.8272158  34.7158672  89.8180496  65.9706807
  33.8096114  88.7374707  66.5210721  37.8395221  95.0169667  62.2090890
  37.2104083  95.1815381  61.5066958  37.4520883  95.4311276  62.9801854
  41.7184453  95.9524104  59.5635254  41.0335491  96.3323006  59.0132287
  41.8028302  96.5619431  60.2967201  37.0196922  87.0545451  67.4853331
  36.7757854  87.8087512  66.9487607  37.2956852  87.4330799  68.3200579
  38.9735385  93.5984063  66.1630597  39.1852280  94.2415823  65.4864978
  38.9265133  92.7646380  65.6952527  36.5761613  86.2101884  63.0667169
  35.7146092  86.5083138  63.3583907  36.6024048  86.4272283  62.1348202
  33.3923183  94.7544075  59.4740975  33.8561528  95.0331778  58.6845597
  33.1279981  93.8527519  59.2914066  30.2847264  94.3015556  62.4120738
  30.8548621  94.7302825  61.7738223  30.8755376  94.0198141  63.1104924
  32.3292069  90.8767227  56.2830540  33.0316112  91.3288271  56.7504466
  31.9972697  90.2351046  56.9110433  30.7772430  89.4678984  70.6581749
  30.1471091  90.1495265  70.8917146  30.6708518  89.3562065  69.7134888
  26.0717403  89.1350780  61.5847674  25.2816457  89.3908308  61.1087784
  26.5628650  89.9499118  61.6899714  40.0881212  96.4756019  64.3352954
  40.9098656  96.0736206  64.0535636  40.0843615  96.3724253  65.2869070
  28.0232148  89.4995359  58.5431150  27.2263312  89.6114053  59.0614646
  27.7957740  89.8382011  57.6772041  33.8537816  96.0240062  66.4913665
  33.9182248  96.4860469  67.3271837  33.1448740  95.3937427  66.6195975
  24.3555106  89.3881270  64.0162664  24.6063144  90.2728280  64.2820240
  24.8914654  89.2085872  63.2437756  48.1787206  92.8194767  60.6837926
  47.4250914  92.2502165  60.5281930  48.3134747  92.7857432  61.6308561
  33.5685834  97.6908170  56.3592645  33.4331508  98.5359705  56.7877493
  34.1095646  97.8927447  55.5958579  27.0215231  95.2083608  56.9320570
  27.5339752  96.0026858  57.0826135  27.6737944  94.5109898  56.8654172
  28.8310116  98.3249364  59.0143323  29.0076744  99.2467329  58.8264307
  29.6266949  98.0107783  59.4437703  32.9721134  85.1857629  70.6127257
  33.7130848  85.7864782  70.5331719  33.2039057  84.4435266  70.0545300
  28.1162472  90.3713996  68.8905487  28.0015987  89.4699253  69.1912586
  27.2606990  90.6177693  68.5390303  35.1954310  98.3131736  70.4892987
  34.7518164  97.5268115  70.1713892  35.8571524  98.5010887  69.8236878
  29.9541431  99.8427538  65.0153666  30.5048856  99.7144601  64.2430660
  29.1152907 100.1422427  64.6648559  37.2935548  98.5934536  68.5174389
  37.2754023  99.4143417  68.0254658  38.2155468  98.4688611  68.7424530
  33.7508602  96.1078666  69.3597897  34.2836939  95.3466954  69.1297205
  33.2222683  95.8152317  70.1022051  24.9864148  93.5372262  57.7080141
  25.8239370  93.9469270  57.4913849  25.1642415  92.5971704  57.6780335
  36.8828580  91.2047343  53.3963974  36.3675203  91.9751947  53.6352361
  36.6105888  90.5312479  54.0197035  34.4675691  86.0497043  58.4549212
  33.6117287  85.6603894  58.2754851  34.8802643  86.1289004  57.5948998
  32.2417723  83.6682116  61.8606954  33.1070720  83.4724925  61.5012843
  32.3095232  83.4392468  62.7876310  41.8562854  93.9579697  55.3317147
  41.0792297  93.6190857  54.8872309  42.5354335  93.9632320  54.6572112
  36.6714883  89.0774435  55.2223755  36.3665019  89.3920584  56.0733898
  37.6245325  89.1555855  55.2651088  35.1161315  95.2364658  56.8716709
  34.5882676  94.5017418  56.5589946  34.6148818  96.0139334  56.6256677
  40.0954161  93.4313679  61.9883755  39.4377835  94.1212940  62.0763884
  40.8994560  93.8210110  62.3317742  29.8480042  85.8984324  59.2323320
  30.4223794  85.6759506  58.4996513  30.4351025  85.9673019  59.9851922
  38.9059620  91.7858051  60.0387697  39.4191501  92.4188043  60.5409407
  39.5560844  91.1859247  59.6731057  30.1749630  87.9288785  53.2519206
  29.3386942  88.2663472  53.5728480  30.0354399  87.7937765  52.3146343
  32.1502710  82.7725573  57.9598390  31.4967123  82.4574590  57.3355005
  32.1083184  82.1501314  58.6858213  33.2613915  93.0544868  49.8751682
  32.3540977  92.8234122  50.0742831  33.7584947  92.2582488  50.0625664
  36.1681994 101.7642376  52.7948368  35.4943693 102.0674072  53.4033326
  36.5547816 102.5671456  52.4453825  35.3840451  89.2607507  62.2846038
  34.4663012  89.4822454  62.1267726  35.8000594  89.3353817  61.4257745
  36.1675498  90.6598922  57.4148718  36.9147317  91.1720320  57.1055840
  36.4367088  90.3382975  58.2753111  34.4402148  93.1557463  54.3975672
  33.5313368  92.8716496  54.4948142  34.4697232  93.5756542  53.5378979
  39.6721416  96.7664053  58.1666840  39.2183743  95.9254963  58.2232030
  39.0415383  97.4025451  58.5041620  38.6154335  87.6956039  59.3967507
  37.8777092  87.1833425  59.7277750  38.8681109  87.2556420  58.5850784
  38.1154355  98.6040549  59.1016658  38.4077330  99.1645606  58.3829023
  38.6252976  98.8969110  59.8569817  38.7165963  80.4732291  59.9909276
  39.0224840  79.6129654  59.7035191  39.4418568  81.0649911  59.7908270
  25.0090319  90.8762977  58.3790874  24.8114719  90.2832338  57.6541941
  24.4536983  90.5715188  59.0966813  32.9887043  90.7686084  60.4985467
  33.0435652  89.8159920  60.4227944  32.1778245  90.9245523  60.9826766
  34.1378236  94.6966207  51.7363751  33.6997666  93.9802066  51.2769388
  34.8788677  94.9242322  51.1748842  30.9279402  89.3863144  58.2575846
  30.1147268  89.6857314  58.6641038  31.4238397  88.9918832  58.9750329
  33.0787980  99.3820900  60.1910111  33.0364159  99.6081747  59.2618643
  33.9950679  99.1484275  60.3395912  36.5253614  89.8504968  67.0890740
  36.8803002  90.0776441  67.9485206  37.1725745  90.1823345  66.4667995
  42.2551351  92.9723404  57.7940069  42.1169250  93.1625000  56.8661258
  41.8987570  93.7342787  58.2508120  30.4193477  86.9581499  63.8737081
  31.0592857  86.8170258  63.1760045  29.5871008  86.6716012  63.4975683
  42.2820731  95.0399931  62.8051341  42.7157237  94.9475220  63.6534395
  42.9952311  95.0157431  62.1671357  31.1953781  96.2583929  59.9872074
  31.9894380  95.7634250  59.7854649  30.4845473  95.7301793  59.6239779
  36.0148626  98.6402025  64.3384441  36.0685648  99.2092961  65.1062157
  35.1463407  98.8103910  63.9738478  27.5036545  90.4027011  56.0631826
  26.5734133  90.3411467  56.2801789  27.5994017  89.8802964  55.2668468
  27.4222094  86.9281824  58.6510068  27.6828911  87.8427157  58.5419229
  28.2439266  86.4606267  58.8006681  28.8947019  88.3419581  65.8208893
  29.5670072  88.1336943  65.1721541  28.0676805  88.1441667  65.3814125
  43.1436280  95.0823632  65.3384226  43.3372170  95.9869442  65.5843501
  43.0436898  94.6231051  66.1722811  34.7972591  84.9681522  67.8374553
  34.1500506  85.6671472  67.7439030  35.5673606  85.4017666  68.2050802
  38.2051389  95.2330374  70.9125107  38.0536895  95.0040926  69.9955190
  38.1956068  96.1900976  70.9256452  34.9736725  92.8062287  65.8971373
  35.9028785  92.9573447  65.7240340  34.5527755  92.8946308  65.0420020
  33.7725057  96.8312951  63.6669911  33.6336143  96.4631736  64.5395849
  32.9839653  97.3460591  63.4953869  34.3673209 101.9322048  55.0095447
  34.5424965 101.4610091  55.8241070  33.6805997 102.5587814  55.2376708
  35.3230272  96.2094554  61.0558749  34.9880105  96.1695324  61.9516398
  34.8234218  95.5439270  60.5829159  29.2974516  91.6162184  66.5811330
  29.1594314  90.8842423  67.1822869  30.2079440  91.5271084  66.2995517
  38.2589464  93.5550589  51.3295808  37.6418635  92.8297417  51.2328861
  37.7905952  94.3159949  50.9862882  31.9256817  91.3282144  66.0695009
  32.6356435  90.6875336  66.0281628  31.8826125  91.5795038  66.9921190
  39.9143596  98.2649497  68.9901589  39.8556142  97.5808717  68.3232172
  40.3163114  99.0068487  68.5382215  30.6385751  88.3147361  67.8890649
  30.1023108  87.8638100  68.5412245  30.0502459  88.4493270  67.1461113
  28.9334294 105.0811411  61.7835307  29.1730893 105.7129935  62.4614326
  28.0903491 104.7299451  62.0700667  30.0488010  87.7736013  50.4517113
  29.1717476  87.6524814  50.0879359  30.5245763  86.9822091  50.1996001
  39.9161003  96.2289081  67.2215568  39.0287782  95.8915003  67.3441967
  40.4859554  95.4972112  67.4584334  21.5690150  92.5613173  60.5458620
  22.2561190  92.2474903  59.9579635  21.4138279  93.4654537  60.2725871
  26.3724872  87.4503369  64.9743643  26.2883061  86.8429039  64.2394053
  25.5507578  87.9412387  64.9753140  33.4462156 100.8890533  64.1876811
  33.3732328 101.6945505  64.6996116  33.0039549 101.0882499  63.3624833
  33.2351936 100.1262303  57.6979633  32.4519458 100.6683983  57.7917858
  33.9344681 100.6436283  58.0973874  36.5448586  85.9356933  60.3413838
  37.0417285  85.1826895  60.0214909  35.7735567  85.9721249  59.7757048
  44.3978343  91.6397298  61.9832130  44.3868220  92.5222014  61.6126063
  43.5295723  91.2868849  61.7886667  35.9060840 100.7877367  66.3434970
  36.6188812 101.4224832  66.2710872  35.4150868 100.8841233  65.5274972
  37.6278367  94.6928620  57.9152262  36.6934645  94.8130082  57.7456966
  37.8055035  93.7901087  57.6512272  33.1283555  88.0774316  60.0685523
  32.7581342  87.5245356  60.7566429  33.6242647  87.4732449  59.5160523
  41.0150918  90.5345939  58.4502296  41.4811370  91.3673931  58.3762599
  41.4658418  90.0690921  59.1547554  30.9572753  98.5371811  67.1640541
  31.6582213  99.1708294  67.3169935  30.4867868  98.8786542  66.4036180
  39.0827149  96.8789760  55.4488448  39.3586993  96.7646355  56.3582322
  38.2131648  96.4807245  55.4100621  38.7574039  91.0916418  64.9893091
  38.1045489  91.3392326  64.3345544  39.1354419  90.2780556  64.6555569
  35.7181213 101.1276111  59.0921262  35.9003608 100.3097767  59.5549014
  36.5414199 101.3443804  58.6546152  36.0523379 100.0544296  56.3536310
  36.5811145  99.5436751  55.7406472  36.3151598  99.7386827  57.2181843
  34.8061612  91.8336229  71.4759128  34.1302249  91.7330358  72.1461504
  35.6289246  91.6775443  71.9395126  26.5540471  98.0708166  64.0971644
  27.1393908  97.3251854  64.2299548  26.3565310  98.3812122  64.9808308
  29.4079127 101.1059413  59.1134086  28.7389502 101.5905541  58.6298126
  29.2691996 101.3528634  60.0277465  21.1458126  90.6413766  62.8176087
  21.1842226  90.1077357  63.6113205  20.6398419  90.1148971  62.1987064
  33.5484395 103.1403157  65.7116744  34.1002703 103.3034778  66.4765830
  33.8890589 103.7307594  65.0396769  28.5248888  85.4878306  66.3138629
  28.5890215  86.3493137  65.9016027  28.4616009  84.8752308  65.5810988
  28.0001161  87.5601439  69.9611663  28.6273200  87.1778516  70.5749188
  27.1429080  87.3415641  70.3267356  38.3995269  97.9664414  71.5665399
  38.9435173  98.5794372  71.0720354  37.8182114  98.5243993  72.0832412
  24.7766704  89.3677868  55.8930018  25.0720145  88.4588546  55.8397072
  23.8754739  89.3465608  55.5711021  36.6852782 101.0885132  62.6980427
  36.5603922 100.2874872  62.1891372  37.3431874 101.5831326  62.2094397
  28.3060951  87.4433865  61.8757567  27.5847536  88.0569832  61.7365040
  29.0954206  87.9791629  61.7974213  38.7487691  98.8894152  64.3259977
  37.8018026  98.7699503  64.2538303  39.0970464  98.0016650  64.4086238
  31.1087264  84.7788291  68.1498219  31.6321666  85.0250588  68.9124528
  30.8899597  85.6108326  67.7301356  26.5054545  87.0491966  56.0169343
  26.1767251  86.1689345  55.8344449  26.8593916  86.9939634  56.9045733
  35.7534124  98.6846868  60.5264329  35.6059087  97.7563576  60.7071899
  36.5787618  98.7066959  60.0421404  29.6196368  87.3364936  56.3844821
  29.9592441  87.8650857  55.6623429  30.0668489  87.6745342  57.1603388
  39.3568246  99.5075427  61.6129202  40.2814793  99.3018289  61.4753653
  39.1883549  99.2591828  62.5218543  32.3139809  85.7201986  65.8347889
  31.9736630  84.9209799  66.2368569  31.6078815  86.0203697  65.2624722
  31.6064516  85.8339557  54.5838114  32.3272878  86.2120810  54.0801831
  30.9829820  86.5528434  54.6873092  35.7495638  86.5384706  55.5196446
  35.9659253  87.4209344  55.2185274  35.2689706  86.1470919  54.7902088
  30.4894860  89.4970419  62.0967191  30.3439441  89.8110722  62.9891472
  30.0120063  90.1155320  61.5438089  32.3491243  86.4872967  62.1448080
  32.3352811  85.5914061  61.8080378  33.0663671  86.4943631  62.7786366
  34.2017373  86.9210308  64.1901208  33.9435151  87.8427378  64.1885538
  33.6702414  86.5240742  64.8801672  39.1463562 100.0261095  56.9691293
  39.3200440  99.4607517  56.2165146  39.6392453 100.8261990  56.7870783
  24.9640522  92.0375764  65.0354852  24.4193990  92.8135572  65.1675126
  25.8419872  92.3846568  64.8773973  31.7528139  85.3687348  57.4135650
  31.8744050  84.4403994  57.6126538  31.4630181  85.3826034  56.5013966
  45.0002953  92.7897518  58.5881593  45.4434099  92.0404843  58.1900716
  44.1229464  92.7807654  58.2055325  40.1338735  99.3427859  54.0688191
  40.8289639  99.9634552  54.2875506  40.4761885  98.4923210  54.3440569
  25.7506544  91.1645660  67.9285009  25.0088280  91.3128295  68.5149639
  25.4299288  91.4253926  67.0651758  42.0330158  96.7927565  55.5975522
  42.5581482  97.1314837  54.8724842  41.9452510  95.8574580  55.4138657
  33.6950206 100.7061638  67.7265399  34.0037333 100.4610785  68.5988098
  34.4925688 100.9108277  67.2384269  33.7170819 102.8599548  59.9570775
  33.2775809 102.3675927  60.6503632  34.4678935 102.3172516  59.7162851
  26.1963157  99.0511089  59.9595403  27.0221177  98.7514861  59.5794047
  25.8457209  98.2818711  60.4085192  31.1644691  98.4037557  62.0293077
  30.5424700  97.7408262  61.7295305  31.8349558  98.4298689  61.3466725
  24.3971763  96.9697415  60.9184337  23.5603671  96.5419590  60.7368338
  24.3695408  97.1629858  61.8555128  31.2369218  86.8819345  71.6225583
  31.2857374  87.7581468  71.2403353  31.7791732  86.3396738  71.0497226
  41.7224064  97.4260468  70.9026720  40.9319608  97.4084607  70.3631219
  41.4857418  97.9648762  71.6575757  41.8421939  94.2752935  68.2159449
  41.8919944  94.1102942  69.1574971  41.7335862  93.4080194  67.8257329
  30.7258198  96.9541480  55.5051538  30.8746318  97.6376945  54.8518210
  31.5324641  96.9346570  56.0200993  39.1325701  90.2583863  69.5318755
  40.0335564  90.1190327  69.2402753  39.2073676  90.4238317  70.4716933
  33.4668507  87.6350717  68.3771942  32.5971816  87.9284283  68.1054530
  33.7027987  88.2191162  69.0979205  43.3440136  96.6949876  68.4601470
  43.0524944  97.0579857  69.2964931  42.7312267  95.9816884  68.2814802
  44.5435818  94.2602756  60.9804040  45.3782709  94.6992560  61.1441601
  44.6794947  93.7841409  60.1612286  41.5927324  91.8182491  66.9281528
  42.0681446  92.0110137  66.1200380  40.6692889  91.8741677  66.6824912
  28.4810831  92.9806658  56.5112606  28.2356872  92.0768988  56.7092817
  28.6506745  92.9823808  55.5692084  27.7506478  88.7135015  54.0098768
  27.0575723  88.7879370  53.3538804  27.5058230  87.9495359  54.5320285
  34.2253603  99.4489611  52.9763285  33.6527570 100.0679798  52.5233757
  34.7986397  99.9988972  53.5103207  40.2928993  88.6948251  65.1609834
  41.2446416  88.7946348  65.1822058  40.1232443  87.9026519  65.6707918
  38.3143372  85.7803834  65.3469235  37.7193305  86.0608847  64.6515723
  38.0293069  86.2697735  66.1185976  37.4450863  99.7326761  54.1071867
  38.3781536  99.6672323  54.3104743  37.3574076 100.5683028  53.6486400
  40.0738880  99.0492631  51.0675815  39.9952511  98.7152495  51.9611573
  40.8948546  99.5414399  51.0667287  42.7717071  91.9154370  64.2752133
  42.7393391  90.9770371  64.4611817  43.3817694  91.9938407  63.5417958
  34.6100402  90.7850423  50.3179337  35.5559506  90.6556632  50.3867755
  34.2314647  90.0465085  50.7948766  42.9211559  88.7065414  64.3210417
  42.4050608  87.9223871  64.1340345  43.8051508  88.3784131  64.4856936
  40.5822286  82.4506429  60.2806229  40.3847107  82.1421518  61.1649561
  41.1921992  83.1768068  60.4104159  48.5893621  92.9770377  63.4158170
  49.3197009  92.7155665  63.9765874  47.9800566  92.2399099  63.4560238
  46.6708918  91.1178240  64.0132621  45.9442081  90.9834205  63.4049113
  46.2556205  91.4255069  64.8189339  34.4939094  94.8368170  71.7779994
  35.4142104  95.0146769  71.9720041  34.4588677  93.8924215  71.6259694
  32.7943319  88.7100400  50.2534223  31.8874774  88.4133513  50.3296936
  33.0719300  88.4130218  49.3868509  23.7121259  90.0306763  60.7033269
  23.3924043  89.1772071  60.4107643  23.1654687  90.2455341  61.4591236
  27.4901167  92.7469204  64.4202776  27.7087176  93.6786312  64.4390809
  27.9026940  92.3877179  65.2057579  34.4105384  83.2537290  56.4078464
  33.6006113  82.9084375  56.7833710  35.0989801  82.9444833  56.9966076
  36.3395933  82.3315336  58.0302761  36.8926971  82.7510790  58.6892784
  36.5766019  81.4051084  58.0725717  32.3629032  88.3202410  73.8105525
  32.2625759  89.2696767  73.7417616  32.1450574  87.9920649  72.9381595
  31.5642103  85.5687335  50.3946202  32.4261267  85.8942233  50.6542019
  31.7492448  84.7818831  49.8819268  23.5809519  93.6509675  62.6726391
  22.8872991  93.2363628  62.1596345  24.3282510  93.6930211  62.0759810
  39.7174740  84.4415862  57.5381425  39.1373409  85.1000666  57.1559477
  39.4510673  83.6193206  57.1268842  38.1678306  83.8420919  59.7402745
  38.6678085  83.9537454  58.9317064  38.8113914  83.5381972  60.3803554
  32.2260302  91.7499549  72.6270586  31.7427384  92.5499909  72.8334475
  32.3121241  91.7607494  71.6738030  25.4946262  93.5827929  60.5492406
  25.4716950  93.6815616  59.5974289  25.8046898  94.4293079  60.8709572
  28.1533640  95.6404084  64.6639020  29.1076893  95.6088026  64.5968952
  27.9546163  95.1794707  65.4789246  28.7433022  94.2105200  67.2309818
  29.5625911  94.7049278  67.2544655  29.0169829  93.2937168  67.2027385
  38.4999618  86.6015952  56.5937773  37.6125473  86.8865603  56.3757968
  38.9153607  86.4409715  55.7465050  41.8514154  86.6262473  60.3092112
  42.6274544  87.1158925  60.5816729  41.1262288  87.0520527  60.7663982
  44.2886713  87.3390092  61.3666053  44.8831203  87.0985828  60.6559361
  44.3613296  86.6197223  61.9939589  26.5083868 101.1823703  61.6809218
  26.3738336 100.4224104  61.1147216  26.0915931 101.9064603  61.2138007
  37.6442831  96.3660627  50.6885793  38.3478681  96.5710629  51.3043449
  36.9205480  96.9337388  50.9534877  38.4740642  92.1170488  56.8088063
  38.4175843  92.5739039  55.9695696  39.0268984  91.3561172  56.6310906
  42.2845448  87.9060220  57.6338183  42.0282382  87.5056855  58.4646390
  41.6598316  88.6204014  57.5088322  46.5957785  90.6456293  60.1409474
  46.0357343  90.7149482  60.9141036  45.9901289  90.4697278  59.4208970
  29.6652994 102.0793020  61.8927660  29.5485378 103.0238453  61.7906351
  28.8445440 101.7766582  62.2813460  39.5529529  96.8043156  52.7384253
  40.3875133  96.3724354  52.5561728  39.3913872  96.6325169  53.6661148
  39.2075421  93.3075269  54.1040592  39.1524225  93.1419541  53.1629037
  38.5821476  94.0151302  54.2602782  23.9967936  88.5443333  67.9302015
  24.6426800  88.0342287  68.4189240  23.7885087  89.2812015  68.5045440
  36.5221328  95.6124181  73.4294155  37.3912488  95.7864833  73.0680790
  36.0428080  96.4318598  73.3069885  32.5171546  82.8083378  53.6825911
  32.5050216  83.7525218  53.8394182  33.4094968  82.6253524  53.3885372
  30.6907508 102.7321282  65.1083589  31.5934755 102.7644892  65.4250084
  30.4644878 101.8021733  65.1229925  32.4461110 101.4852269  61.7693668
  31.4956741 101.4854130  61.6558040  32.7493596 100.7385003  61.2529702
  28.3365427  85.6910951  72.0277029  29.1996888  85.3347755  72.2380353
  27.7630838  85.3524845  72.7152433  48.1813804 107.3212807  62.8339430
  48.8192214 107.2019554  62.1302770  48.0634647 108.2693651  62.8927382
  44.9903510 107.2740235  62.7700955  44.6522022 107.1581300  61.8821489
  45.8593278 106.8731400  62.7501961  40.8490326 109.1275711  58.7597846
  40.2855191 109.0365648  57.9914133  40.7342721 108.3075616  59.2400338
  45.4723293 108.4275087  68.7287160  45.4611934 108.0327885  67.8567664
  45.6343933 107.6941159  69.3220932  38.3954758 110.6226903  61.5982066
  39.1876050 110.2817728  61.1828365  38.6351408 110.7321878  62.5184219
  46.4289885 112.7946679  54.0712310  45.7777864 113.3800760  53.6846324
  47.2234247 113.3252874  54.1307348  40.3545512 109.8835816  54.4699445
  41.1276388 109.3364803  54.3312321  40.7070911 110.7480066  54.6813906
  42.1930554 111.2112199  67.6766344  41.9020420 112.1157829  67.5613010
  42.8287539 111.2528726  68.3910414  43.1186761 108.5889047  64.2667704
  43.7150333 108.3645069  63.5524667  43.1761733 107.8473793  64.8693152
  42.6911790 106.0428482  52.1017895  42.9437310 105.5210004  51.3401358
  41.7536349 105.8794628  52.2044578  47.7355072 105.0464261  59.9092638
  48.5218162 104.6283684  59.5583055  47.9993777 105.9510353  60.0774286
  47.9065150 110.4837111  54.6081295  47.2710983 110.5571738  55.3202199
  47.5762556 111.0730710  53.9300374  53.1363499 104.9839494  60.8125616
  53.8688671 104.4138711  61.0463446  52.3802855 104.5961094  61.2532122
  42.4108078 107.9456588  54.3042270  42.2944336 107.2701492  54.9723354
  42.5210338 107.4588962  53.4874423  44.7539619 107.4066735  58.0088959
  44.3897826 106.8797356  58.7201880  45.6106735 107.0165205  57.8355444
  50.6588920  98.6961068  65.2720225  50.3272245  99.5656479  65.0481440
  50.0634533  98.3797352  65.9514255  44.3945106 102.4356635  53.0050307
  44.5619508 103.3036872  53.3720778  44.2042275 102.5983917  52.0811597
  47.1520439 110.8973614  64.6716138  46.8521162 111.7998653  64.5631945
  46.8071499 110.6305797  65.5237291  40.6032921 107.3487411  60.7052842
  39.6783417 107.2163625  60.9130534  40.8517334 108.1281630  61.2022785
  50.5517583 103.4156154  62.3513575  49.6434460 103.3471563  62.0572336
  50.5005179 103.8928099  63.1795401  44.3734327 104.8914293  53.9896974
  44.2533952 105.3371343  54.8282455  43.6786915 105.2399610  53.4310512
  37.9641732 106.9920684  61.5396631  38.0934113 107.2455163  62.4536043
  37.2839183 107.5848392  61.2201286  42.1341219 117.6617934  57.6387105
  42.0565249 118.6125759  57.7175586  41.5302863 117.3163807  58.2962032
  44.6258449 104.8345800  70.2948472  43.8491783 105.3939720  70.2851337
  45.2649012 105.3202583  70.8163342  52.4179230 101.6172593  64.1291449
  51.7753610 101.9105126  63.4831244  51.9134158 101.5025513  64.9344646
  50.0719393 105.3635766  54.8177308  50.9837249 105.5963153  54.6425006
  49.5629040 105.9472810  54.2552387  42.8804821 107.6431253  69.8566439
  43.6219506 108.1816297  69.5801263  42.1741807 108.2697542  70.0137991
  48.3560161 109.7860394  68.4538601  48.7643517 109.3442804  67.7093233
  47.6337422 109.2113021  68.7072794  44.7091231 104.7233000  65.8272158
  45.5552426 105.1472414  65.9706807  44.6489869 104.0666625  66.5210721
  48.6788975 110.3461584  62.2090890  48.0497838 110.5107298  61.5066958
  48.2914638 110.7603194  62.9801854  52.5578207 111.2816022  59.5635254
  51.8729246 111.6614923  59.0132287  52.6422057 111.8911349  60.2967201
  47.8590676 102.3837369  67.4853331  47.6151608 103.1379429  66.9487607
  48.1350607 102.7622716  68.3200579  49.8129139 108.9275981  66.1630597
  50.0246034 109.5707741  65.4864978  49.7658887 108.0938298  65.6952527
  47.4155368 101.5393802  63.0667169  46.5539847 101.8375055  63.3583907
  47.4417803 101.7564201  62.1348202  44.2316937 110.0835992  59.4740975
  44.6955283 110.3623695  58.6845597  43.9673735 109.1819437  59.2914066
  41.1241018 109.6307474  62.4120738  41.6942375 110.0594742  61.7738223
  41.7149130 109.3490059  63.1104924  43.1685823 106.2059145  56.2830540
  43.8709867 106.6580188  56.7504466  42.8366452 105.5642964  56.9110433
  41.6166185 104.7970901  70.6581749  40.9864846 105.4787182  70.8917146
  41.5102273 104.6853983  69.7134888  36.9111157 104.4642697  61.5847674
  36.1210211 104.7200226  61.1087784  37.4022405 105.2791035  61.6899714
  50.9274967 111.8047937  64.3352954  51.7492411 111.4028124  64.0535636
  50.9237370 111.7016171  65.2869070  38.8625903 104.8287277  58.5431150
  38.0657066 104.9405971  59.0614646  38.6351495 105.1673929  57.6772041
  44.6931570 111.3531980  66.4913665  44.7576003 111.8152387  67.3271837
  43.9842494 110.7229345  66.6195975  35.1948860 104.7173188  64.0162664
  35.4456899 105.6020198  64.2820240  35.7308409 104.5377789  63.2437756
  59.0180960 108.1486685  60.6837926  58.2644668 107.5794083  60.5281930
  59.1528501 108.1149350  61.6308561  44.4079588 113.0200087  56.3592645
  44.2725263 113.8651623  56.7877493  44.9489401 113.2219365  55.5958579
  40.8946928  99.0991667  73.0207000  40.5013873  98.5457866  73.6954645
  41.7113068  99.4102246  73.4113518  37.8608985 110.5375525  56.9320570
  38.3733506 111.3318776  57.0826135  38.5131698 109.8401816  56.8654172
  39.6703870 113.6541282  59.0143323  39.8470498 114.5759246  58.8264307
  40.4660704 113.3399701  59.4437703  43.8114889 100.5149546  70.6127257
  44.5524602 101.1156699  70.5331719  44.0432811  99.7727184  70.0545300
  38.9556227 105.7005914  68.8905487  38.8409742 104.7991171  69.1912586
  38.1000744 105.9469610  68.5390303  46.0348064 113.6423654  70.4892987
  45.5911919 112.8560032  70.1713892  46.6965278 113.8302804  69.8236878
  40.7935186 115.1719455  65.0153666  41.3442611 115.0436519  64.2430660
  39.9546661 115.4714344  64.6648559  48.1329302 113.9226454  68.5174389
  48.1147778 114.7435335  68.0254658  49.0549223 113.7980529  68.7424530
  44.5902357 111.4370583  69.3597897  45.1230693 110.6758871  69.1297205
  44.0616438 111.1444235  70.1022051  47.7572052  96.5430649  64.8891539
  47.4136321  97.4332291  64.8130649  48.1251014  96.3532307  64.0261124
  35.8257902 108.8664180  57.7080141  36.6633124 109.2761188  57.4913849
  36.0036170 107.9263622  57.6780335  47.7222334 106.5339260  53.3963974
  47.2068958 107.3043865  53.6352361  47.4499643 105.8604396  54.0197035
  45.3069445 101.3788961  58.4549212  44.4511042 100.9895812  58.2754851
  45.7196397 101.4580922  57.5948998  46.8368592  98.9135304  62.8540772
  46.3333388  98.8765440  62.0408577  47.1299199  99.8228047  62.9137429
  43.0811478  98.9974034  61.8606954  43.9464475  98.8016843  61.5012843
  43.1488987  98.7684386  62.7876310  52.6956608 109.2871615  55.3317147
  51.9186051 108.9482774  54.8872309  53.3748089 109.2924238  54.6572112
  47.5108637 104.4066352  55.2223755  47.2058773 104.7212502  56.0733898
  48.4639080 104.4847772  55.2651088  45.9555069 110.5656576  56.8716709
  45.4276431 109.8309335  56.5589946  45.4542572 111.3431252  56.6256677
  50.9347915 108.7605596  61.9883755  50.2771590 109.4504858  62.0763884
  51.7388315 109.1502028  62.3317742  40.6873797 101.2276242  59.2323320
  41.2617549 101.0051424  58.4996513  41.2744779 101.2964937  59.9851922
  49.7453374 107.1149969  60.0387697  50.2585256 107.7479961  60.5409407
  50.3954598 106.5151164  59.6731057  41.0143384 103.2580703  53.2519206
  40.1780696 103.5955390  53.5728480  40.8748154 103.1229683  52.3146343
  42.9896465  98.1017491  57.9598390  42.3360877  97.7866508  57.3355005
  42.9476939  97.4793231  58.6858213  44.1007670 108.3836786  49.8751682
  43.1934731 108.1526039  50.0742831  44.5978702 107.5874405  50.0625664
  47.0075748 117.0934293  52.7948368  46.3337447 117.3965990  53.4033326
  47.3941570 117.8963374  52.4453825  46.2234205 104.5899424  62.2846038
  45.3056766 104.8114371  62.1267726  46.6394349 104.6645735  61.4257745
  47.0069253 105.9890840  57.4148718  47.7541072 106.5012237  57.1055840
  47.2760842 105.6674893  58.2753111  45.2795903 108.4849381  54.3975672
  44.3707122 108.2008414  54.4948142  45.3090987 108.9048459  53.5378979
  50.5115170 112.0955970  58.1666840  50.0577497 111.2546880  58.2232030
  49.8809137 112.7317369  58.5041620  49.4548090 103.0247956  59.3967507
  48.7170847 102.5125343  59.7277750  49.7074863 102.5848338  58.5850784
  48.9548110 113.9332467  59.1016658  49.2471084 114.4937524  58.3829023
  49.4646730 114.2261028  59.8569817  49.5559717  95.8024208  59.9909276
  49.8618594  94.9421572  59.7035191  50.2812322  96.3941829  59.7908270
  35.8484073 106.2054895  58.3790874  35.6508473 105.6124256  57.6541941
  35.2930737 105.9007105  59.0966813  43.8280797 106.0978001  60.4985467
  43.8829407 105.1451838  60.4227944  43.0171999 106.2537441  60.9826766
  44.9771991 110.0258125  51.7363751  44.5391421 109.3093983  51.2769388
  45.7182432 110.2534239  51.1748842  41.7673157 104.7155061  58.2575846
  40.9541022 105.0149232  58.6641038  42.2632151 104.3210750  58.9750329
  43.9181735 114.7112818  60.1910111  43.8757914 114.9373664  59.2618643
  44.8344434 114.4776193  60.3395912  47.3647369 105.1796886  67.0890740
  47.7196756 105.4068359  67.9485206  48.0119500 105.5115262  66.4667995
  53.0945106 108.3015322  57.7940069  52.9563004 108.4916918  56.8661258
  52.7381324 109.0634704  58.2508120  41.2587232 102.2873417  63.8737081
  41.8986611 102.1462176  63.1760045  40.4264762 102.0007930  63.4975683
  53.1214485 110.3691849  62.8051341  53.5550992 110.2767138  63.6534395
  53.8346066 110.3449349  62.1671357  42.0347536 111.5875847  59.9872074
  42.8288134 111.0926167  59.7854649  41.3239228 111.0593710  59.6239779
  46.8542380 113.9693943  64.3384441  46.9079402 114.5384879  65.1062157
  45.9857161 114.1395828  63.9738478  38.3430299 105.7318929  56.0631826
  37.4127887 105.6703384  56.2801789  38.4387771 105.2094882  55.2668468
  38.2615848 102.2573742  58.6510068  38.5222665 103.1719075  58.5419229
  39.0833020 101.7898184  58.8006681  39.7340773 103.6711499  65.8208893
  40.4063827 103.4628861  65.1721541  38.9070560 103.4733585  65.3814125
  53.9830035 110.4115549  65.3384226  54.1765925 111.3161360  65.5843501
  53.8830653 109.9522968  66.1722811  45.6366345 100.2973440  67.8374553
  44.9894260 100.9963389  67.7439030  46.4067361 100.7309584  68.2050802
  49.0445143 110.5622292  70.9125107  48.8930650 110.3332844  69.9955190
  49.0349823 111.5192893  70.9256452  45.8130480 108.1354205  65.8971373
  46.7422540 108.2865364  65.7240340  45.3921510 108.2238226  65.0420020
  44.6118812 112.1604869  63.6669911  44.4729897 111.7923654  64.5395849
  43.8233408 112.6752509  63.4953869  45.2066964 117.2613966  55.0095447
  45.3818719 116.7902009  55.8241070  44.5199752 117.8879732  55.2376708
  46.1624027 111.5386472  61.0558749  45.8273859 111.4987242  61.9516398
  45.6627972 110.8731188  60.5829159  40.1368271 106.9454102  66.5811330
  39.9988069 106.2134341  67.1822869  41.0473194 106.8563002  66.2995517
  49.0983218 108.8842506  51.3295808  48.4812389 108.1589334  51.2328861
  48.6299707 109.6451866  50.9862882  42.7650571 106.6574061  66.0695009
  43.4750190 106.0167253  66.0281628  42.7219880 106.9086956  66.9921190
  50.7537350 113.5941415  68.9901589  50.6949896 112.9100635  68.3232172
  51.1556868 114.3360405  68.5382215  41.4779505 103.6439279  67.8890649
  40.9416862 103.1930018  68.5412245  40.8896214 103.7785188  67.1461113
  40.8881764 103.1027931  50.4517113  40.0111231 102.9816731  50.0879359
  41.3639517 102.3114009  50.1996001  50.7554757 111.5580998  67.2215568
  49.8681536 111.2206920  67.3441967  51.3253308 110.8264030  67.4584334
  32.4083904 107.8905090  60.5458620  33.0954944 107.5766820  59.9579635
  32.2532033 108.7946455  60.2725871  37.2118627 102.7795287  64.9743643
  37.1276815 102.1720956  64.2394053  36.3901333 103.2704305  64.9753140
  44.2855911 116.2182451  64.1876811  44.2126082 117.0237422  64.6996116
  43.8433304 116.4174417  63.3624833  44.0745690 115.4554221  57.6979633
  43.2913212 115.9975901  57.7917858  44.7738436 115.9728201  58.0973874
  47.3842340 101.2648850  60.3413838  47.8811040 100.5118813  60.0214909
  46.6129322 101.3013167  59.7757048  55.2372098 106.9689216  61.9832130
  55.2261974 107.8513931  61.6126063  54.3689477 106.6160767  61.7886667
  46.7454594 116.1169285  66.3434970  47.4582566 116.7516750  66.2710872
  46.2544623 116.2133151  65.5274972  48.4672121 110.0220538  57.9152262
  47.5328400 110.1422000  57.7456966  48.6448790 109.1193004  57.6512272
  43.9677309 103.4066233  60.0685523  43.5975097 102.8537274  60.7566429
  44.4636402 102.8024367  59.5160523  51.8544672 105.8637857  58.4502296
  52.3205125 106.6965848  58.3762599  52.3052173 105.3982838  59.1547554
  41.7966508 113.8663728  67.1640541  42.4975967 114.5000211  67.3169935
  41.3261623 114.2078460  66.4036180  49.9220904 112.2081678  55.4488448
  50.1980747 112.0938273  56.3582322  49.0525402 111.8099163  55.4100621
  49.8261335  98.2318444  62.4893197  48.9124415  98.4622671  62.6575404
  50.2554437  98.3156888  63.3407230  49.5967794 106.4208336  64.9893091
  48.9439244 106.6684243  64.3345544  49.9748174 105.6072474  64.6555569
  46.5574968 116.4568029  59.0921262  46.7397362 115.6389685  59.5549014
  47.3807954 116.6735721  58.6546152  46.8917133 115.3836214  56.3536310
  47.4204900 114.8728669  55.7406472  47.1545353 115.0678744  57.2181843
  45.6455367 107.1628147  71.4759128  44.9696004 107.0622276  72.1461504
  46.4683001 107.0067361  71.9395126  37.3934226 113.4000083  64.0971644
  37.9787663 112.6543771  64.2299548  37.1959064 113.7104040  64.9808308
  40.2472881 116.4351331  59.1134086  39.5783256 116.9197458  58.6298126
  40.1085751 116.6820551  60.0277465  31.9851881 105.9705684  62.8176087
  32.0235980 105.4369274  63.6113205  31.4792173 105.4440889  62.1987064
  44.3878150 118.4695074  65.7116744  44.9396458 118.6326696  66.4765830
  44.7284343 119.0599512  65.0396769  39.3642643 100.8170224  66.3138629
  39.4283969 101.6785055  65.9016027  39.3009763 100.2044226  65.5810988
  38.8394915 102.8893357  69.9611663  39.4666954 102.5070434  70.5749188
  37.9822834 102.6707559  70.3267356  49.2389024 113.2956332  71.5665399
  49.7828928 113.9086290  71.0720354  48.6575869 113.8535910  72.0832412
  35.6160458 104.6969786  55.8930018  35.9113899 103.7880464  55.8397072
  34.7148494 104.6757525  55.5711021  47.5246537 116.4177050  62.6980427
  47.3997676 115.6166790  62.1891372  48.1825628 116.9123243  62.2094397
  39.1454705 102.7725782  61.8757567  38.4241291 103.3861750  61.7365040
  39.9347961 103.3083547  61.7974213  49.5881445 114.2186070  64.3259977
  48.6411781 114.0991421  64.2538303  49.9364218 113.3308568  64.4086238
  41.9481019 100.1080209  68.1498219  42.4715420 100.3542505  68.9124528
  41.7293352 100.9400244  67.7301356  37.3448300 102.3783883  56.0169343
  37.0161006 101.4981262  55.8344449  37.6987670 102.3231552  56.9045733
  46.5927879 114.0138786  60.5264329  46.4452841 113.0855494  60.7071899
  47.4181372 114.0358877  60.0421404  40.4590123 102.6656853  56.3844821
  40.7986195 103.1942774  55.6623429  40.9062243 103.0037259  57.1603388
  50.1962000 114.8367345  61.6129202  51.1208548 114.6310206  61.4753653
  50.0277304 114.5883746  62.5218543  43.1533564 101.0493904  65.8347889
  42.8130384 100.2501717  66.2368569  42.4472570 101.3495615  65.2624722
  43.8050036  98.1343216  64.2875212  44.6276105  97.6603695  64.1654102
  44.0488099  98.9133700  64.7873898  42.4458270 101.1631475  54.5838114
  43.1666633 101.5412728  54.0801831  41.8223574 101.8820352  54.6873092
  46.5889393 101.8676624  55.5196446  46.8053007 102.7501262  55.2185274
  46.1083460 101.4762837  54.7902088  41.3288614 104.8262337  62.0967191
  41.1833195 105.1402640  62.9891472  40.8513818 105.4447237  61.5438089
  43.1884997 101.8164885  62.1448080  43.1746566 100.9205978  61.8080378
  43.9057425 101.8235549  62.7786366  45.0411128 102.2502225  64.1901208
  44.7828906 103.1719296  64.1885538  44.5096168 101.8532660  64.8801672
  49.9857317 115.3553012  56.9691293  50.1594194 114.7899435  56.2165146
  50.4786208 116.1553907  56.7870783  35.8034276 107.3667681  65.0354852
  35.2587745 108.1427489  65.1675126  36.6813626 107.7138486  64.8773973
  42.5921893 100.6979265  57.4135650  42.7137804  99.7695911  57.6126538
  42.3023935 100.7117951  56.5013966  45.4613083  98.3834176  60.5502370
  45.4834780  98.4473509  59.5954350  45.8781142  97.5438684  60.7442876
  55.8396708 108.1189435  58.5881593  56.2827854 107.3696760  58.1900716
  54.9623218 108.1099572  58.2055325  50.9732489 114.6719777  54.0688191
  51.6683394 115.2926469  54.2875506  51.3155639 113.8215128  54.3440569
  36.5900298 106.4937578  67.9285009  35.8482034 106.6420213  68.5149639
  36.2693043 106.7545843  67.0651758  52.8723912 112.1219482  55.5975522
  53.3975236 112.4606755  54.8724842  52.7846265 111.1866498  55.4138657
  44.5343961 116.0353556  67.7265399  44.8431087 115.7902703  68.5988098
  45.3319443 116.2400194  67.2384269  44.5564573 118.1891466  59.9570775
  44.1169563 117.6967844  60.6503632  45.3072690 117.6464433  59.7162851
  37.0356912 114.3803006  59.9595403  37.8614932 114.0806778  59.5794047
  36.6850964 113.6110629  60.4085192  42.0038445 113.7329475  62.0293077
  41.3818454 113.0700180  61.7295305  42.6743312 113.7590606  61.3466725
  35.2365517 112.2989333  60.9184337  34.3997425 111.8711507  60.7368338
  35.2089162 112.4921776  61.8555128  42.0762973 102.2111263  71.6225583
  42.1251128 103.0873385  71.2403353  42.6185487 101.6688656  71.0497226
  52.5617818 112.7552386  70.9026720  51.7713362 112.7376525  70.3631219
  52.3251173 113.2940680  71.6575757  52.6815693 109.6044852  68.2159449
  52.7313698 109.4394860  69.1574971  52.5729617 108.7372111  67.8257329
  41.5651952 112.2833398  55.5051538  41.7140072 112.9668862  54.8518210
  42.3718396 112.2638488  56.0200993  49.9719456 105.5875780  69.5318755
  50.8729319 105.4482245  69.2402753  50.0467430 105.7530235  70.4716933
  44.3062261 102.9642635  68.3771942  43.4365570 103.2576201  68.1054530
  44.5421741 103.5483080  69.0979205  54.1833890 112.0241794  68.4601470
  53.8918699 112.3871774  69.2964931  53.5706021 111.3108802  68.2814802
  55.3829573 109.5894674  60.9804040  56.2176464 110.0284478  61.1441601
  55.5188701 109.1133327  60.1612286  52.4321078 107.1474408  66.9281528
  52.9075200 107.3402055  66.1200380  51.5086644 107.2033594  66.6824912
  39.3204585 108.3098576  56.5112606  39.0750627 107.4060906  56.7092817
  39.4900500 108.3115726  55.5692084  47.0101295  99.1822252  65.8937362
  47.5283239  99.9183279  65.5683851  46.6556428  99.4886245  66.7284121
  38.5900233 104.0426933  54.0098768  37.8969478 104.1171288  53.3538804
  38.3451984 103.2787277  54.5320285  47.2613889  95.6022534  61.4138259
  47.5415643  94.9345724  62.0398685  48.0464496  95.7951630  60.9012922
  45.0647358 114.7781528  52.9763285  44.4921325 115.3971716  52.5233757
  45.6380151 115.3280890  53.5103207  51.1322747 104.0240168  65.1609834
  52.0840170 104.1238266  65.1822058  50.9626198 103.2318437  65.6707918
  49.1537127 101.1095752  65.3469235  48.5587059 101.3900764  64.6515723
  48.8686824 101.5989653  66.1185976  48.2844617 115.0618679  54.1071867
  49.2175291 114.9964240  54.3104743  48.1967830 115.8974945  53.6486400
  50.9132634 114.3784549  51.0675815  50.8346266 114.0444412  51.9611573
  51.7342301 114.8706317  51.0667287  53.6110825 107.2446288  64.2752133
  53.5787145 106.3062289  64.4611817  54.2211449 107.3230325  63.5417958
  45.4494156 106.1142341  50.3179337  46.3953261 105.9848549  50.3867755
  45.0708401 105.3757003  50.7948766  53.7605314 104.0357332  64.3210417
  53.2444362 103.2515788  64.1340345  54.6445262 103.7076048  64.4856936
  51.4216041  97.7798347  60.2806229  51.2240862  97.4713435  61.1649561
  52.0315746  98.5059986  60.4104159  59.4287375 108.3062295  63.4158170
  60.1590764 108.0447583  63.9765874  58.8194321 107.5691017  63.4560238
  57.5102672 106.4470158  64.0132621  56.7835836 106.3126123  63.4049113
  57.0949959 106.7546986  64.8189339  45.3332849 110.1660087  71.7779994
  46.2535858 110.3438686  71.9720041  45.2982432 109.2216133  71.6259694
  43.6337073 104.0392318  50.2534223  42.7268529 103.7425430  50.3296936
  43.9113054 103.7422136  49.3868509  34.5515014 105.3598681  60.7033269
  34.2317798 104.5063989  60.4107643  34.0048442 105.5747259  61.4591236
  38.3294921 108.0761122  64.4202776  38.5480931 109.0078230  64.4390809
  38.7420695 107.7169096  65.2057579  45.2499139  98.5829207  56.4078464
  44.4399867  98.2376292  56.7833710  45.9383556  98.2736751  56.9966076
  47.1789687  97.6607254  58.0302761  47.7320726  98.0802707  58.6892784
  47.4159774  96.7343002  58.0725717  43.2022786 103.6494328  73.8105525
  43.1019513 104.5988685  73.7417616  42.9844329 103.3212567  72.9381595
  42.4035858 100.8979253  50.3946202  43.2655022 101.2234151  50.6542019
  42.5886202 100.1110749  49.8819268  34.4203274 108.9801592  62.6726391
  33.7266745 108.5655545  62.1596345  35.1676265 109.0222129  62.0759810
  50.5568494  99.7707779  57.5381425  49.9767163 100.4292583  57.1559477
  50.2904427  98.9485124  57.1268842  49.0072061  99.1712837  59.7402745
  49.5071839  99.2829371  58.9317064  49.6507669  98.8673890  60.3803554
  43.0654057 107.0791467  72.6270586  42.5821138 107.8791827  72.8334475
  43.1514996 107.0899411  71.6738030  36.3340016 108.9119846  60.5492406
  36.3110704 109.0107533  59.5974289  36.6440653 109.7584997  60.8709572
  38.9927394 110.9696001  64.6639020  39.9470648 110.9379944  64.5968952
  38.7939918 110.5086625  65.4789246  39.5826776 109.5397117  67.2309818
  40.4019665 110.0341196  67.2544655  39.8563584 108.6229085  67.2027385
  49.3393372 101.9307870  56.5937773  48.4519227 102.2157520  56.3757968
  49.7547361 101.7701633  55.7465050  52.6907908 101.9554391  60.3092112
  53.4668299 102.4450843  60.5816729  51.9656043 102.3812445  60.7663982
  55.1280467 102.6682010  61.3666053  55.7224958 102.4277746  60.6559361
  55.2007051 101.9489140  61.9939589  37.3477623 116.5115621  61.6809218
  37.2132091 115.7516022  61.1147216  36.9309685 117.2356521  61.2138007
  48.4836586 111.6952544  50.6885793  49.1872436 111.9002547  51.3043449
  47.7599235 112.2629306  50.9534877  49.3134396 107.4462406  56.8088063
  49.2569598 107.9030957  55.9695696  49.8662739 106.6853090  56.6310906
  53.1239202 103.2352137  57.6338183  52.8676136 102.8348773  58.4646390
  52.4992070 103.9495931  57.5088322  57.4351540 105.9748211  60.1409474
  56.8751098 106.0441400  60.9141036  56.8295043 105.7989195  59.4208970
  40.5046749 117.4084938  61.8927660  40.3879133 118.3530370  61.7906351
  39.6839195 117.1058499  62.2813460  50.3923283 112.1335073  52.7384253
  51.2268887 111.7016272  52.5561728  50.2307626 111.9617087  53.6661148
  50.0469175 108.6367187  54.1040592  49.9917979 108.4711458  53.1629037
  49.4215231 109.3443220  54.2602782  34.8361690 103.8735251  67.9302015
  35.4820554 103.3634205  68.4189240  34.6278842 104.6103933  68.5045440
  47.3615083 110.9416099  73.4294155  48.2306242 111.1156751  73.0680790
  46.8821834 111.7610515  73.3069885  43.3565301  98.1375296  53.6825911
  43.3443971  99.0817136  53.8394182  44.2488723  97.9545441  53.3885372
  41.5301263 118.0613200  65.1083589  42.4328510 118.0936810  65.4250084
  41.3038633 117.1313651  65.1229925  43.2854865 116.8144186  61.7693668
  42.3350496 116.8146048  61.6558040  43.5887351 116.0676921  61.2529702
  47.1717420  94.7318072  57.9371848  46.4049816  94.1776559  58.0828530
  47.5828125  94.8039941  58.7985999  39.1759181 101.0202868  72.0277029
  40.0390643 100.6639673  72.2380353  38.6024592 100.6816763  72.7152433
  59.0207558 122.6504725  62.8339430  59.6585968 122.5311472  62.1302770
  58.9028401 123.5985569  62.8927382  55.8297265 122.6032153  62.7700955
  55.4915776 122.4873217  61.8821489  56.6987033 122.2023318  62.7501961
  56.3117048 123.7567004  68.7287160  56.3005688 123.3619803  67.8567664
  56.4737687 123.0233077  69.3220932  53.5305544 121.3720400  52.1017895
  53.7831065 120.8501921  51.3401358  52.5930103 121.2086546  52.2044578
  58.5748827 120.3756178  59.9092638  59.3611916 119.9575602  59.5583055
  58.8387531 121.2802271  60.0774286  63.9757254 120.3131412  60.8125616
  64.7082426 119.7430628  61.0463446  63.2196610 119.9253012  61.2532122
  55.5933374 122.7358653  58.0088959  55.2291581 122.2089274  58.7201880
  56.4500490 122.3457122  57.8355444  61.4982674 114.0252986  65.2720225
  61.1665999 114.8948397  65.0481440  60.9028288 113.7089270  65.9514255
  55.2338861 117.7648553  53.0050307  55.4013263 118.6328789  53.3720778
  55.0436030 117.9275835  52.0811597  61.3911338 118.7448072  62.3513575
  60.4828215 118.6763480  62.0572336  61.3398933 119.2220017  63.1795401
  55.2128082 120.2206210  53.9896974  55.0927707 120.6663261  54.8282455
  54.5180670 120.5691528  53.4310512  55.4652203 120.1637717  70.2948472
  54.6885537 120.7231638  70.2851337  56.1042766 120.6494500  70.8163342
  63.2572984 116.9464510  64.1291449  62.6147364 117.2397043  63.4831244
  62.7527913 116.8317431  64.9344646  60.9113148 120.6927683  54.8177308
  61.8231004 120.9255070  54.6425006  60.4022795 121.2764728  54.2552387
  59.1953915 125.1152311  68.4538601  59.6037271 124.6734722  67.7093233
  58.4731177 124.5404939  68.7072794  55.5484985 120.0524918  65.8272158
  56.3946181 120.4764332  65.9706807  55.4883623 119.3958542  66.5210721
  58.6984431 117.7129286  67.4853331  58.4545363 118.4671347  66.9487607
  58.9744361 118.0914634  68.3200579  60.6522893 124.2567899  66.1630597
  60.8639789 124.8999659  65.4864978  60.6052642 123.4230215  65.6952527
  58.2549122 116.8685719  63.0667169  57.3933601 117.1666973  63.3583907
  58.2811557 117.0856118  62.1348202  54.0079578 121.5351062  56.2830540
  54.7103621 121.9872106  56.7504466  53.6760206 120.8934881  56.9110433
  52.4559939 120.1262819  70.6581749  51.8258600 120.8079100  70.8917146
  52.3496027 120.0145901  69.7134888  47.7504912 119.7934615  61.5847674
  46.9603966 120.0492144  61.1087784  48.2416159 120.6082953  61.6899714
  49.7019657 120.1579194  58.5431150  48.9050821 120.2697889  59.0614646
  49.4745249 120.4965847  57.6772041  69.8574714 123.4778603  60.6837926
  69.1038423 122.9086001  60.5281930  69.9922256 123.4441267  61.6308561
  51.7340682 114.4283585  73.0207000  51.3407628 113.8749783  73.6954645
  52.5506822 114.7394163  73.4113518  54.6508643 115.8441464  70.6127257
  55.3918357 116.4448617  70.5331719  54.8826566 115.1019102  70.0545300
  49.7949981 121.0297831  68.8905487  49.6803496 120.1283088  69.1912586
  48.9394499 121.2761528  68.5390303  58.5965806 111.8722567  64.8891539
  58.2530075 112.7624209  64.8130649  58.9644769 111.6824225  64.0261124
  58.5616089 121.8631178  53.3963974  58.0462712 122.6335783  53.6352361
  58.2893397 121.1896314  54.0197035  56.1463200 116.7080879  58.4549212
  55.2904796 116.3187729  58.2754851  56.5590152 116.7872840  57.5948998
  57.6762346 114.2427222  62.8540772  57.1727142 114.2057357  62.0408577
  57.9692953 115.1519965  62.9137429  53.9205232 114.3265952  61.8606954
  54.7858229 114.1308760  61.5012843  53.9882741 114.0976304  62.7876310
  63.5350363 124.6163533  55.3317147  62.7579806 124.2774692  54.8872309
  64.2141844 124.6216156  54.6572112  58.3502392 119.7358270  55.2223755
  58.0452528 120.0504419  56.0733898  59.3032834 119.8139690  55.2651088
  61.7741670 124.0897514  61.9883755  61.1165344 124.7796775  62.0763884
  62.5782069 124.4793946  62.3317742  51.5267551 116.5568160  59.2323320
  52.1011303 116.3343341  58.4996513  52.1138534 116.6256854  59.9851922
  60.5847129 122.4441887  60.0387697  61.0979010 123.0771878  60.5409407
  61.2348353 121.8443082  59.6731057  51.8537139 118.5872621  53.2519206
  51.0174451 118.9247307  53.5728480  51.7141908 118.4521601  52.3146343
  53.8290219 113.4309409  57.9598390  53.1754631 113.1158426  57.3355005
  53.7870693 112.8085149  58.6858213  54.9401424 123.7128704  49.8751682
  54.0328486 123.4817957  50.0742831  55.4372456 122.9166323  50.0625664
  57.0627960 119.9191342  62.2846038  56.1450521 120.1406289  62.1267726
  57.4788103 119.9937653  61.4257745  57.8463007 121.3182758  57.4148718
  58.5934826 121.8304155  57.1055840  58.1154597 120.9966811  58.2753111
  56.1189657 123.8141299  54.3975672  55.2100877 123.5300331  54.4948142
  56.1484741 124.2340377  53.5378979  60.2941844 118.3539874  59.3967507
  59.5564601 117.8417260  59.7277750  60.5468618 117.9140256  58.5850784
  60.3953472 111.1316126  59.9909276  60.7012349 110.2713490  59.7035191
  61.1206077 111.7233746  59.7908270  54.6674551 121.4269919  60.4985467
  54.7223161 120.4743756  60.4227944  53.8565754 121.5829358  60.9826766
  52.6066911 120.0446979  58.2575846  51.7934777 120.3441149  58.6641038
  53.1025906 119.6502668  58.9750329  58.2041123 120.5088803  67.0890740
  58.5590511 120.7360277  67.9485206  58.8513254 120.8407180  66.4667995
  63.9338860 123.6307239  57.7940069  63.7956759 123.8208835  56.8661258
  63.5775079 124.3926622  58.2508120  52.0980986 117.6165334  63.8737081
  52.7380365 117.4754094  63.1760045  51.2658517 117.3299848  63.4975683
  63.9608240 125.6983766  62.8051341  64.3944746 125.6059055  63.6534395
  64.6739820 125.6741267  62.1671357  49.1824054 121.0610847  56.0631826
  48.2521642 120.9995302  56.2801789  49.2781526 120.5386799  55.2668468
  49.1009603 117.5865659  58.6510068  49.3616420 118.5010993  58.5419229
  49.9226775 117.1190102  58.8006681  50.5734528 119.0003417  65.8208893
  51.2457581 118.7920779  65.1721541  49.7464314 118.8025503  65.3814125
  64.8223789 125.7407467  65.3384226  65.0159679 126.6453277  65.5843501
  64.7224407 125.2814886  66.1722811  56.4760100 115.6265358  67.8374553
  55.8288015 116.3255307  67.7439030  57.2461115 116.0601501  68.2050802
  56.6524234 123.4646122  65.8971373  57.5816294 123.6157282  65.7240340
  56.2315264 123.5530143  65.0420020  50.9762025 122.2746020  66.5811330
  50.8381823 121.5426258  67.1822869  51.8866949 122.1854920  66.2995517
  59.9376973 124.2134424  51.3295808  59.3206144 123.4881252  51.2328861
  59.4693461 124.9743784  50.9862882  53.6044326 121.9865979  66.0695009
  54.3143944 121.3459171  66.0281628  53.5613634 122.2378874  66.9921190
  52.3173260 118.9731197  67.8890649  51.7810617 118.5221935  68.5412245
  51.7289968 119.1077106  67.1461113  51.7275519 118.4319848  50.4517113
  50.8504985 118.3108649  50.0879359  52.2033272 117.6405926  50.1996001
  48.0512381 118.1087204  64.9743643  47.9670570 117.5012874  64.2394053
  47.2295087 118.5996223  64.9753140  58.2236095 116.5940768  60.3413838
  58.7204794 115.8410730  60.0214909  57.4523076 116.6305085  59.7757048
  66.0765852 122.2981134  61.9832130  66.0655729 123.1805849  61.6126063
  65.2083232 121.9452684  61.7886667  54.8071064 118.7358151  60.0685523
  54.4368851 118.1829191  60.7566429  55.3030156 118.1316284  59.5160523
  62.6938427 121.1929774  58.4502296  63.1598879 122.0257766  58.3762599
  63.1445927 120.7274756  59.1547554  60.6655090 113.5610361  62.4893197
  59.7518170 113.7914588  62.6575404  61.0948191 113.6448806  63.3407230
  60.4361548 121.7500253  64.9893091  59.7832998 121.9976161  64.3345544
  60.8141928 120.9364392  64.6555569  56.4849121 122.4920065  71.4759128
  55.8089758 122.3914194  72.1461504  57.3076755 122.3359278  71.9395126
  50.2036397 116.1462142  66.3138629  50.2677724 117.0076973  65.9016027
  50.1403518 115.5336143  65.5810988  49.6788670 118.2185274  69.9611663
  50.3060709 117.8362352  70.5749188  48.8216589 117.9999476  70.3267356
  46.4554213 120.0261703  55.8930018  46.7507654 119.1172382  55.8397072
  45.5542248 120.0049443  55.5711021  49.9848460 118.1017700  61.8757567
  49.2635045 118.7153668  61.7365040  50.7741715 118.6375465  61.7974213
  52.7874773 115.4372126  68.1498219  53.3109175 115.6834423  68.9124528
  52.5687106 116.2692161  67.7301356  48.1842054 117.7075801  56.0169343
  47.8554760 116.8273180  55.8344449  48.5381425 117.6523470  56.9045733
  51.2983877 117.9948771  56.3844821  51.6379950 118.5234692  55.6623429
  51.7455998 118.3329177  57.1603388  53.9927318 116.3785822  65.8347889
  53.6524139 115.5793635  66.2368569  53.2866324 116.6787532  65.2624722
  54.6443790 113.4635134  64.2875212  55.4669859 112.9895612  64.1654102
  54.8881854 114.2425618  64.7873898  53.2852025 116.4923392  54.5838114
  54.0060387 116.8704645  54.0801831  52.6617329 117.2112269  54.6873092
  57.4283147 117.1968541  55.5196446  57.6446762 118.0793179  55.2185274
  56.9477215 116.8054755  54.7902088  52.1682369 120.1554255  62.0967191
  52.0226949 120.4694558  62.9891472  51.6907572 120.7739155  61.5438089
  54.0278752 117.1456803  62.1448080  54.0140320 116.2497896  61.8080378
  54.7451180 117.1527466  62.7786366  55.8804882 117.5794143  64.1901208
  55.6222660 118.5011213  64.1885538  55.3489923 117.1824577  64.8801672
  53.4315648 116.0271183  57.4135650  53.5531559 115.0987829  57.6126538
  53.1417690 116.0409869  56.5013966  56.3006838 113.7126093  60.5502370
  56.3228535 113.7765426  59.5954350  56.7174897 112.8730602  60.7442876
  66.6790462 123.4481353  58.5881593  67.1221608 122.6988678  58.1900716
  65.8016973 123.4391489  58.2055325  52.9156727 117.5403180  71.6225583
  52.9644883 118.4165303  71.2403353  53.4579241 116.9980573  71.0497226
  63.5209448 124.9336770  68.2159449  63.5707453 124.7686777  69.1574971
  63.4123371 124.0664029  67.8257329  60.8113210 120.9167698  69.5318755
  61.7123073 120.7774163  69.2402753  60.8861185 121.0822153  70.4716933
  55.1456016 118.2934553  68.3771942  54.2759325 118.5868119  68.1054530
  55.3815496 118.8774998  69.0979205  66.2223327 124.9186591  60.9804040
  67.0570218 125.3576395  61.1441601  66.3582456 124.4425244  60.1612286
  63.2714833 122.4766326  66.9281528  63.7468955 122.6693972  66.1200380
  62.3480398 122.5325512  66.6824912  57.8495049 114.5114170  65.8937362
  58.3676993 115.2475197  65.5683851  57.4950182 114.8178163  66.7284121
  49.4293987 119.3718851  54.0098768  48.7363232 119.4463206  53.3538804
  49.1845739 118.6079194  54.5320285  58.1007644 110.9314452  61.4138259
  58.3809397 110.2637641  62.0398685  58.8858251 111.1243548  60.9012922
  61.9716502 119.3532086  65.1609834  62.9233925 119.4530184  65.1822058
  61.8019952 118.5610355  65.6707918  59.9930881 116.4387669  65.3469235
  59.3980814 116.7192682  64.6515723  59.7080578 116.9281570  66.1185976
  64.4504580 122.5738206  64.2752133  64.4180900 121.6354207  64.4611817
  65.0605203 122.6522243  63.5417958  56.2887911 121.4434259  50.3179337
  57.2347015 121.3140467  50.3867755  55.9102156 120.7048921  50.7948766
  64.5999068 119.3649249  64.3210417  64.0838117 118.5807706  64.1340345
  65.4839017 119.0367966  64.4856936  62.2609795 113.1090265  60.2806229
  62.0634616 112.8005353  61.1649561  62.8709501 113.8351904  60.4104159
  70.2681130 123.6354213  63.4158170  70.9984518 123.3739501  63.9765874
  69.6588075 122.8982935  63.4560238  68.3496427 121.7762075  64.0132621
  67.6229590 121.6418040  63.4049113  67.9343714 122.0838904  64.8189339
  54.4730828 119.3684235  50.2534223  53.5662283 119.0717348  50.3296936
  54.7506809 119.0714053  49.3868509  56.0892893 113.9121125  56.4078464
  55.2793622 113.5668210  56.7833710  56.7777310 113.6028669  56.9966076
  58.0183442 112.9899172  58.0302761  58.5714480 113.4094625  58.6892784
  58.2553528 112.0634920  58.0725717  54.0416541 118.9786245  73.8105525
  53.9413268 119.9280602  73.7417616  53.8238083 118.6504484  72.9381595
  53.2429612 116.2271170  50.3946202  54.1048776 116.5526069  50.6542019
  53.4279957 115.4402666  49.8819268  61.3962249 115.0999697  57.5381425
  60.8160918 115.7584501  57.1559477  61.1298182 114.2777041  57.1268842
  59.8465815 114.5004755  59.7402745  60.3465594 114.6121289  58.9317064
  60.4901423 114.1965807  60.3803554  53.9047811 122.4083384  72.6270586
  53.4214893 123.2083744  72.8334475  53.9908750 122.4191329  71.6738030
  60.1787127 117.2599787  56.5937773  59.2912982 117.5449438  56.3757968
  60.5941116 117.0993551  55.7465050  63.5301663 117.2846308  60.3092112
  64.3062053 117.7742761  60.5816729  62.8049797 117.7104362  60.7663982
  65.9674222 117.9973927  61.3666053  66.5618712 117.7569663  60.6559361
  66.0400805 117.2781058  61.9939589  60.1528151 122.7754323  56.8088063
  60.0963352 123.2322875  55.9695696  60.7056493 122.0145008  56.6310906
  63.9632957 118.5644055  57.6338183  63.7069891 118.1640691  58.4646390
  63.3385825 119.2787849  57.5088322  68.2745294 121.3040128  60.1409474
  67.7144852 121.3733318  60.9141036  67.6688798 121.1281113  59.4208970
  60.8862930 123.9659104  54.1040592  60.8311734 123.8003376  53.1629037
  60.2608985 124.6735137  54.2602782  45.6755445 119.2027169  67.9302015
  46.3214308 118.6926123  68.4189240  45.4672596 119.9395850  68.5045440
  54.1959055 113.4667213  53.6825911  54.1837725 114.4109053  53.8394182
  55.0882477 113.2837359  53.3885372  58.0111175 110.0609990  57.9371848
  57.2443571 109.5068477  58.0828530  58.4221880 110.1331859  58.7985999
  50.0152936 116.3494786  72.0277029  50.8784397 115.9931591  72.2380353
  49.4418347 116.0108681  72.7152433  69.4359561 127.2014485  64.8891539
  69.0923830 128.0916126  64.8130649  69.8038523 127.0116142  64.0261124
  71.2347226 126.4608044  59.9909276  71.5406103 125.6005407  59.7035191
  71.9599831 127.0525664  59.7908270  71.5048844 128.8902279  62.4893197
  70.5911924 129.1206506  62.6575404  71.9341946 128.9740723  63.3407230
  68.9401398 126.2606370  61.4138259  69.2203152 125.5929559  62.0398685
  69.7252005 126.4535465  60.9012922  73.1003550 128.4382183  60.2806229
  72.9028371 128.1297271  61.1649561  73.7103255 129.1643821  60.4104159
  68.8577196 128.3191089  58.0302761  69.4108235 128.7386543  58.6892784
  69.0947283 127.3926838  58.0725717  68.8504929 125.3901908  57.9371848
  68.0837325 124.8360394  58.0828530  69.2615634 125.4623777  58.7985999
   4.8238787  23.0107259  49.5584737   5.4617197  22.8914006  48.8548077
   4.7059630  23.9588103  49.6172689   1.6328493  22.9634687  49.4946261
   1.2947005  22.8475752  48.6066796   2.5018262  22.5625852  49.4747267
   2.1148276  24.1169539  55.4532467   2.1036917  23.7222337  54.5812970
   2.2768916  23.3835611  56.0466238   3.0714868  28.4841131  40.7957617
   2.4202848  29.0695211  40.4091631   3.8659231  29.0147326  40.8552655
   4.3780056  20.7358713  46.6337945   5.1643145  20.3178136  46.2828362
   4.6418760  21.6404805  46.8019593   4.5490133  26.1731563  41.3326601
   3.9135966  26.2466189  42.0447506   4.2187539  26.7625162  40.6545681
   9.7788483  20.6733946  47.5370923  10.5113655  20.1033163  47.7708753
   9.0227838  20.2855546  47.9777429   1.3964602  23.0961187  44.7334266
   1.0322810  22.5691808  45.4447187   2.2531718  22.7059656  44.5600751
   7.3013903  14.3855520  51.9965532   6.9697228  15.2550931  51.7726747
   6.7059516  14.0691804  52.6759562   1.0370089  18.1251087  39.7295614
   1.2044492  18.9931323  40.0966085   0.8467259  18.2878369  38.8056903
   3.7945423  26.5868066  51.3961444   3.4946146  27.4893105  51.2877252
   3.4496482  26.3200249  52.2482597   7.1942566  19.1050606  49.0758882
   6.2859444  19.0366015  48.7817643   7.1430162  19.5822551  49.9040707
   1.2683432  20.5240252  57.0193779   0.4916766  21.0834172  57.0096644
   1.9073995  21.0097035  57.5408649   9.0604213  17.3067045  50.8536756
   8.4178593  17.5999578  50.2076550   8.5559141  17.1919965  51.6589952
   6.7144376  21.0530218  41.5422615   7.6262233  21.2857604  41.3670312
   6.2054024  21.6367262  40.9797694   4.9985144  25.4754846  55.1783908
   5.4068500  25.0337256  54.4338540   4.2762406  24.9007473  55.4318100
   1.3516214  20.4127452  52.5517464   2.1977409  20.8366866  52.6952113
   1.2914852  19.7561077  53.2456028   5.3213959  26.0356036  48.9336196
   4.6922821  26.2001750  48.2312264   4.9339621  26.4497646  49.7047160
   9.2003191  26.9710474  46.2880560   8.5154229  27.3509375  45.7377593
   9.2847040  27.5805801  47.0212508   4.5015660  18.0731821  54.2098638
   4.2576591  18.8273881  53.6732914   4.7775590  18.4517168  55.0445885
   6.4554122  24.6170433  52.8875904   6.6671018  25.2602193  52.2110285
   6.4083871  23.7832750  52.4197834   4.0580351  17.2288254  49.7912476
   3.1964830  17.5269507  50.0829213   4.0842786  17.4458653  48.8593508
   0.8741921  25.7730444  46.1986281   1.3380266  26.0518147  45.4090904
   0.6098719  24.8713889  46.0159372   7.5699950  27.4942388  51.0598261
   8.3917394  27.0922576  50.7780943   7.5662353  27.3910623  52.0114377
   1.3356554  27.0426432  53.2158972   1.4000986  27.5046839  54.0517143
   0.6267478  26.4123797  53.3441281  15.6605943  23.8381137  47.4083232
  14.9069652  23.2688535  47.2527237  15.7953485  23.8043801  48.3553867
   1.0504571  28.7094539  43.0837952   0.9150246  29.5546075  43.5122800
   1.5914384  28.9113817  42.3203886   2.6773048  29.3318106  57.2138294
   2.2336902  28.5454484  56.8959198   3.3390261  29.5197256  56.5482185
   4.7754286  29.6120906  55.2419695   4.7572761  30.4329787  54.7499964
   5.6974206  29.4874981  55.4669836   1.2327340  27.1265035  56.0843204
   1.7655677  26.3653323  55.8542512   0.7041421  26.8338687  56.8267358
   4.3647318  22.2233712  40.1209280   3.8493941  22.9938317  40.3597668
   4.0924626  21.5498848  40.7442342   9.3381592  24.9766067  42.0562454
   8.5611035  24.6377226  41.6117616  10.0173073  24.9818690  41.3817419
   4.1533621  20.0960804  41.9469062   3.8483756  20.4106954  42.7979205
   5.1064063  20.1742224  41.9896395   2.5980053  26.2551028  43.5962016
   2.0701414  25.5203787  43.2835253   2.0967555  27.0325704  43.3501984
   7.5772899  24.4500048  48.7129062   6.9196573  25.1399310  48.8009191
   8.3813298  24.8396480  49.0563048   6.3878357  22.8044421  46.7633004
   6.9010239  23.4374413  47.2654713   7.0379581  22.2045616  46.3976364
   3.6500732  32.7828745  39.5193675   2.9762430  33.0860442  40.1278633
   4.0366554  33.5857825  39.1699132   2.8659188  20.2793876  49.0091344
   1.9481750  20.5008823  48.8513032   3.2819332  20.3540187  48.1503052
   3.6494236  21.6785292  44.1394024   4.3966055  22.1906689  43.8301146
   3.9185826  21.3569345  44.9998418   1.9220886  24.1743833  41.1220979
   1.0132106  23.8902866  41.2193448   1.9515970  24.5942911  40.2624286
   7.1540154  27.7850422  44.8912146   6.7002481  26.9441332  44.9477337
   6.5234120  28.4211821  45.2286926   6.0973073  18.7142408  46.1212814
   5.3595830  18.2019795  46.4523056   6.3499847  18.2742790  45.3096091
   5.5973093  29.6226919  45.8261964   5.8896067  30.1831976  45.1074330
   6.1071713  29.9155480  46.5815124   1.6196974  25.7152576  38.4609057
   1.1816404  24.9988435  38.0014695   2.3607415  25.9428691  37.8994149
   0.5606718  30.4007270  46.9155418   0.5182897  30.6268116  45.9863950
   1.4769417  30.1670645  47.0641219   4.0072352  20.8691338  53.8136047
   4.3621740  21.0962811  54.6730513   4.6544483  21.2009714  53.1913302
   9.7370089  23.9909773  44.5185376   9.5987987  24.1811369  43.5906565
   9.3806308  24.7529156  44.9753427   9.7639468  26.0586300  49.5296647
  10.1975975  25.9661590  50.3779701  10.4771049  26.0343801  48.8916663
   3.4967363  29.6588395  51.0629748   3.5504386  30.2279331  51.8307464
   2.6282145  29.8290280  50.6983785  10.6255018  26.1010001  52.0629533
  10.8190908  27.0055812  52.3088808  10.5255636  25.6417420  52.8968118
   5.6870127  26.2516744  57.6370413   5.5355633  26.0227296  56.7200497
   5.6774806  27.2087345  57.6501758   2.4555463  23.8248657  52.6216680
   3.3847523  23.9759816  52.4485647   2.0346493  23.9132677  51.7665326
   1.8491947  32.9508418  41.7340754   2.0243703  32.4796461  42.5486377
   1.1624735  33.5774184  41.9622015   2.8049010  27.2280924  47.7804055
   2.4698843  27.1881694  48.6761705   2.3052956  26.5625640  47.3074465
   5.7408202  24.5736958  38.0541115   5.1237372  23.8483786  37.9574168
   5.2724690  25.3346318  37.7108189   7.3962333  29.2835866  55.7146895
   7.3374879  28.5995087  55.0477478   7.7981852  30.0254856  55.2627521
   7.3979741  27.2475450  53.9460875   6.5106519  26.9101372  54.0687274
   7.9678292  26.5158482  54.1829640   0.9280894  31.9076903  50.9122118
   0.8551065  32.7131874  51.4241423   0.4858287  32.1068869  50.0870140
   4.0267324  16.9543302  47.0659145   4.5236023  16.2013265  46.7460215
   3.2554305  16.9907619  46.5002354  11.8797081  22.6583668  48.7077437
  11.8686957  23.5408383  48.3371370  11.0114461  22.3055219  48.5131974
   3.3879578  31.8063737  53.0680277   4.1007550  32.4411202  52.9956178
   2.8969606  31.9027603  52.2520279   5.1097104  25.7114989  44.6397568
   4.1753383  25.8316452  44.4702273   5.2873773  24.8087456  44.3757578
   8.4969656  21.5532309  45.1747603   8.9630108  22.3860300  45.1007905
   8.9477156  21.0877290  45.8792861   6.5645887  27.8976130  42.1733755
   6.8405731  27.7832725  43.0827629   5.6950386  27.4993615  42.1345928
   6.2392777  22.1102788  51.7138398   5.5864227  22.3578695  51.0590851
   6.6173157  21.2966926  51.3800875   3.1999951  32.1462481  45.8166568
   3.3822345  31.3284137  46.2794321   4.0232937  32.3630173  45.3791458
   3.5342116  31.0730666  43.0781617   4.0629883  30.5623121  42.4651779
   3.7970336  30.7573196  43.9427150   2.2880350  22.8522599  58.2004435
   1.6120987  22.7516728  58.8706810   3.1107984  22.6961812  58.6640432
   1.0303133  34.1589526  52.4362051   1.5821441  34.3221148  53.2011136
   1.3709326  34.7493964  51.7642076   5.8814007  28.9850784  58.2910705
   6.4253911  29.5980742  57.7965660   5.3000852  29.5430362  58.8077718
   4.1671520  32.1071502  49.4225733   4.0422660  31.3061242  48.9136679
   4.8250611  32.6017695  48.9339703   6.2306429  29.9080522  51.0505283
   5.2836764  29.7885873  50.9783610   6.5789202  29.0203020  51.1331545
   3.2352862  29.7033238  47.2509635   3.0877824  28.7749945  47.4317206
   4.0606355  29.7253329  46.7666711   6.8386984  30.5261797  48.3374508
   7.7633531  30.3204658  48.1998959   6.6702287  30.2778198  49.2463850
   3.2314376  17.5571076  42.2441753   3.4477991  18.4395714  41.9430581
   2.7508443  17.1657289  41.5147395   6.6282300  31.0447464  43.6936600
   6.8019177  30.4793887  42.9410452   7.1211191  31.8448359  43.5116090
  12.4821691  23.8083887  45.3126899  12.9252837  23.0591212  44.9146023
  11.6048201  23.7994023  44.9300631   7.6157472  30.3614229  40.7933498
   8.3108377  30.9820921  41.0120813   7.9580623  29.5109580  41.0685876
   9.5148896  27.8113934  42.3220829  10.0400220  28.1501207  41.5970149
   9.4271248  26.8760949  42.1383963   1.1768944  31.7248008  54.4510705
   1.4856071  31.4797155  55.3233405   1.9744426  31.9294646  53.9629576
   1.1989556  33.8785917  46.6816082   0.7594547  33.3862296  47.3748939
   1.9497673  33.3358885  46.4408157   9.2042802  28.4446838  57.6272027
   8.4138345  28.4270977  57.0876526   8.9676156  28.9835131  58.3821063
   9.3240677  25.2939304  54.9404755   9.3738682  25.1289312  55.8820278
   9.2154600  24.4266563  54.5502636   6.6144439  21.2770232  56.2564062
   7.5154302  21.1376697  55.9648060   6.6892414  21.4424687  57.1962239
  10.8258873  27.7136246  55.1846777  10.5343682  28.0766226  56.0210238
  10.2131005  27.0003254  55.0060109  12.0254556  25.2789125  47.7049347
  12.8601447  25.7178930  47.8686907  12.1613685  24.8027779  46.8857593
   9.0746062  22.8368860  53.6526835   9.5500183  23.0296507  52.8445686
   8.1511627  22.8928046  53.4070218   1.7072341  30.4675980  39.7008592
   1.1346308  31.0866167  39.2479063   2.2805135  31.0175342  40.2348514
   7.7747731  19.7134620  51.8855140   8.7265154  19.8132718  51.9067364
   7.6051181  18.9212889  52.3953225   5.7962110  16.7990204  52.0714541
   5.2012042  17.0795216  51.3761030   5.5111807  17.2884105  52.8431282
   4.9269601  30.7513130  40.8317174   5.8600274  30.6858692  41.0350049
   4.8392813  31.5869397  40.3731707   7.5557617  30.0679001  37.7921121
   7.4771249  29.7338864  38.6856879   8.3767284  30.5600769  37.7912594
  10.2535809  22.9340740  50.9997440  10.2212129  21.9956741  51.1857124
  10.8636432  23.0124777  50.2663265   2.0919139  21.8036793  37.0424644
   3.0378244  21.6743001  37.1113062   1.7133384  21.0651455  37.5194072
  10.4030297  19.7251783  51.0455723   9.8869346  18.9410240  50.8585652
  11.2870246  19.3970500  51.2102243   8.0641024  13.4692799  47.0051536
   7.8665845  13.1607887  47.8894868   8.6740730  14.1954438  47.1349466
  16.0712358  23.9956747  50.1403477  16.8015747  23.7342035  50.7011180
  15.4619304  23.2585469  50.1805545  14.1527655  22.1364609  50.7377928
  13.4260819  22.0020574  50.1294420  13.7374942  22.4441438  51.5434646
   1.9757832  25.8554539  58.5025301   2.8960841  26.0333138  58.6965348
   1.9407415  24.9110585  58.3505000   7.1993478  15.4602231  44.2626731
   6.6192147  16.1187035  43.8804784   6.9329410  14.6379576  43.8514149
   5.6497044  14.8607289  46.4648052   6.1496822  14.9723823  45.6562371
   6.2932652  14.5568342  47.1048860   5.9818356  17.6202321  43.3183080
   5.0944211  17.9051972  43.1003275   6.3972345  17.4596085  42.4710357
   9.3332892  17.6448842  47.0337419  10.1093282  18.1345295  47.3062036
   8.6081026  18.0706897  47.4909288  11.7705450  18.3576462  48.0911360
  12.3649941  18.1172198  47.3804668  11.8432034  17.6383592  48.7184896
   5.1261569  27.3846996  37.4131100   5.8297419  27.5896999  38.0288755
   4.4024218  27.9523758  37.6780183   5.9559379  23.1356857  43.5333370
   5.8994581  23.5925409  42.6941002   6.5087722  22.3747542  43.3556213
   9.7664185  18.9246589  44.3583489   9.5101120  18.5243225  45.1891697
   9.1417053  19.6390383  44.2333629  14.0776523  21.6642663  46.8654781
  13.5176081  21.7335852  47.6386343  13.4720027  21.4883647  46.1454277
   7.0348267  27.8229525  39.4629560   7.8693870  27.3910724  39.2807035
   6.8732609  27.6511539  40.3906454   6.6894159  24.3261639  40.8285899
   6.6342963  24.1605910  39.8874343   6.0640214  25.0337672  40.9848089
   4.0040066  26.6310551  60.1539462   4.8731226  26.8051203  59.7926097
   3.5246817  27.4504967  60.0315191  15.6632542  38.3399176  49.5584737
  16.3010952  38.2205924  48.8548077  15.5453385  39.2880020  49.6172689
  12.4722248  38.2926605  49.4946261  12.1340759  38.1767669  48.6066796
  13.3412016  37.8917770  49.4747267   8.3309064  40.1462081  45.4843152
   7.7673929  40.0552018  44.7159440   8.2161459  39.3261985  45.9645645
  12.9542031  39.4461456  55.4532467  12.9430672  39.0514255  54.5812970
  13.1162670  38.7127529  56.0466238   5.8773496  41.6413273  48.3227373
   6.6694787  41.3004097  47.9073672   6.1170146  41.7508248  49.2429526
  13.9108622  43.8133049  40.7957617  13.2596602  44.3987129  40.4091631
  14.7052985  44.3439244  40.8552655   7.8364249  40.9022186  41.1944751
   8.6095125  40.3551173  41.0557627   8.1889648  41.7666435  41.4059213
   9.6749292  42.2298568  54.4011651   9.3839158  43.1344199  54.2858317
  10.3106276  42.2715096  55.1155720  10.6005499  39.6075417  50.9913010
  11.1969071  39.3831439  50.2769973  10.6580470  38.8660162  51.5938458
  10.1730527  37.0614852  38.8263201  10.4256048  36.5396373  38.0646664
   9.2355086  36.8980997  38.9289885  15.2173810  36.0650630  46.6337945
  16.0036899  35.6470053  46.2828362  15.4812514  36.9696722  46.8019593
  15.3883887  41.5023481  41.3326601  14.7529720  41.5758107  42.0447506
  15.0581294  42.0917079  40.6545681  20.6182237  36.0025864  47.5370923
  21.3507409  35.4325080  47.7708753  19.8621593  35.6147464  47.9777429
   9.8926816  38.9642958  41.0287576   9.7763074  38.2887861  41.6968661
  10.0029076  38.4775332  40.2119729  12.2358357  38.4253105  44.7334266
  11.8716564  37.8983726  45.4447187  13.0925473  38.0351574  44.5600751
  18.1407658  29.7147438  51.9965532  17.8090982  30.5842849  51.7726747
  17.5453271  29.3983722  52.6759562  11.8763844  33.4543005  39.7295614
  12.0438246  34.3223241  40.0966085  11.6861013  33.6170286  38.8056903
  14.6339177  41.9159984  51.3961444  14.3339900  42.8185022  51.2877252
  14.2890237  41.6492167  52.2482597   8.0851659  38.3673780  47.4298149
   7.1602155  38.2349995  47.6375841   8.3336072  39.1468000  47.9268091
  18.0336321  34.4342524  49.0758882  17.1253198  34.3657932  48.7817643
  17.9823917  34.9114469  49.9040707  11.8553065  35.9100662  40.7142281
  11.7352690  36.3557713  41.5527761  11.1605653  36.2585980  40.1555819
   5.4460470  38.0107054  48.2641938   5.5752851  38.2641533  49.1781350
   4.7657921  38.6034762  47.9446593   9.6159957  48.6804304  44.3632412
   9.5383987  49.6312129  44.4420893   9.0121601  48.3350176  45.0207338
  12.1077187  35.8532169  57.0193779  11.3310521  36.4126090  57.0096644
  12.7467750  36.3388952  57.5408649  19.8997967  32.6358962  50.8536756
  19.2572348  32.9291495  50.2076550  19.3952896  32.5211883  51.6589952
  17.5538131  36.3822135  41.5422615  18.4655987  36.6149522  41.3670312
  17.0447778  36.9659180  40.9797694  10.3623559  38.6617623  56.5811746
  11.1038243  39.2002667  56.3046570   9.6560544  39.2883912  56.7383298
  15.8378899  40.8046763  55.1783908  16.2462255  40.3629174  54.4338540
  15.1156160  40.2299391  55.4318100  12.1909969  35.7419370  52.5517464
  13.0371164  36.1658784  52.6952113  12.1308606  35.0852994  53.2456028
  16.1607713  41.3647954  48.9336196  15.5316576  41.5293668  48.2312264
  15.7733375  41.7789563  49.7047160  20.0396945  42.3002392  46.2880560
  19.3547983  42.6801293  45.7377593  20.1240794  42.9097718  47.0212508
  15.3409414  33.4023738  54.2098638  15.0970346  34.1565799  53.6732914
  15.6169345  33.7809086  55.0445885  17.2947877  39.9462351  52.8875904
  17.5064772  40.5894111  52.2110285  17.2477625  39.1124667  52.4197834
  14.8974106  32.5580171  49.7912476  14.0358585  32.8561425  50.0829213
  14.9236540  32.7750570  48.8593508  11.7135675  41.1022362  46.1986281
  12.1774021  41.3810065  45.4090904  11.4492473  40.2005807  46.0159372
   8.6059756  40.6493843  49.1366045   9.1761113  41.0781112  48.4983529
   9.1967868  40.3676428  49.8350230  10.6504561  37.2245514  43.0075847
  11.3528605  37.6766558  43.4749773  10.3185190  36.5829333  43.6355740
   9.0984923  35.8157271  57.3827056   8.4683583  36.4973552  57.6162453
   8.9921011  35.7040353  56.4380194   4.3929895  35.4829067  48.3092980
   3.6028949  35.7386595  47.8333091   4.8841143  36.2977405  48.4145021
  18.4093705  42.8234306  51.0598261  19.2311148  42.4214493  50.7780943
  18.4056108  42.7202540  52.0114377   6.3444641  35.8473646  45.2676457
   5.5475804  35.9592340  45.7859953   6.1170233  36.1860298  44.4017347
  12.1750308  42.3718349  53.2158972  12.2394741  42.8338757  54.0517143
  11.4661232  41.7415714  53.3441281   2.6767598  35.7359557  50.7407971
   2.9275637  36.6206567  51.0065547   3.2127147  35.5564159  49.9683063
  26.4999698  39.1673055  47.4083232  25.7463406  38.5980453  47.2527237
  26.6347239  39.1335719  48.3553867  11.8898326  44.0386457  43.0837952
  11.7544001  44.8837993  43.5122800  12.4308138  44.2405735  42.3203886
   8.3765665  30.1178037  59.7452307   7.9832611  29.5644235  60.4199951
   9.1931806  30.4288615  60.1358825   5.3427723  41.5561895  43.6565877
   5.8552244  42.3505145  43.8071442   5.9950436  40.8588185  43.5899478
   7.1522608  44.6727651  45.7388630   7.3289236  45.5945616  45.5509614
   7.9479441  44.3586070  46.1683010  11.2933626  31.5335916  57.3372564
  12.0343340  32.1343069  57.2577026  11.5251549  30.7913554  56.7790606
   6.4374964  36.7192283  55.6150793   6.3228480  35.8177540  55.9157892
   5.5819482  36.9655980  55.2635610  13.5166802  44.6610023  57.2138294
  13.0730656  43.8746402  56.8959198  14.1784016  44.8489174  56.5482185
   8.2753923  46.1905825  51.7398972   8.8261349  46.0622888  50.9675966
   7.4365399  46.4900714  51.3893865  15.6148040  44.9412823  55.2419695
  15.5966516  45.7621704  54.7499964  16.5367960  44.8166899  55.4669836
  12.0721094  42.4556953  56.0843204  12.6049431  41.6945241  55.8542512
  11.5435176  42.1630605  56.8267358  15.2390789  27.5617019  51.6136845
  14.8955059  28.4518660  51.5375956  15.6069752  27.3718676  50.7506430
   3.3076640  39.8850549  44.4325447   4.1451862  40.2947558  44.2159155
   3.4854908  38.9449991  44.4025641  15.2041072  37.5525630  40.1209280
  14.6887696  38.3230235  40.3597668  14.9318381  36.8790766  40.7442342
  12.7888183  32.3975331  45.1794519  11.9329779  32.0082181  45.0000158
  13.2015135  32.4767291  44.3194304  14.3187330  29.9321674  49.5786079
  13.8152125  29.8951809  48.7653884  14.6117937  30.8414417  49.6382735
  10.5630216  30.0160404  48.5852260  11.4283212  29.8203212  48.2258150
  10.6307725  29.7870755  49.5121617  20.1775346  40.3057985  42.0562454
  19.4004789  39.9669144  41.6117616  20.8566827  40.3110608  41.3817419
  14.9927375  35.4252722  41.9469062  14.6877511  35.7398871  42.7979205
  15.9457817  35.5034142  41.9896395  13.4373807  41.5842945  43.5962016
  12.9095169  40.8495705  43.2835253  12.9361310  42.3617622  43.3501984
  18.4166653  39.7791966  48.7129062  17.7590328  40.4691227  48.8009191
  19.2207052  40.1688398  49.0563048   8.1692535  32.2462612  45.9568627
   8.7436287  32.0237793  45.2241820   8.7563517  32.3151306  46.7097228
  17.2272112  38.1336338  46.7633004  17.7403994  38.7666330  47.2654713
  17.8773336  37.5337534  46.3976364   8.4962122  34.2767073  39.9764512
   7.6599434  34.6141759  40.2973787   8.3566892  34.1416052  39.0391649
  10.4715202  29.1203860  44.6843697   9.8179615  28.8052878  44.0600311
  10.4295677  28.4979601  45.4103519  11.5826407  39.4023156  36.5996989
  10.6753469  39.1712409  36.7988138  12.0797439  38.6060775  36.7870970
  14.4894486  48.1120663  39.5193675  13.8156185  48.4152360  40.1278633
  14.8760308  48.9149743  39.1699132  13.7052943  35.6085794  49.0091344
  12.7875504  35.8300741  48.8513032  14.1213086  35.6832105  48.1503052
  14.4887991  37.0077210  44.1394024  15.2359810  37.5198607  43.8301146
  14.7579580  36.6861262  44.9998418  12.7614641  39.5035750  41.1220979
  11.8525860  39.2194783  41.2193448  12.7909725  39.9234829  40.2624286
  17.9933908  43.1142340  44.8912146  17.5396235  42.2733250  44.9477337
  17.3627875  43.7503738  45.2286926  16.9366828  34.0434326  46.1212814
  16.1989585  33.5311712  46.4523056  17.1893601  33.6034708  45.3096091
  16.4366847  44.9518837  45.8261964  16.7289822  45.5123894  45.1074330
  16.9465468  45.2447398  46.5815124  17.0378455  26.8210578  46.7154583
  17.3437332  25.9607941  46.4280498  17.7631060  27.4128198  46.5153577
   3.3302811  37.2241265  45.1036181   3.1327211  36.6310625  44.3787247
   2.7749475  36.9193475  45.8212120  11.3099535  37.1164371  47.2230774
  11.3648145  36.1638207  47.1473251  10.4990737  37.2723810  47.7072072
  12.4590729  41.0444494  38.4609057  12.0210158  40.3280353  38.0014695
  13.2001169  41.2720609  37.8994149   9.2491895  35.7341431  44.9821153
   8.4359760  36.0335601  45.3886345   9.7450889  35.3397120  45.6995635
  11.4000473  45.7299188  46.9155418  11.3576651  45.9560034  45.9863950
  12.3163171  45.4962562  47.0641219  14.8466106  36.1983255  53.8136047
  15.2015494  36.4254728  54.6730513  15.4938238  36.5301632  53.1913302
  20.5763843  39.3201691  44.5185376  20.4381742  39.5103287  43.5906565
  20.2200062  40.0821074  44.9753427   8.7405969  33.3059786  50.5982388
   9.3805349  33.1648545  49.9005351   7.9083500  33.0194300  50.2220990
  20.6033223  41.3878218  49.5296647  21.0369730  41.2953507  50.3779701
  21.3164804  41.3635719  48.8916663   9.5166273  42.6062217  46.7117380
  10.3106872  42.1112537  46.5099955   8.8057966  42.0780080  46.3485086
  14.3361118  44.9880312  51.0629748  14.3898140  45.5571249  51.8307464
  13.4675899  45.1582197  50.6983785   5.8249037  36.7505298  42.7877133
   4.8946625  36.6889754  43.0047095   5.9206509  36.2281251  41.9913774
   5.7434586  33.2760111  45.3755375   6.0041403  34.1905445  45.2664535
   6.5651758  32.8084554  45.5251988   7.2159511  34.6897868  52.5454199
   7.8882565  34.4815231  51.8966848   6.3889298  34.4919954  52.1059432
  21.4648773  41.4301919  52.0629533  21.6584663  42.3347729  52.3088808
  21.3649391  40.9709338  52.8968118  13.1185083  31.3159809  54.5619860
  12.4712998  32.0149759  54.4684336  13.8886099  31.7495953  54.9296108
  16.5263881  41.5808662  57.6370413  16.3749388  41.3519213  56.7200497
  16.5168561  42.5379263  57.6501758  13.2949218  39.1540574  52.6216680
  14.2241278  39.3051734  52.4485647  12.8740248  39.2424595  51.7665326
  12.0937549  43.1791239  50.3915217  11.9548635  42.8110023  51.2641156
  11.3052146  43.6938878  50.2199175  12.6885701  48.2800335  41.7340754
  12.8637457  47.8088378  42.5486377  12.0018489  48.9066101  41.9622015
  13.6442765  42.5572841  47.7804055  13.3092597  42.5173611  48.6761705
  13.1446710  41.8917557  47.3074465   7.6187008  37.9640471  53.3056636
   7.4806806  37.2320710  53.9068175   8.5291932  37.8749372  53.0240824
  16.5801956  39.9028876  38.0541115  15.9631127  39.1775704  37.9574168
  16.1118445  40.6638236  37.7108189  10.2469309  37.6760431  52.7940316
  10.9568928  37.0353623  52.7526934  10.2038617  37.9273326  53.7166497
  18.2356088  44.6127784  55.7146895  18.1768634  43.9287004  55.0477478
  18.6375606  45.3546774  55.2627521   8.9598243  34.6625649  54.6135955
   8.4235600  34.2116387  55.2657552   8.3714952  34.7971557  53.8706420
   7.2546787  51.4289698  48.5080614   7.4943385  52.0608222  49.1859633
   6.4115983  51.0777738  48.7945973   8.3700502  34.1214300  37.1762419
   7.4929968  34.0003101  36.8124666   8.8458255  33.3300378  36.9241308
  18.2373495  42.5767368  53.9460875  17.3500274  42.2393290  54.0687274
  18.8072046  41.8450399  54.1829640   4.6937364  33.7981656  51.6988950
   4.6095553  33.1907326  50.9639360   3.8720071  34.2890675  51.6998446
  11.7674649  47.2368820  50.9122118  11.6944820  48.0423792  51.4241423
  11.3252042  47.4360786  50.0870140  11.5564428  46.4740590  44.4224940
  10.7731950  47.0162271  44.5163164  12.2557173  46.9914570  44.8219181
  14.8661078  32.2835220  47.0659145  15.3629778  31.5305182  46.7460215
  14.0948060  32.3199537  46.5002354  22.7190836  37.9875585  48.7077437
  22.7080712  38.8700301  48.3371370  21.8508215  37.6347136  48.5131974
  14.2273332  47.1355654  53.0680277  14.9401304  47.7703119  52.9956178
  13.7363361  47.2319520  52.2520279  15.9490859  41.0406907  44.6397568
  15.0147138  41.1608370  44.4702273  16.1267527  40.1379374  44.3757578
  11.4496047  34.4252603  46.7930830  11.0793835  33.8723643  47.4811735
  11.9455139  33.8210736  46.2405830  19.3363410  36.8824226  45.1747603
  19.8023862  37.7152218  45.1007905  19.7870911  36.4169208  45.8792861
   9.2785246  44.8850098  53.8885848   9.9794705  45.5186581  54.0415242
   8.8080361  45.2264829  53.1281487  17.4039641  43.2268048  42.1733755
  17.6799485  43.1124642  43.0827629  16.5344140  42.8285533  42.1345928
  17.3080073  29.2504813  49.2138504  16.3943153  29.4809040  49.3820711
  17.7373174  29.3343257  50.0652536  17.0786532  37.4394705  51.7138398
  16.4257982  37.6870613  51.0590851  17.4566911  36.6258844  51.3800875
  14.0393705  47.4754399  45.8166568  14.2216100  46.6576054  46.2794321
  14.8626691  47.6922091  45.3791458  14.3735871  46.4022584  43.0781617
  14.9023637  45.8915038  42.4651779  14.6364090  46.0865114  43.9427150
  13.1274105  38.1814516  58.2004435  12.4514742  38.0808646  58.8706810
  13.9501738  38.0253730  58.6640432   4.8752964  44.4186453  50.8216950
   5.4606400  43.6730141  50.9544854   4.6777802  44.7290410  51.7053614
   7.7291619  47.4537700  45.8379393   7.0601994  47.9383828  45.3543433
   7.5904489  47.7006921  46.7522771  11.8696887  49.4881444  52.4362051
  12.4215195  49.6513065  53.2011136  12.2103081  50.0785882  51.7642076
   6.8461381  31.8356594  53.0383936   6.9102707  32.6971425  52.6261333
   6.7828501  31.2230595  52.3056294   6.3213653  33.9079726  56.6856970
   6.9485692  33.5256804  57.2994494   5.4641572  33.6893928  57.0512662
  16.7207762  44.3142701  58.2910705  17.2647666  44.9272660  57.7965660
  16.1394607  44.8722280  58.8077718   3.0979196  35.7156155  42.6175325
   3.3932637  34.8066834  42.5642379   2.1967232  35.6943895  42.2956327
  15.0065275  47.4363419  49.4225733  14.8816414  46.6353159  48.9136679
  15.6644366  47.9309613  48.9339703   6.6273443  33.7912152  48.6002873
   5.9060029  34.4048120  48.4610347   7.4166699  34.3269917  48.5219519
  17.0700183  45.2372439  51.0505283  16.1230519  45.1177791  50.9783610
  17.4182956  44.3494938  51.1331545   9.4299756  31.1266578  54.8743525
   9.9534158  31.3728875  55.6369834   9.2112090  31.9586613  54.4546663
   4.8267038  33.3970253  42.7414650   4.4979744  32.5167632  42.5589756
   5.1806408  33.3417922  43.6291039  14.0746616  45.0325156  47.2509635
  13.9271579  44.1041863  47.4317206  14.9000110  45.0545246  46.7666711
   7.9408861  33.6843223  43.1090128   8.2804933  34.2129144  42.3868736
   8.3880981  34.0223629  43.8848694  17.6780738  45.8553714  48.3374508
  18.6027286  45.6496576  48.1998959  17.5096042  45.6070116  49.2463850
  10.6352301  32.0680273  52.5593196  10.2949122  31.2688087  52.9613876
   9.9291308  32.3681984  51.9870029  11.2868773  29.1529586  51.0120519
  12.1094843  28.6790064  50.8899409  11.5306837  29.9320070  51.5119205
   9.9277008  32.1817844  41.3083420  10.6485370  32.5599097  40.8047137
   9.3042312  32.9006721  41.4118398  14.0708131  32.8862993  42.2441753
  14.2871745  33.7687631  41.9430581  13.5902198  32.4949207  41.5147395
   8.8107352  35.8448707  48.8212497   8.6651933  36.1589010  49.7136779
   8.3332556  36.4633607  48.2683396  10.6703735  32.8351255  48.8693387
  10.6565304  31.9392348  48.5325685  11.3876163  32.8421918  49.5031673
  12.5229866  33.2688595  50.9146514  12.2647643  34.1905665  50.9130845
  11.9914906  32.8719029  51.6046978  17.4676054  46.3739382  43.6936600
  17.6412932  45.8085804  42.9410452  17.9604946  47.1740277  43.5116090
   3.2853014  38.3854051  51.7600159   2.7406482  39.1613859  51.8920433
   4.1632364  38.7324855  51.6019280  10.0740631  31.7165635  44.1380957
  10.1956542  30.7882281  44.3371845   9.7842673  31.7304321  43.2259272
  12.9431821  29.4020545  47.2747677  12.9653518  29.4659878  46.3199656
  13.3599880  28.5625054  47.4688183  23.3215446  39.1375805  45.3126899
  23.7646592  38.3883130  44.9146023  22.4441956  39.1285941  44.9300631
  18.4551227  45.6906146  40.7933498  19.1502132  46.3112839  41.0120813
  18.7974377  44.8401497  41.0685876   4.0719036  37.5123947  54.6530315
   3.3300772  37.6606583  55.2394946   3.7511780  37.7732213  53.7897065
  20.3542650  43.1405852  42.3220829  20.8793974  43.4793125  41.5970149
  20.2665003  42.2052867  42.1383963  12.0162699  47.0539925  54.4510705
  12.3249825  46.8089072  55.3233405  12.8138181  47.2586564  53.9629576
  12.0383311  49.2077835  46.6816082  11.5988301  48.7154214  47.3748939
  12.7891428  48.6650803  46.4408157   4.5175650  45.3989376  46.6840710
   5.3433670  45.0993148  46.3039354   4.1669702  44.6296998  47.1330499
   9.4857183  44.7515844  48.7538384   8.8637192  44.0886549  48.4540611
  10.1562050  44.7776976  48.0712031   2.7184255  43.3175702  47.6429644
   1.8816163  42.8897877  47.4613645   2.6907900  43.5108146  48.5800435
   9.5581710  33.2297632  58.3470890   9.6069866  34.1059755  57.9648659
  10.1004225  32.6875025  57.7742533  20.0436556  43.7738755  57.6272027
  19.2532100  43.7562894  57.0876526  19.8069911  44.3127049  58.3821063
  20.1634431  40.6231222  54.9404755  20.2132436  40.4581229  55.8820278
  20.0548355  39.7558481  54.5502636   9.0470690  43.3019768  42.2296844
   9.1958810  43.9855232  41.5763517   9.8537133  43.2824858  42.7446300
  17.4538194  36.6062150  56.2564062  18.3548056  36.4668615  55.9648060
  17.5286168  36.7716605  57.1962239  11.7880999  33.9829005  55.1017248
  10.9184308  34.2762571  54.8299837  12.0240479  34.5669450  55.8224512
  21.6652628  43.0428163  55.1846777  21.3737436  43.4058144  56.0210238
  21.0524759  42.3295172  55.0060109  22.8648310  40.6081043  47.7049347
  23.6995202  41.0470847  47.8686907  23.0007439  40.1319696  46.8857593
  19.9139816  38.1660778  53.6526835  20.3893938  38.3588424  52.8445686
  18.9905382  38.2219964  53.4070218   6.8023323  39.3284945  43.2357913
   6.5569365  38.4247275  43.4338123   6.9719237  39.3302096  42.2937391
  14.4920033  30.2008622  52.6182669  15.0101977  30.9369648  52.2929157
  14.1375165  30.5072615  53.4529428   6.0718970  35.0613303  40.7344075
   5.3788215  35.1357658  40.0784110   5.8270722  34.2973646  41.2565591
  14.7432627  26.6208904  48.1383565  15.0234381  25.9532093  48.7643992
  15.5283234  26.8138000  47.6258229  12.5466095  45.7967898  39.7008592
  11.9740062  46.4158085  39.2479063  13.1198889  46.3467260  40.2348514
  18.6141485  35.0426538  51.8855140  19.5658908  35.1424636  51.9067364
  18.4444936  34.2504807  52.3953225  16.6355865  32.1282121  52.0714541
  16.0405797  32.4087134  51.3761030  16.3505561  32.6176022  52.8431282
  15.7663355  46.0805048  40.8317174  16.6994028  46.0150610  41.0350049
  15.6786568  46.9161315  40.3731707  18.3951372  45.3970918  37.7921121
  18.3165003  45.0630782  38.6856879  19.2161039  45.8892686  37.7912594
  21.0929563  38.2632658  50.9997440  21.0605883  37.3248658  51.1857124
  21.7030187  38.3416694  50.2663265  12.9312894  37.1328711  37.0424644
  13.8771999  37.0034919  37.1113062  12.5527139  36.3943373  37.5194072
  21.2424051  35.0543701  51.0455723  20.7263100  34.2702158  50.8585652
  22.1264000  34.7262418  51.2102243  18.9034778  28.7984717  47.0051536
  18.7059600  28.4899805  47.8894868  19.5134484  29.5246356  47.1349466
  26.9106113  39.3248665  50.1403477  27.6409501  39.0633953  50.7011180
  26.3013058  38.5877387  50.1805545  24.9921410  37.4656527  50.7377928
  24.2654574  37.3312492  50.1294420  24.5768697  37.7733356  51.5434646
  12.8151586  41.1846457  58.5025301  13.7354596  41.3625056  58.6965348
  12.7801169  40.2402502  58.3505000  11.1155811  35.0578687  36.9779529
  10.2087266  34.7611800  37.0542243  11.3931792  34.7608505  36.1113816
   2.0333751  36.3785051  47.4278576   1.7136536  35.5250359  47.1352950
   1.4867180  36.5933629  48.1836543   5.8113659  39.0947492  51.1448082
   6.0299669  40.0264599  51.1636116   6.2239433  38.7355466  51.9302886
  12.7317877  29.6015577  43.1323771  11.9218605  29.2562662  43.5079017
  13.4202294  29.2923121  43.7211382  14.6608425  28.6793624  44.7548067
  15.2139464  29.0989077  45.4138090  14.8978511  27.7529372  44.7971023
  10.6841524  34.6680697  60.5350831  10.5838251  35.6175054  60.4662922
  10.4663066  34.3398936  59.6626901   9.8854596  31.9165622  37.1191508
  10.7473760  32.2420521  37.3787326  10.0704940  31.1297118  36.6064574
   1.9022011  39.9987962  49.3971697   1.2085483  39.5841915  48.8841652
   2.6495002  40.0408499  48.8005116  18.0387232  30.7894149  44.2626731
  17.4585901  31.4478953  43.8804784  17.7723165  29.9671493  43.8514149
  16.4890798  30.1899206  46.4648052  16.9890577  30.3015741  45.6562371
  17.1326406  29.8860259  47.1048860  10.5472794  38.0977836  59.3515893
  10.0639876  38.8978196  59.5579782  10.6333733  38.1085781  58.3983337
   3.8158754  39.9306216  47.2737712   3.7929442  40.0293903  46.3219595
   4.1259390  40.7771367  47.5954878   6.4746132  41.9882371  51.3884327
   7.4289385  41.9566313  51.3214258   6.2758655  41.5272995  52.2034552
   7.0645514  40.5583487  53.9555124   7.8838403  41.0527566  53.9789962
   7.3382322  39.6415455  53.9272692  16.8212110  32.9494239  43.3183080
  15.9337965  33.2343890  43.1003275  17.2366099  32.7888003  42.4710357
  20.1726646  32.9740760  47.0337419  20.9487036  33.4637213  47.3062036
  19.4474780  33.3998814  47.4909288  22.6099205  33.6868379  48.0911360
  23.2043696  33.4464115  47.3804668  22.6825789  32.9675510  48.7184896
   4.8296361  47.5301990  48.4054524   4.6950829  46.7702391  47.8392522
   4.4128423  48.2542890  47.9383313  15.9655324  42.7138914  37.4131100
  16.6691174  42.9188916  38.0288755  15.2417972  43.2815676  37.6780183
  16.7953134  38.4648775  43.5333370  16.7388335  38.9217327  42.6941002
  17.3481476  37.7039460  43.3556213  20.6057940  34.2538507  44.3583489
  20.3494874  33.8535143  45.1891697  19.9810808  34.9682301  44.2333629
  24.9170278  36.9934580  46.8654781  24.3569836  37.0627770  47.6386343
  24.3113781  36.8175565  46.1454277   7.9865486  48.4271307  48.6172967
   7.8697871  49.3716740  48.5151657   7.1657933  48.1244869  49.0058766
  17.8742021  43.1521443  39.4629560  18.7087625  42.7202642  39.2807035
  17.7126364  42.9803457  40.3906454  17.5287913  39.6553556  40.8285899
  17.4736717  39.4897828  39.8874343  16.9033968  40.3629589  40.9848089
   2.3180428  34.8921621  54.6547321   2.9639292  34.3820575  55.1434546
   2.1097579  35.6290302  55.2290747  14.8433820  41.9602468  60.1539462
  15.7124980  42.1343120  59.7926097  14.3640572  42.7796885  60.0315191
  10.8384039  29.1561665  40.4071217  10.8262708  30.1003505  40.5639488
  11.7307461  28.9731811  40.1130679   9.0120001  49.0799569  51.8328896
   9.9147247  49.1123179  52.1495390   8.7857371  48.1500020  51.8475231
  10.7673603  47.8330556  48.4938974   9.8169234  47.8332417  48.3803346
  11.0706089  47.0863290  47.9775009  14.6536158  25.7504442  44.6617154
  13.8868554  25.1962929  44.8073837  15.0646863  25.8226311  45.5231306
   6.6577919  32.0389238  58.7522336   7.5209381  31.6826043  58.9625660
   6.0843330  31.7003133  59.4397740  26.5026296  53.6691094  49.5584737
  27.1404706  53.5497841  48.8548077  26.3847139  54.6171938  49.6172689
  23.3116002  53.6218522  49.4946261  22.9734514  53.5059587  48.6066796
  24.1805771  53.2209687  49.4747267  19.1702818  55.4753999  45.4843152
  18.6067683  55.3843936  44.7159440  19.0555213  54.6553903  45.9645645
  23.7935785  54.7753374  55.4532467  23.7824426  54.3806172  54.5812970
  23.9556425  54.0419447  56.0466238  16.7167250  56.9705190  48.3227373
  17.5088542  56.6296015  47.9073672  16.9563900  57.0800165  49.2429526
  24.7502377  59.1424966  40.7957617  24.0990357  59.7279047  40.4091631
  25.5446740  59.6731161  40.8552655  18.6758004  56.2314104  41.1944751
  19.4488880  55.6843091  41.0557627  19.0283403  57.0958353  41.4059213
  20.5143047  57.5590486  54.4011651  20.2232913  58.4636117  54.2858317
  21.1500031  57.6007013  55.1155720  21.4399253  54.9367334  50.9913010
  22.0362826  54.7123357  50.2769973  21.4974225  54.1952080  51.5938458
  21.0124282  52.3906770  38.8263201  21.2649802  51.8688291  38.0646664
  20.0748841  52.2272915  38.9289885  26.0567565  51.3942548  46.6337945
  26.8430654  50.9761971  46.2828362  26.3206269  52.2988640  46.8019593
  26.2277642  56.8315398  41.3326601  25.5923475  56.9050025  42.0447506
  25.8975048  57.4208997  40.6545681  31.4575992  51.3317781  47.5370923
  32.1901164  50.7616998  47.7708753  30.7015347  50.9439382  47.9777429
  20.7320571  54.2934876  41.0287576  20.6156829  53.6179779  41.6968661
  20.8422830  53.8067250  40.2119729  23.0752111  53.7545023  44.7334266
  22.7110319  53.2275644  45.4447187  23.9319227  53.3643492  44.5600751
  28.9801412  45.0439355  51.9965532  28.6484737  45.9134766  51.7726747
  28.3847025  44.7275639  52.6759562  22.7157598  48.7834922  39.7295614
  22.8832001  49.6515159  40.0966085  22.5254767  48.9462204  38.8056903
  25.4732932  57.2451901  51.3961444  25.1733655  58.1476940  51.2877252
  25.1283991  56.9784085  52.2482597  18.9245413  53.6965698  47.4298149
  17.9995910  53.5641912  47.6375841  19.1729826  54.4759917  47.9268091
  28.8730075  49.7634441  49.0758882  27.9646953  49.6949850  48.7817643
  28.8217671  50.2406386  49.9040707  22.6946819  51.2392580  40.7142281
  22.5746445  51.6849631  41.5527761  21.9999408  51.5877898  40.1555819
  16.2854224  53.3398972  48.2641938  16.4146605  53.5933451  49.1781350
  15.6051675  53.9326680  47.9446593  20.4553711  64.0096222  44.3632412
  20.3777741  64.9604047  44.4420893  19.8515355  63.6642094  45.0207338
  22.9470941  51.1824087  57.0193779  22.1704275  51.7418007  57.0096644
  23.5861504  51.6680870  57.5408649  30.7391722  47.9650880  50.8536756
  30.0966102  48.2583413  50.2076550  30.2346650  47.8503800  51.6589952
  28.3931885  51.7114053  41.5422615  29.3049742  51.9441440  41.3670312
  27.8841533  52.2951097  40.9797694  21.2017313  53.9909540  56.5811746
  21.9431998  54.5294584  56.3046570  20.4954299  54.6175829  56.7383298
  26.6772653  56.1338681  55.1783908  27.0856009  55.6921091  54.4338540
  25.9549915  55.5591308  55.4318100  23.0303723  51.0711288  52.5517464
  23.8764918  51.4950701  52.6952113  22.9702361  50.4144912  53.2456028
  27.0001468  56.6939872  48.9336196  26.3710330  56.8585586  48.2312264
  26.6127130  57.1081481  49.7047160  30.8790700  57.6294309  46.2880560
  30.1941738  58.0093211  45.7377593  30.9634549  58.2389636  47.0212508
  26.1803169  48.7315656  54.2098638  25.9364100  49.4857717  53.6732914
  26.4563099  49.1101004  55.0445885  28.1341631  55.2754268  52.8875904
  28.3458527  55.9186028  52.2110285  28.0871380  54.4416585  52.4197834
  25.7367860  47.8872089  49.7912476  24.8752339  48.1853343  50.0829213
  25.7630295  48.1042488  48.8593508  22.5529430  56.4314280  46.1986281
  23.0167775  56.7101983  45.4090904  22.2886228  55.5297724  46.0159372
  19.4453511  55.9785761  49.1366045  20.0154868  56.4073030  48.4983529
  20.0361623  55.6968346  49.8350230  21.4898316  52.5537432  43.0075847
  22.1922359  53.0058476  43.4749773  21.1578944  51.9121251  43.6355740
  19.9378677  51.1449189  57.3827056  19.3077338  51.8265469  57.6162453
  19.8314765  51.0332270  56.4380194  15.2323650  50.8120985  48.3092980
  14.4422704  51.0678513  47.8333091  15.7234897  51.6269322  48.4145021
  29.2487459  58.1526224  51.0598261  30.0704903  57.7506411  50.7780943
  29.2449862  58.0494458  52.0114377  17.1838395  51.1765564  45.2676457
  16.3869558  51.2884258  45.7859953  16.9563987  51.5152216  44.4017347
  23.0144063  57.7010267  53.2158972  23.0788495  58.1630674  54.0517143
  22.3054987  57.0707632  53.3441281  13.5161353  51.0651475  50.7407971
  13.7669391  51.9498485  51.0065547  14.0520901  50.8856077  49.9683063
  37.3393452  54.4964972  47.4083232  36.5857161  53.9272370  47.2527237
  37.4740993  54.4627637  48.3553867  22.7292080  59.3678375  43.0837952
  22.5937755  60.2129910  43.5122800  23.2701893  59.5697652  42.3203886
  19.2159420  45.4469954  59.7452307  18.8226366  44.8936153  60.4199951
  20.0325560  45.7580533  60.1358825  16.1821478  56.8853813  43.6565877
  16.6945998  57.6797063  43.8071442  16.8344191  56.1880103  43.5899478
  17.9916362  60.0019569  45.7388630  18.1682991  60.9237534  45.5509614
  18.7873196  59.6877988  46.1683010  22.1327381  46.8627834  57.3372564
  22.8737094  47.4634987  57.2577026  22.3645304  46.1205471  56.7790606
  17.2768719  52.0484201  55.6150793  17.1622234  51.1469458  55.9157892
  16.4213237  52.2947898  55.2635610  24.3560557  59.9901941  57.2138294
  23.9124411  59.2038320  56.8959198  25.0177770  60.1781092  56.5482185
  19.1147678  61.5197743  51.7398972  19.6655103  61.3914806  50.9675966
  18.2759154  61.8192632  51.3893865  26.4541795  60.2704741  55.2419695
  26.4360270  61.0913622  54.7499964  27.3761715  60.1458816  55.4669836
  22.9114849  57.7848871  56.0843204  23.4443186  57.0237159  55.8542512
  22.3828930  57.4922522  56.8267358  26.0784544  42.8908936  51.6136845
  25.7348813  43.7810578  51.5375956  26.4463506  42.7010594  50.7506430
  14.1470394  55.2142467  44.4325447  14.9845616  55.6239475  44.2159155
  14.3248662  54.2741909  44.4025641  26.0434827  52.8817548  40.1209280
  25.5281450  53.6522152  40.3597668  25.7712135  52.2082684  40.7442342
  23.6281938  47.7267248  45.1794519  22.7723534  47.3374099  45.0000158
  24.0408889  47.8059209  44.3194304  25.1581084  45.2613592  49.5786079
  24.6545880  45.2243727  48.7653884  25.4511691  46.1706334  49.6382735
  21.4023970  45.3452321  48.5852260  22.2676967  45.1495130  48.2258150
  21.4701479  45.1162673  49.5121617  31.0169101  55.6349902  42.0562454
  30.2398544  55.2961062  41.6117616  31.6960582  55.6402525  41.3817419
  25.8321130  50.7544640  41.9469062  25.5271265  51.0690789  42.7979205
  26.7851572  50.8326060  41.9896395  24.2767562  56.9134863  43.5962016
  23.7488923  56.1787623  43.2835253  23.7755064  57.6909539  43.3501984
  29.2560408  55.1083883  48.7129062  28.5984082  55.7983145  48.8009191
  30.0600807  55.4980315  49.0563048  19.0086289  47.5754529  45.9568627
  19.5830041  47.3529711  45.2241820  19.5957272  47.6443224  46.7097228
  28.0665866  53.4628256  46.7633004  28.5797748  54.0958248  47.2654713
  28.7167090  52.8629452  46.3976364  19.3355876  49.6058990  39.9764512
  18.4993189  49.9433677  40.2973787  19.1960646  49.4707970  39.0391649
  21.3108957  44.4495778  44.6843697  20.6573369  44.1344795  44.0600311
  21.2689431  43.8271519  45.4103519  22.4220162  54.7315073  36.5996989
  21.5147224  54.5004327  36.7988138  22.9191194  53.9352693  36.7870970
  25.3288241  63.4412580  39.5193675  24.6549939  63.7444277  40.1278633
  25.7154063  64.2441661  39.1699132  24.5446697  50.9377712  49.0091344
  23.6269259  51.1592659  48.8513032  24.9606841  51.0124022  48.1503052
  25.3281745  52.3369127  44.1394024  26.0753564  52.8490525  43.8301146
  25.5973335  52.0153180  44.9998418  23.6008395  54.8327668  41.1220979
  22.6919615  54.5486701  41.2193448  23.6303479  55.2526747  40.2624286
  28.8327663  58.4434258  44.8912146  28.3789990  57.6025168  44.9477337
  28.2021629  59.0795656  45.2286926  27.7760582  49.3726244  46.1212814
  27.0383339  48.8603630  46.4523056  28.0287356  48.9326625  45.3096091
  27.2760602  60.2810754  45.8261964  27.5683576  60.8415811  45.1074330
  27.7859222  60.5739315  46.5815124  27.8772210  42.1502496  46.7154583
  28.1831086  41.2899859  46.4280498  28.6024814  42.7420116  46.5153577
  14.1696566  52.5533182  45.1036181  13.9720965  51.9602543  44.3787247
  13.6143230  52.2485392  45.8212120  22.1493289  52.4456289  47.2230774
  22.2041899  51.4930125  47.1473251  21.3384491  52.6015728  47.7072072
  23.2984483  56.3736412  38.4609057  22.8603913  55.6572271  38.0014695
  24.0394924  56.6012527  37.8994149  20.0885649  51.0633348  44.9821153
  19.2753515  51.3627519  45.3886345  20.5844643  50.6689037  45.6995635
  22.2394227  61.0591105  46.9155418  22.1970406  61.2851952  45.9863950
  23.1556926  60.8254480  47.0641219  25.6859861  51.5275173  53.8136047
  26.0409249  51.7546646  54.6730513  26.3331992  51.8593550  53.1913302
  31.4157598  54.6493609  44.5185376  31.2775496  54.8395205  43.5906565
  31.0593817  55.4112992  44.9753427  19.5799724  48.6351704  50.5982388
  20.2199103  48.4940463  49.9005351  18.7477255  48.3486217  50.2220990
  31.4426977  56.7170136  49.5296647  31.8763484  56.6245425  50.3779701
  32.1558558  56.6927636  48.8916663  20.3560028  57.9354134  46.7117380
  21.1500626  57.4404455  46.5099955  19.6451720  57.4071998  46.3485086
  25.1754872  60.3172230  51.0629748  25.2291895  60.8863166  51.8307464
  24.3069654  60.4874115  50.6983785  16.6642791  52.0797216  42.7877133
  15.7340379  52.0181672  43.0047095  16.7600263  51.5573169  41.9913774
  16.5828340  48.6052029  45.3755375  16.8435158  49.5197362  45.2664535
  17.4045513  48.1376472  45.5251988  18.0553266  50.0189786  52.5454199
  18.7276319  49.8107148  51.8966848  17.2283052  49.8211872  52.1059432
  32.3042527  56.7593836  52.0629533  32.4978417  57.6639647  52.3088808
  32.2043145  56.3001256  52.8968118  23.9578838  46.6451727  54.5619860
  23.3106753  47.3441677  54.4684336  24.7279853  47.0787871  54.9296108
  27.3657636  56.9100579  57.6370413  27.2143142  56.6811131  56.7200497
  27.3562315  57.8671181  57.6501758  24.1342972  54.4832492  52.6216680
  25.0635032  54.6343652  52.4485647  23.7134002  54.5716513  51.7665326
  22.9331304  58.5083156  50.3915217  22.7942390  58.1401941  51.2641156
  22.1445900  59.0230796  50.2199175  23.5279456  63.6092253  41.7340754
  23.7031212  63.1380296  42.5486377  22.8412244  64.2358019  41.9622015
  24.4836519  57.8864759  47.7804055  24.1486352  57.8465529  48.6761705
  23.9840465  57.2209475  47.3074465  18.4580763  53.2932389  53.3056636
  18.3200561  52.5612628  53.9068175  19.3685686  53.2041289  53.0240824
  27.4195711  55.2320793  38.0541115  26.8024881  54.5067622  37.9574168
  26.9512199  55.9930154  37.7108189  21.0863064  53.0052348  52.7940316
  21.7962682  52.3645541  52.7526934  21.0432372  53.2565243  53.7166497
  29.0749842  59.9419702  55.7146895  29.0162388  59.2578922  55.0477478
  29.4769361  60.6838692  55.2627521  19.7991998  49.9917566  54.6135955
  19.2629355  49.5408305  55.2657552  19.2108706  50.1263475  53.8706420
  18.0940541  66.7581616  48.5080614  18.3337139  67.3900140  49.1859633
  17.2509738  66.4069656  48.7945973  19.2094257  49.4506218  37.1762419
  18.3323723  49.3295019  36.8124666  19.6852010  48.6592296  36.9241308
  29.0767250  57.9059286  53.9460875  28.1894028  57.5685208  54.0687274
  29.6465801  57.1742317  54.1829640  10.7296397  54.2383377  47.2703926
  11.4167437  53.9245108  46.6824942  10.5744525  55.1424742  46.9971178
  15.5331119  49.1273574  51.6988950  15.4489308  48.5199244  50.9639360
  14.7113825  49.6182592  51.6998446  22.6068403  62.5660738  50.9122118
  22.5338574  63.3715710  51.4241423  22.1645796  62.7652704  50.0870140
  22.3958183  61.8032508  44.4224940  21.6125705  62.3454188  44.5163164
  23.0950928  62.3206488  44.8219181  25.7054833  47.6127138  47.0659145
  26.2023532  46.8597100  46.7460215  24.9341814  47.6491454  46.5002354
  33.5584590  53.3167503  48.7077437  33.5474466  54.1992219  48.3371370
  32.6901970  52.9639054  48.5131974  25.0667087  62.4647572  53.0680277
  25.7795059  63.0995037  52.9956178  24.5757115  62.5611438  52.2520279
  26.7884613  56.3698825  44.6397568  25.8540892  56.4900287  44.4702273
  26.9661282  55.4671292  44.3757578  22.2889801  49.7544521  46.7930830
  21.9187589  49.2015561  47.4811735  22.7848894  49.1502654  46.2405830
  30.1757165  52.2116144  45.1747603  30.6417617  53.0444136  45.1007905
  30.6264665  51.7461126  45.8792861  20.1179000  60.2142016  53.8885848
  20.8188460  60.8478499  54.0415242  19.6474115  60.5556747  53.1281487
  28.2433396  58.5559965  42.1733755  28.5193240  58.4416560  43.0827629
  27.3737895  58.1577450  42.1345928  28.1473828  44.5796731  49.2138504
  27.2336907  44.8100958  49.3820711  28.5766929  44.6635175  50.0652536
  27.9180286  52.7686623  51.7138398  27.2651736  53.0162530  51.0590851
  28.2960666  51.9550761  51.3800875  24.8787460  62.8046316  45.8166568
  25.0609854  61.9867972  46.2794321  25.7020446  63.0214008  45.3791458
  25.2129625  61.7314501  43.0781617  25.7417392  61.2206956  42.4651779
  25.4757845  61.4157032  43.9427150  23.9667859  53.5106434  58.2004435
  23.2908496  53.4100563  58.8706810  24.7895493  53.3545648  58.6640432
  15.7146718  59.7478371  50.8216950  16.3000155  59.0022059  50.9544854
  15.5171557  60.0582327  51.7053614  18.5685373  62.7829618  45.8379393
  17.8995749  63.2675746  45.3543433  18.4298243  63.0298838  46.7522771
  10.3064373  52.3183971  49.5421393  10.3448472  51.7847562  50.3358512
   9.8004666  51.7919176  48.9232371  22.7090642  64.8173362  52.4362051
  23.2608950  64.9804983  53.2011136  23.0496835  65.4077799  51.7642076
  17.6855135  47.1648511  53.0383936  17.7496462  48.0263342  52.6261333
  17.6222255  46.5522513  52.3056294  17.1607408  49.2371644  56.6856970
  17.7879446  48.8548721  57.2994494  16.3035327  49.0185846  57.0512662
  27.5601516  59.6434619  58.2910705  28.1041420  60.2564577  57.7965660
  26.9788361  60.2014197  58.8077718  13.9372950  51.0448073  42.6175325
  14.2326392  50.1358751  42.5642379  13.0360986  51.0235812  42.2956327
  25.8459029  62.7655337  49.4225733  25.7210169  61.9645077  48.9136679
  26.5038120  63.2601530  48.9339703  17.4667197  49.1204070  48.6002873
  16.7453783  49.7340037  48.4610347  18.2560453  49.6561834  48.5219519
  27.9093938  60.5664357  51.0505283  26.9624273  60.4469708  50.9783610
  28.2576711  59.6786855  51.1331545  20.2693511  46.4558496  54.8743525
  20.7927913  46.7020793  55.6369834  20.0505844  47.2878531  54.4546663
  15.6660792  48.7262171  42.7414650  15.3373498  47.8459550  42.5589756
  16.0200163  48.6709839  43.6291039  24.9140371  60.3617073  47.2509635
  24.7665333  59.4333781  47.4317206  25.7393864  60.3837164  46.7666711
  18.7802615  49.0135140  43.1090128  19.1198688  49.5421062  42.3868736
  19.2274736  49.3515547  43.8848694  28.5174493  61.1845632  48.3374508
  29.4421040  60.9788493  48.1998959  28.3489796  60.9362033  49.2463850
  21.4746056  47.3972191  52.5593196  21.1342876  46.5980004  52.9613876
  20.7685062  47.6973902  51.9870029  22.1262528  44.4821504  51.0120519
  22.9488597  44.0081982  50.8899409  22.3700591  45.2611987  51.5119205
  20.7670762  47.5109762  41.3083420  21.4879125  47.8891015  40.8047137
  20.1436066  48.2298639  41.4118398  24.9101885  48.2154911  42.2441753
  25.1265500  49.0979549  41.9430581  24.4295952  47.8241124  41.5147395
  19.6501107  51.1740624  48.8212497  19.5045687  51.4880927  49.7136779
  19.1726310  51.7925525  48.2683396  21.5097489  48.1643172  48.8693387
  21.4959058  47.2684266  48.5325685  22.2269918  48.1713836  49.5031673
  23.3623620  48.5980512  50.9146514  23.1041398  49.5197583  50.9130845
  22.8308661  48.2010947  51.6046978  28.3069809  61.7031300  43.6936600
  28.4806686  61.1377722  42.9410452  28.7998700  62.5032194  43.5116090
  14.1246769  53.7145969  51.7600159  13.5800237  54.4905777  51.8920433
  15.0026119  54.0616773  51.6019280  20.9134385  47.0457552  44.1380957
  21.0350297  46.1174199  44.3371845  20.6236428  47.0596238  43.2259272
  23.7825576  44.7312463  47.2747677  23.8047273  44.7951796  46.3199656
  24.1993635  43.8916972  47.4688183  34.1609200  54.4667722  45.3126899
  34.6040346  53.7175048  44.9146023  33.2835710  54.4577859  44.9300631
  29.2944981  61.0198064  40.7933498  29.9895886  61.6404757  41.0120813
  29.6368132  60.1693415  41.0685876  14.9112791  52.8415865  54.6530315
  14.1694527  52.9898500  55.2394946  14.5905535  53.1024131  53.7897065
  31.1936405  58.4697769  42.3220829  31.7187729  58.8085042  41.5970149
  31.1058757  57.5344785  42.1383963  22.8556453  62.3831843  54.4510705
  23.1643580  62.1380990  55.3233405  23.6531935  62.5878482  53.9629576
  22.8777065  64.5369753  46.6816082  22.4382056  64.0446131  47.3748939
  23.6285182  63.9942720  46.4408157  15.3569404  60.7281294  46.6840710
  16.1827424  60.4285065  46.3039354  15.0063456  59.9588916  47.1330499
  20.3250937  60.0807762  48.7538384  19.7030947  59.4178467  48.4540611
  20.9955804  60.1068894  48.0712031  13.5578009  58.6467620  47.6429644
  12.7209918  58.2189794  47.4613645  13.5301655  58.8400063  48.5800435
  20.3975465  48.5589550  58.3470890  20.4463620  49.4351673  57.9648659
  20.9397979  48.0166943  57.7742533  30.8830311  59.1030673  57.6272027
  30.0925854  59.0854812  57.0876526  30.6463665  59.6418967  58.3821063
  31.0028186  55.9523139  54.9404755  31.0526191  55.7873147  55.8820278
  30.8942109  55.0850399  54.5502636  19.8864444  58.6311685  42.2296844
  20.0352565  59.3147150  41.5763517  20.6930888  58.6116775  42.7446300
  28.2931948  51.9354068  56.2564062  29.1941811  51.7960532  55.9648060
  28.3679923  52.1008522  57.1962239  22.6274753  49.3120922  55.1017248
  21.7578063  49.6054488  54.8299837  22.8634234  49.8961367  55.8224512
  32.5046382  58.3720081  55.1846777  32.2131191  58.7350062  56.0210238
  31.8918514  57.6587089  55.0060109  33.7042065  55.9372961  47.7049347
  34.5388956  56.3762765  47.8686907  33.8401194  55.4611614  46.8857593
  30.7533571  53.4952696  53.6526835  31.2287692  53.6880342  52.8445686
  29.8299136  53.5511881  53.4070218  17.6417077  54.6576863  43.2357913
  17.3963119  53.7539193  43.4338123  17.8112992  54.6594013  42.2937391
  25.3313787  45.5300539  52.6182669  25.8495731  46.2661566  52.2929157
  24.9768920  45.8364532  53.4529428  16.9112725  50.3905220  40.7344075
  16.2181970  50.4649575  40.0784110  16.6664477  49.6265564  41.2565591
  25.5826381  41.9500822  48.1383565  25.8628135  41.2824011  48.7643992
  26.3676988  42.1429917  47.6258229  23.3859850  61.1259816  39.7008592
  22.8133817  61.7450003  39.2479063  23.9592644  61.6759177  40.2348514
  29.4535240  50.3718456  51.8855140  30.4052663  50.4716553  51.9067364
  29.2838690  49.5796724  52.3953225  27.4749619  47.4574039  52.0714541
  26.8799551  47.7379052  51.3761030  27.1899316  47.9467940  52.8431282
  26.6057110  61.4096966  40.8317174  27.5387783  61.3442527  41.0350049
  26.5180322  62.2453233  40.3731707  29.2345126  60.7262836  37.7921121
  29.1558758  60.3922700  38.6856879  30.0554793  61.2184604  37.7912594
  31.9323318  53.5924575  50.9997440  31.8999638  52.6540576  51.1857124
  32.5423941  53.6708612  50.2663265  23.7706648  52.4620628  37.0424644
  24.7165753  52.3326836  37.1113062  23.3920893  51.7235290  37.5194072
  32.0817806  50.3835619  51.0455723  31.5656855  49.5994075  50.8585652
  32.9657755  50.0554335  51.2102243  29.7428533  44.1276634  47.0051536
  29.5453354  43.8191723  47.8894868  30.3528238  44.8538273  47.1349466
  37.7499867  54.6540582  50.1403477  38.4803256  54.3925870  50.7011180
  37.1406813  53.9169304  50.1805545  35.8315164  52.7948445  50.7377928
  35.1048328  52.6604410  50.1294420  35.4162451  53.1025273  51.5434646
  23.6545341  56.5138375  58.5025301  24.5748350  56.6916974  58.6965348
  23.6194924  55.5694420  58.3505000  21.9549566  50.3870605  36.9779529
  21.0481021  50.0903717  37.0542243  22.2325547  50.0900423  36.1113816
  12.8727506  51.7076968  47.4278576  12.5530290  50.8542276  47.1352950
  12.3260934  51.9225546  48.1836543  16.6507413  54.4239409  51.1448082
  16.8693423  55.3556517  51.1636116  17.0633187  54.0647384  51.9302886
  23.5711631  44.9307494  43.1323771  22.7612360  44.5854579  43.5079017
  24.2596048  44.6215038  43.7211382  25.5002180  44.0085541  44.7548067
  26.0533218  44.4280995  45.4138090  25.7372266  43.0821289  44.7971023
  21.5235279  49.9972615  60.5350831  21.4232006  50.9466972  60.4662922
  21.3056821  49.6690854  59.6626901  20.7248350  47.2457540  37.1191508
  21.5867514  47.5712438  37.3787326  20.9098694  46.4589036  36.6064574
  12.7415766  55.3279880  49.3971697  12.0479237  54.9133832  48.8841652
  13.4888757  55.3700416  48.8005116  28.8780987  46.1186066  44.2626731
  28.2979656  46.7770870  43.8804784  28.6116919  45.2963411  43.8514149
  27.3284553  45.5191124  46.4648052  27.8284331  45.6307659  45.6562371
  27.9720161  45.2152177  47.1048860  21.3866549  53.4269754  59.3515893
  20.9033631  54.2270114  59.5579782  21.4727488  53.4377699  58.3983337
  14.6552508  55.2598133  47.2737712  14.6323197  55.3585821  46.3219595
  14.9653145  56.1063284  47.5954878  17.3139886  57.3174288  51.3884327
  18.2683140  57.2858231  51.3214258  17.1152410  56.8564912  52.2034552
  17.9039268  55.8875405  53.9555124  18.7232157  56.3819483  53.9789962
  18.1776076  54.9707373  53.9272692  27.6605865  48.2786157  43.3183080
  26.7731720  48.5635807  43.1003275  28.0759854  48.1179920  42.4710357
  31.0120401  48.3032678  47.0337419  31.7880791  48.7929130  47.3062036
  30.2868535  48.7290732  47.4909288  33.4492959  49.0160297  48.0911360
  34.0437450  48.7756033  47.3804668  33.5219543  48.2967428  48.7184896
  15.6690115  62.8593908  48.4054524  15.5344583  62.0994309  47.8392522
  15.2522177  63.5834808  47.9383313  26.8049078  58.0430832  37.4131100
  27.5084928  58.2480834  38.0288755  26.0811727  58.6107593  37.6780183
  27.6346888  53.7940693  43.5333370  27.5782090  54.2509244  42.6941002
  28.1875231  53.0331377  43.3556213  31.4451694  49.5830425  44.3583489
  31.1888629  49.1827060  45.1891697  30.8204562  50.2974219  44.2333629
  35.7564032  52.3226498  46.8654781  35.1963590  52.3919687  47.6386343
  35.1507536  52.1467483  46.1454277  18.8259241  63.7563225  48.6172967
  18.7091625  64.7008657  48.5151657  18.0051687  63.4536787  49.0058766
  28.7135776  58.4813361  39.4629560  29.5481379  58.0494559  39.2807035
  28.5520118  58.3095374  40.3906454  28.3681668  54.9845474  40.8285899
  28.3130471  54.8189745  39.8874343  27.7427723  55.6921507  40.9848089
  13.1574183  50.2213538  54.6547321  13.8033046  49.7112492  55.1434546
  12.9491334  50.9582220  55.2290747  25.6827575  57.2894386  60.1539462
  26.5518734  57.4635038  59.7926097  25.2034326  58.1088803  60.0315191
  21.6777793  44.4853583  40.4071217  21.6656463  45.4295423  40.5639488
  22.5701215  44.3023728  40.1130679  19.8513755  64.4091487  51.8328896
  20.7541002  64.4415097  52.1495390  19.6251125  63.4791938  51.8475231
  21.6067357  63.1622473  48.4938974  20.6562988  63.1624335  48.3803346
  21.9099843  62.4155208  47.9775009  25.4929913  41.0796360  44.6617154
  24.7262308  40.5254846  44.8073837  25.9040618  41.1518228  45.5231306
  17.4971674  47.3681155  58.7522336  18.3603135  47.0117960  58.9625660
  16.9237084  47.0295050  59.4397740  37.3420051  68.9983012  49.5584737
  37.9798461  68.8789759  48.8548077  37.2240893  69.9463856  49.6172689
  34.1509757  68.9510440  49.4946261  33.8128268  68.8351505  48.6066796
  35.0199525  68.5501605  49.4747267  30.0096573  70.8045916  45.4843152
  29.4461438  70.7135853  44.7159440  29.8948968  69.9845821  45.9645645
  34.6329540  70.1045292  55.4532467  34.6218181  69.7098090  54.5812970
  34.7950179  69.3711364  56.0466238  27.5561005  72.2997108  48.3227373
  28.3482296  71.9587933  47.9073672  27.7957655  72.4092083  49.2429526
  35.5896131  74.4716884  40.7957617  34.9384111  75.0570964  40.4091631
  36.3840494  75.0023079  40.8552655  29.5151758  71.5606021  41.1944751
  30.2882634  71.0135008  41.0557627  29.8677157  72.4250271  41.4059213
  31.3536801  72.8882403  54.4011651  31.0626667  73.7928034  54.2858317
  31.9893785  72.9298931  55.1155720  32.2793008  70.2659252  50.9913010
  32.8756580  70.0415274  50.2769973  32.3367979  69.5243997  51.5938458
  31.8518036  67.7198687  38.8263201  32.1043557  67.1980209  38.0646664
  30.9142595  67.5564833  38.9289885  36.8961319  66.7234466  46.6337945
  37.6824408  66.3053889  46.2828362  37.1600023  67.6280558  46.8019593
  37.0671396  72.1607316  41.3326601  36.4317229  72.2341942  42.0447506
  36.7368803  72.7500915  40.6545681  42.2969746  66.6609699  47.5370923
  43.0294918  66.0908916  47.7708753  41.5409102  66.2731299  47.9777429
  31.5714325  69.6226793  41.0287576  31.4550583  68.9471697  41.6968661
  31.6816585  69.1359167  40.2119729  33.9145866  69.0836940  44.7334266
  33.5504073  68.5567561  45.4447187  34.7712982  68.6935409  44.5600751
  39.8195167  60.3731273  51.9965532  39.4878491  61.2426684  51.7726747
  39.2240780  60.0567557  52.6759562  33.5551353  64.1126840  39.7295614
  33.7225755  64.9807076  40.0966085  33.3648522  64.2754122  38.8056903
  36.3126686  72.5743819  51.3961444  36.0127409  73.4768858  51.2877252
  35.9677746  72.3076002  52.2482597  29.7639168  69.0257616  47.4298149
  28.8389664  68.8933830  47.6375841  30.0123581  69.8051835  47.9268091
  39.7123830  65.0926359  49.0758882  38.8040707  65.0241768  48.7817643
  39.6611426  65.5698304  49.9040707  33.5340574  66.5684498  40.7142281
  33.4140199  67.0141548  41.5527761  32.8393162  66.9169815  40.1555819
  27.1247979  68.6690889  48.2641938  27.2540360  68.9225368  49.1781350
  26.4445430  69.2618597  47.9446593  31.2947466  79.3388139  44.3632412
  31.2171496  80.2895964  44.4420893  30.6909109  78.9934012  45.0207338
  33.7864696  66.5116005  57.0193779  33.0098030  67.0709925  57.0096644
  34.4255259  66.9972788  57.5408649  41.5785476  63.2942798  50.8536756
  40.9359857  63.5875331  50.2076550  41.0740405  63.1795718  51.6589952
  39.2325640  67.0405971  41.5422615  40.1443496  67.2733357  41.3670312
  38.7235287  67.6243015  40.9797694  32.0411068  69.3201458  56.5811746
  32.7825752  69.8586502  56.3046570  31.3348053  69.9467747  56.7383298
  37.5166408  71.4630599  55.1783908  37.9249764  71.0213009  54.4338540
  36.7943669  70.8883226  55.4318100  33.8697478  66.4003205  52.5517464
  34.7158673  66.8242619  52.6952113  33.8096115  65.7436830  53.2456028
  37.8395222  72.0231789  48.9336196  37.2104085  72.1877503  48.2312264
  37.4520884  72.4373399  49.7047160  41.7184454  72.9586227  46.2880560
  41.0335492  73.3385128  45.7377593  41.8028303  73.5681554  47.0212508
  37.0196923  64.0607574  54.2098638  36.7757855  64.8149634  53.6732914
  37.2956853  64.4392921  55.0445885  38.9735386  70.6046186  52.8875904
  39.1852281  71.2477946  52.2110285  38.9265134  69.7708503  52.4197834
  36.5761615  63.2164007  49.7912476  35.7146094  63.5145260  50.0829213
  36.6024049  63.4334406  48.8593508  33.3923184  71.7606197  46.1986281
  33.8561530  72.0393900  45.4090904  33.1279982  70.8589642  46.0159372
  30.2847265  71.3077679  49.1366045  30.8548622  71.7364947  48.4983529
  30.8755377  71.0260264  49.8350230  32.3292070  67.8829350  43.0075847
  33.0316114  68.3350393  43.4749773  31.9972699  67.2413169  43.6355740
  30.7772432  66.4741106  57.3827056  30.1471092  67.1557387  57.6162453
  30.6708520  66.3624188  56.4380194  26.0717404  66.1412902  48.3092980
  25.2816458  66.3970431  47.8333091  26.5628652  66.9561240  48.4145021
  40.0881214  73.4818141  51.0598261  40.9098657  73.0798329  50.7780943
  40.0843617  73.3786376  52.0114377  28.0232150  66.5057482  45.2676457
  27.2263313  66.6176176  45.7859953  27.7957742  66.8444134  44.4017347
  33.8537817  73.0302185  53.2158972  33.9182250  73.4922592  54.0517143
  33.1448741  72.3999550  53.3441281  24.3555107  66.3943393  50.7407971
  24.6063146  67.2790403  51.0065547  24.8914656  66.2147994  49.9683063
  48.1787207  69.8256890  47.4083232  47.4250915  69.2564288  47.2527237
  48.3134748  69.7919554  48.3553867  33.5685835  74.6970292  43.0837952
  33.4331510  75.5421828  43.5122800  34.1095647  74.8989570  42.3203886
  30.0553174  60.7761872  59.7452307  29.6620120  60.2228071  60.4199951
  30.8719315  61.0872451  60.1358825  27.0215232  72.2145730  43.6565877
  27.5339753  73.0088981  43.8071442  27.6737945  71.5172021  43.5899478
  28.8310117  75.3311487  45.7388630  29.0076745  76.2529451  45.5509614
  29.6266950  75.0169906  46.1683010  32.9721135  62.1919751  57.3372564
  33.7130849  62.7926904  57.2577026  33.2039058  61.4497389  56.7790606
  28.1162473  67.3776118  55.6150793  28.0015989  66.4761376  55.9157892
  27.2606991  67.6239815  55.2635610  29.9541432  76.8489660  51.7398972
  30.5048857  76.7206724  50.9675966  29.1152908  77.1484549  51.3893865
  37.2935549  75.5996659  55.2419695  37.2754025  76.4205540  54.7499964
  38.2155469  75.4750734  55.4669836  33.7508603  73.1140788  56.0843204
  34.2836940  72.3529076  55.8542512  33.2222685  72.8214440  56.8267358
  36.9178298  58.2200854  51.6136845  36.5742568  59.1102496  51.5375956
  37.2857261  58.0302512  50.7506430  24.9864149  70.5434385  44.4325447
  25.8239371  70.9531393  44.2159155  25.1642417  69.6033827  44.4025641
  36.8828581  68.2109465  40.1209280  36.3675205  68.9814070  40.3597668
  36.6105890  67.5374601  40.7442342  34.4675692  63.0559166  45.1794519
  33.6117288  62.6666016  45.0000158  34.8802644  63.1351127  44.3194304
  35.9974839  60.5905509  49.5786079  35.4939634  60.5535644  48.7653884
  36.2905446  61.4998252  49.6382735  32.2417725  60.6744239  48.5852260
  33.1070721  60.4787048  48.2258150  32.3095234  60.4454591  49.5121617
  41.8562855  70.9641820  42.0562454  41.0792298  70.6252979  41.6117616
  42.5354336  70.9694443  41.3817419  36.6714884  66.0836557  41.9469062
  36.3665020  66.3982707  42.7979205  37.6245326  66.1617977  41.9896395
  35.1161316  72.2426781  43.5962016  34.5882678  71.5079540  43.2835253
  34.6148819  73.0201457  43.3501984  40.0954162  70.4375801  48.7129062
  39.4377837  71.1275063  48.8009191  40.8994561  70.8272233  49.0563048
  29.8480044  62.9046447  45.9568627  30.4223796  62.6821628  45.2241820
  30.4351026  62.9735141  46.7097228  38.9059621  68.7920174  46.7633004
  39.4191503  69.4250166  47.2654713  39.5560845  68.1921369  46.3976364
  30.1749631  64.9350908  39.9764512  29.3386943  65.2725595  40.2973787
  30.0354400  64.7999888  39.0391649  32.1502711  59.7787696  44.6843697
  31.4967124  59.4636713  44.0600311  32.1083186  59.1563436  45.4103519
  33.2613916  70.0606991  36.5996989  32.3540978  69.8296244  36.7988138
  33.7584948  69.2644610  36.7870970  36.1681995  78.7704498  39.5193675
  35.4943694  79.0736195  40.1278633  36.5547817  79.5733578  39.1699132
  35.3840452  66.2669629  49.0091344  34.4663013  66.4884576  48.8513032
  35.8000595  66.3415940  48.1503052  36.1675500  67.6661045  44.1394024
  36.9147319  68.1782442  43.8301146  36.4367089  67.3445098  44.9998418
  34.4402150  70.1619586  41.1220979  33.5313369  69.8778619  41.2193448
  34.4697234  70.5818664  40.2624286  39.6721417  73.7726175  44.8912146
  39.2183744  72.9317085  44.9477337  39.0415384  74.4087574  45.2286926
  38.6154337  64.7018161  46.1212814  37.8777094  64.1895548  46.4523056
  38.8681110  64.2618543  45.3096091  38.1154356  75.6102672  45.8261964
  38.4077331  76.1707729  45.1074330  38.6252977  75.9031233  46.5815124
  38.7165964  57.4794413  46.7154583  39.0224841  56.6191777  46.4280498
  39.4418569  58.0712034  46.5153577  25.0090320  67.8825100  45.1036181
  24.8114720  67.2894461  44.3787247  24.4536984  67.5777310  45.8212120
  32.9887044  67.7748206  47.2230774  33.0435654  66.8222043  47.1473251
  32.1778246  67.9307645  47.7072072  34.1378238  71.7028329  38.4609057
  33.6997667  70.9864188  38.0014695  34.8788678  71.9304444  37.8994149
  30.9279404  66.3925266  44.9821153  30.1147269  66.6919437  45.3886345
  31.4238398  65.9980955  45.6995635  33.0787982  76.3883023  46.9155418
  33.0364160  76.6143869  45.9863950  33.9950680  76.1546398  47.0641219
  36.5253615  66.8567091  53.8136047  36.8803003  67.0838564  54.6730513
  37.1725747  67.1885467  53.1913302  42.2551352  69.9785527  44.5185376
  42.1169251  70.1687122  43.5906565  41.8987571  70.7404909  44.9753427
  30.4193478  63.9643622  50.5982388  31.0592858  63.8232381  49.9005351
  29.5871009  63.6778135  50.2220990  42.2820732  72.0462054  49.5296647
  42.7157239  71.9537343  50.3779701  42.9952313  72.0219554  48.8916663
  31.1953782  73.2646052  46.7117380  31.9894381  72.7696372  46.5099955
  30.4845475  72.7363915  46.3485086  36.0148627  75.6464148  51.0629748
  36.0685649  76.2155084  51.8307464  35.1463408  75.8166033  50.6983785
  27.5036546  67.4089134  42.7877133  26.5734134  67.3473589  43.0047095
  27.5994018  66.8865087  41.9913774  27.4222095  63.9343947  45.3755375
  27.6828912  64.8489280  45.2664535  28.2439267  63.4668389  45.5251988
  28.8947020  65.3481704  52.5454199  29.5670074  65.1399066  51.8966848
  28.0676807  65.1503790  52.1059432  43.1436281  72.0885754  52.0629533
  43.3372172  72.9931565  52.3088808  43.0436900  71.6293173  52.8968118
  34.7972592  61.9743645  54.5619860  34.1500507  62.6733594  54.4684336
  35.5673608  62.4079789  54.9296108  38.2051390  72.2392497  57.6370413
  38.0536897  72.0103049  56.7200497  38.1956070  73.1963098  57.6501758
  34.9736727  69.8124410  52.6216680  35.9028787  69.9635569  52.4485647
  34.5527757  69.9008430  51.7665326  33.7725058  73.8375074  50.3915217
  33.6336144  73.4693858  51.2641156  32.9839655  74.3522714  50.2199175
  34.3673210  78.9384171  41.7340754  34.5424966  78.4672214  42.5486377
  33.6805998  79.5649937  41.9622015  35.3230274  73.2156677  47.7804055
  34.9880106  73.1757447  48.6761705  34.8234219  72.5501393  47.3074465
  29.2974517  68.6224307  53.3056636  29.1594315  67.8904546  53.9068175
  30.2079441  68.5333207  53.0240824  38.2589465  70.5612711  38.0541115
  37.6418636  69.8359539  37.9574168  37.7905954  71.3222071  37.7108189
  31.9256818  68.3344266  52.7940316  32.6356437  67.6937458  52.7526934
  31.8826126  68.5857161  53.7166497  39.9143597  75.2711619  55.7146895
  39.8556143  74.5870840  55.0477478  40.3163115  76.0130609  55.2627521
  30.6385752  65.3209484  54.6135955  30.1023109  64.8700222  55.2657552
  30.0502461  65.4555393  53.8706420  28.9334296  82.0873533  48.5080614
  29.1730894  82.7192057  49.1859633  28.0903492  81.7361573  48.7945973
  30.0488011  64.7798135  37.1762419  29.1717477  64.6586936  36.8124666
  30.5245764  63.9884214  36.9241308  39.9161004  73.2351203  53.9460875
  39.0287783  72.8977125  54.0687274  40.4859555  72.5034235  54.1829640
  21.5690151  69.5675295  47.2703926  22.2561191  69.2537025  46.6824942
  21.4138280  70.4716660  46.9971178  26.3724873  64.4565492  51.6988950
  26.2883062  63.8491161  50.9639360  25.5507580  64.9474510  51.6998446
  33.4462157  77.8952656  50.9122118  33.3732329  78.7007627  51.4241423
  33.0039551  78.0944622  50.0870140  33.2351937  77.1324426  44.4224940
  32.4519459  77.6746106  44.5163164  33.9344682  77.6498405  44.8219181
  36.5448587  62.9419055  47.0659145  37.0417287  62.1889018  46.7460215
  35.7735569  62.9783372  46.5002354  44.3978345  68.6459421  48.7077437
  44.3868221  69.5284136  48.3371370  43.5295724  68.2930972  48.5131974
  35.9060841  77.7939490  53.0680277  36.6188813  78.4286955  52.9956178
  35.4150870  77.8903356  52.2520279  37.6278368  71.6990742  44.6397568
  36.6934647  71.8192205  44.4702273  37.8055036  70.7963209  44.3757578
  33.1283556  65.0836438  46.7930830  32.7581343  64.5307479  47.4811735
  33.6242648  64.4794572  46.2405830  41.0150919  67.5408062  45.1747603
  41.4811371  68.3736053  45.1007905  41.4658420  67.0753043  45.8792861
  30.9572755  75.5433933  53.8885848  31.6582214  76.1770416  54.0415242
  30.4867870  75.8848665  53.1281487  39.0827150  73.8851883  42.1733755
  39.3586994  73.7708478  43.0827629  38.2131649  73.4869368  42.1345928
  38.9867582  59.9088649  49.2138504  38.0730662  60.1392876  49.3820711
  39.4160683  59.9927093  50.0652536  38.7574040  68.0978541  51.7138398
  38.1045491  68.3454448  51.0590851  39.1354420  67.2842679  51.3800875
  35.7181214  78.1338234  45.8166568  35.9003609  77.3159890  46.2794321
  36.5414200  78.3505926  45.3791458  36.0523380  77.0606419  43.0781617
  36.5811146  76.5498874  42.4651779  36.3151599  76.7448949  43.9427150
  34.8061614  68.8398352  58.2004435  34.1302251  68.7392481  58.8706810
  35.6289247  68.6837565  58.6640432  26.5540473  75.0770288  50.8216950
  27.1393909  74.3313976  50.9544854  26.3565311  75.3874245  51.7053614
  29.4079128  78.1121536  45.8379393  28.7389503  78.5967663  45.3543433
  29.2691998  78.3590756  46.7522771  21.1458127  67.6475889  49.5421393
  21.1842227  67.1139479  50.3358512  20.6398420  67.1211094  48.9232371
  33.5484396  80.1465279  52.4362051  34.1002704  80.3096901  53.2011136
  33.8890590  80.7369717  51.7642076  28.5248890  62.4940429  53.0383936
  28.5890216  63.3555260  52.6261333  28.4616010  61.8814431  52.3056294
  28.0001162  64.5663562  56.6856970  28.6273201  64.1840639  57.2994494
  27.1429081  64.3477763  57.0512662  24.7766705  66.3739991  42.6175325
  25.0720146  65.4650669  42.5642379  23.8754741  66.3527730  42.2956327
  36.6852784  78.0947255  49.4225733  36.5603923  77.2936995  48.9136679
  37.3431875  78.5893448  48.9339703  28.3060952  64.4495987  48.6002873
  27.5847538  65.0631955  48.4610347  29.0954208  64.9853752  48.5219519
  38.7487692  75.8956275  51.0505283  37.8018028  75.7761626  50.9783610
  39.0970465  75.0078773  51.1331545  31.1087265  61.7850414  54.8743525
  31.6321667  62.0312710  55.6369834  30.8899599  62.6170449  54.4546663
  26.5054546  64.0554088  42.7414650  26.1767253  63.1751467  42.5589756
  26.8593917  64.0001757  43.6291039  35.7534125  75.6908991  47.2509635
  35.6059088  74.7625698  47.4317206  36.5787619  75.7129082  46.7666711
  29.6196370  64.3427058  43.1090128  29.9592442  64.8712979  42.3868736
  30.0668490  64.6807464  43.8848694  39.3568247  76.5137550  48.3374508
  40.2814795  76.3080411  48.1998959  39.1883551  76.2653951  49.2463850
  32.3139810  62.7264109  52.5593196  31.9736631  61.9271922  52.9613876
  31.6078817  63.0265820  51.9870029  32.9656282  59.8113421  51.0120519
  33.7882352  59.3373899  50.8899409  33.2094346  60.5903905  51.5119205
  31.6064517  62.8401680  41.3083420  32.3272879  63.2182932  40.8047137
  30.9829821  63.5590557  41.4118398  35.7495640  63.5446829  42.2441753
  35.9659254  64.4271467  41.9430581  35.2689707  63.1533042  41.5147395
  30.4894861  66.5032542  48.8212497  30.3439442  66.8172845  49.7136779
  30.0120065  67.1217442  48.2683396  32.3491244  63.4935090  48.8693387
  32.3352813  62.5976183  48.5325685  33.0663672  63.5005754  49.5031673
  34.2017375  63.9272430  50.9146514  33.9435152  64.8489501  50.9130845
  33.6702415  63.5302865  51.6046978  39.1463563  77.0323217  43.6936600
  39.3200441  76.4669640  42.9410452  39.6392455  77.8324112  43.5116090
  24.9640523  69.0437886  51.7600159  24.4193991  69.8197694  51.8920433
  25.8419873  69.3908691  51.6019280  31.7528140  62.3749470  44.1380957
  31.8744051  61.4466116  44.3371845  31.4630182  62.3888156  43.2259272
  34.6219330  60.0604381  47.2747677  34.6441027  60.1243714  46.3199656
  35.0387389  59.2208889  47.4688183  45.0002955  69.7959640  45.3126899
  45.4434101  69.0466965  44.9146023  44.1229465  69.7869777  44.9300631
  40.1338736  76.3489982  40.7933498  40.8289641  76.9696674  41.0120813
  40.4761886  75.4985333  41.0685876  25.7506545  68.1707783  54.6530315
  25.0088281  68.3190418  55.2394946  25.4299289  68.4316048  53.7897065
  42.0330159  73.7989687  42.3220829  42.5581483  74.1376960  41.5970149
  41.9452512  72.8636702  42.1383963  33.6950208  77.7123761  54.4510705
  34.0037334  77.4672908  55.3233405  34.4925690  77.9170399  53.9629576
  33.7170820  79.8661670  46.6816082  33.2775810  79.3738049  47.3748939
  34.4678937  79.3234638  46.4408157  26.1963159  76.0573211  46.6840710
  27.0221179  75.7576983  46.3039354  25.8457211  75.2880834  47.1330499
  31.1644692  75.4099680  48.7538384  30.5424701  74.7470385  48.4540611
  31.8349559  75.4360811  48.0712031  24.3971764  73.9759538  47.6429644
  23.5603672  73.5481712  47.4613645  24.3695409  74.1691981  48.5800435
  31.2369219  63.8881468  58.3470890  31.2857375  64.7643590  57.9648659
  31.7791734  63.3458861  57.7742533  41.7224065  74.4322591  57.6272027
  40.9319609  74.4146730  57.0876526  41.4857420  74.9710884  58.3821063
  41.8421940  71.2815057  54.9404755  41.8919945  71.1165065  55.8820278
  41.7335863  70.4142316  54.5502636  30.7258199  73.9603603  42.2296844
  30.8746319  74.6439067  41.5763517  31.5324642  73.9408693  42.7446300
  39.1325703  67.2645985  56.2564062  40.0335565  67.1252450  55.9648060
  39.2073677  67.4300440  57.1962239  33.4668508  64.6412840  55.1017248
  32.5971817  64.9346406  54.8299837  33.7027988  65.2253285  55.8224512
  43.3440137  73.7011999  55.1846777  43.0524945  74.0641979  56.0210238
  42.7312268  72.9879007  55.0060109  44.5435819  71.2664878  47.7049347
  45.3782711  71.7054683  47.8686907  44.6794948  70.7903532  46.8857593
  41.5927325  68.8244613  53.6526835  42.0681447  69.0172260  52.8445686
  40.6692891  68.8803799  53.4070218  28.4810832  69.9868780  43.2357913
  28.2356874  69.0831110  43.4338123  28.6506746  69.9885931  42.2937391
  36.1707542  60.8592457  52.6182669  36.6889486  61.5953484  52.2929157
  35.8162674  61.1656450  53.4529428  27.7506479  65.7197138  40.7344075
  27.0575724  65.7941493  40.0784110  27.5058231  64.9557482  41.2565591
  36.4220136  57.2792739  48.1383565  36.7021890  56.6115928  48.7643992
  37.2070743  57.4721835  47.6258229  34.2253604  76.4551733  39.7008592
  33.6527571  77.0741920  39.2479063  34.7986398  77.0051095  40.2348514
  40.2928994  65.7010373  51.8855140  41.2446417  65.8008471  51.9067364
  40.1232445  64.9088642  52.3953225  38.3143374  62.7865957  52.0714541
  37.7193306  63.0670969  51.3761030  38.0293070  63.2759858  52.8431282
  37.4450864  76.7388883  40.8317174  38.3781537  76.6734445  41.0350049
  37.3574077  77.5745150  40.3731707  40.0738881  76.0554754  37.7921121
  39.9952512  75.7214617  38.6856879  40.8948548  76.5476522  37.7912594
  42.7717072  68.9216493  50.9997440  42.7393392  67.9832494  51.1857124
  43.3817696  69.0000530  50.2663265  34.6100403  67.7912546  37.0424644
  35.5559508  67.6618754  37.1113062  34.2314648  67.0527208  37.5194072
  42.9211560  65.7127537  51.0455723  42.4050609  64.9285993  50.8585652
  43.8051509  65.3846253  51.2102243  40.5822287  59.4568552  47.0051536
  40.3847109  59.1483640  47.8894868  41.1921993  60.1830191  47.1349466
  48.5893622  69.9832500  50.1403477  49.3197010  69.7217788  50.7011180
  47.9800567  69.2461222  50.1805545  46.6708919  68.1240363  50.7377928
  45.9442083  67.9896327  50.1294420  46.2556206  68.4317191  51.5434646
  34.4939095  71.8430292  58.5025301  35.4142105  72.0208891  58.6965348
  34.4588678  70.8986338  58.3505000  32.7943320  65.7162522  36.9779529
  31.8874775  65.4195635  37.0542243  33.0719301  65.4192341  36.1113816
  23.7121260  67.0368886  47.4278576  23.3924045  66.1834194  47.1352950
  23.1654689  67.2517464  48.1836543  27.4901168  69.7531327  51.1448082
  27.7087178  70.6848435  51.1636116  27.9026942  69.3939301  51.9302886
  34.4105386  60.2599412  43.1323771  33.6006114  59.9146497  43.5079017
  35.0989803  59.9506956  43.7211382  36.3395934  59.3377459  44.7548067
  36.8926973  59.7572912  45.4138090  36.5766020  58.4113207  44.7971023
  32.3629033  65.3264533  60.5350831  32.2625760  66.2758890  60.4662922
  32.1450575  64.9982772  59.6626901  31.5642105  62.5749458  37.1191508
  32.4261269  62.9004356  37.3787326  31.7492449  61.7880954  36.6064574
  23.5809520  70.6571797  49.3971697  22.8872992  70.2425750  48.8841652
  24.3282511  70.6992334  48.8005116  39.7174741  61.4477984  44.2626731
  39.1373410  62.1062788  43.8804784  39.4510674  60.6255329  43.8514149
  38.1678307  60.8483042  46.4648052  38.6678086  60.9599576  45.6562371
  38.8113915  60.5444095  47.1048860  32.2260303  68.7561671  59.3515893
  31.7427385  69.5562032  59.5579782  32.3121242  68.7669616  58.3983337
  25.4946263  70.5890051  47.2737712  25.4716951  70.6877738  46.3219595
  25.8046899  71.4355202  47.5954878  28.1533641  72.6466206  51.3884327
  29.1076894  72.6150148  51.3214258  27.9546164  72.1856830  52.2034552
  28.7433023  71.2167322  53.9555124  29.5625912  71.7111401  53.9789962
  29.0169831  70.2999290  53.9272692  38.4999619  63.6078075  43.3183080
  37.6125474  63.8927725  43.1003275  38.9153608  63.4471838  42.4710357
  41.8514155  63.6324595  47.0337419  42.6274545  64.1221048  47.3062036
  41.1262289  64.0582650  47.4909288  44.2886714  64.3452215  48.0911360
  44.8831205  64.1047951  47.3804668  44.3613298  63.6259345  48.7184896
  26.5083870  78.1885826  48.4054524  26.3738338  77.4286227  47.8392522
  26.0915932  78.9126726  47.9383313  37.6442833  73.3722749  37.4131100
  38.3478683  73.5772752  38.0288755  36.9205481  73.9399511  37.6780183
  38.4740643  69.1232610  43.5333370  38.4175844  69.5801162  42.6941002
  39.0268985  68.3623295  43.3556213  42.2845449  64.9122342  44.3583489
  42.0282383  64.5118978  45.1891697  41.6598317  65.6266136  44.2333629
  46.5957787  67.6518416  46.8654781  46.0357345  67.7211605  47.6386343
  45.9901290  67.4759400  46.1454277  29.6652995  79.0855143  48.6172967
  29.5485380  80.0300575  48.5151657  28.8445442  78.7828704  49.0058766
  39.5529530  73.8105278  39.4629560  40.3875134  73.3786477  39.2807035
  39.3913873  73.6387292  40.3906454  39.2075422  70.3137392  40.8285899
  39.1524226  70.1481663  39.8874343  38.5821477  71.0213425  40.9848089
  23.9967937  65.5505456  54.6547321  24.6426801  65.0404410  55.1434546
  23.7885088  66.2874138  55.2290747  32.5171548  59.8145501  40.4071217
  32.5050217  60.7587341  40.5639488  33.4094970  59.6315646  40.1130679
  30.6907510  79.7383405  51.8328896  31.5934756  79.7707015  52.1495390
  30.4644880  78.8083856  51.8475231  32.4461112  78.4914391  48.4938974
  31.4956743  78.4916253  48.3803346  32.7493598  77.7447126  47.9775009
  36.3323667  56.4088277  44.6617154  35.5656063  55.8546764  44.8073837
  36.7434372  56.4810146  45.5231306  28.3365428  62.6973073  58.7522336
  29.1996890  62.3409878  58.9625660  27.7630839  62.3586968  59.4397740
  48.1813805  84.3274929  49.5584737  48.8192215  84.2081677  48.8548077
  48.0634648  85.2755773  49.6172689  44.9903511  84.2802358  49.4946261
  44.6522023  84.1643422  48.6066796  45.8593280  83.8793523  49.4747267
  40.8490327  86.1337834  45.4843152  40.2855192  86.0427771  44.7159440
  40.7342722  85.3137738  45.9645645  45.4723294  85.4337209  55.4532467
  45.4611935  85.0390008  54.5812970  45.6343934  84.7003282  56.0466238
  38.3954759  87.6289026  48.3227373  39.1876051  87.2879850  47.9073672
  38.6351409  87.7384001  49.2429526  46.4289886  89.8008802  40.7957617
  45.7777866  90.3862882  40.4091631  47.2234249  90.3314997  40.8552655
  40.3545513  86.8897939  41.1944751  41.1276389  86.3426926  41.0557627
  40.7070912  87.7542188  41.4059213  42.1930556  88.2174321  54.4011651
  41.9020421  89.1219952  54.2858317  42.8287540  88.2590849  55.1155720
  43.1186762  85.5951170  50.9913010  43.7150335  85.3707192  50.2769973
  43.1761734  84.8535915  51.5938458  42.6911791  83.0490605  38.8263201
  42.9437311  82.5272126  38.0646664  41.7536350  82.8856750  38.9289885
  47.7355074  82.0526383  46.6337945  48.5218163  81.6345807  46.2828362
  47.9993778  82.9572476  46.8019593  47.9065151  87.4899234  41.3326601
  47.2710984  87.5633860  42.0447506  47.5762557  88.0792832  40.6545681
  53.1363501  81.9901617  47.5370923  53.8688673  81.4200833  47.7708753
  52.3802856  81.6023217  47.9777429  42.4108079  84.9518711  41.0287576
  42.2944338  84.2763614  41.6968661  42.5210339  84.4651085  40.2119729
  44.7539620  84.4128858  44.7334266  44.3897828  83.8859479  45.4447187
  45.6106736  84.0227327  44.5600751  50.6588921  75.7023191  51.9965532
  50.3272246  76.5718602  51.7726747  50.0634534  75.3859475  52.6759562
  44.3945107  79.4418758  39.7295614  44.5619510  80.3098994  40.0966085
  44.2042276  79.6046039  38.8056903  47.1520441  87.9035737  51.3961444
  46.8521164  88.8060775  51.2877252  46.8071500  87.6367920  52.2482597
  40.6032922  84.3549533  47.4298149  39.6783419  84.2225748  47.6375841
  40.8517335  85.1343753  47.9268091  50.5517584  80.4218277  49.0758882
  49.6434462  80.3533685  48.7817643  50.5005180  80.8990222  49.9040707
  44.3734328  81.8976415  40.7142281  44.2533953  82.3433466  41.5527761
  43.6786917  82.2461733  40.1555819  37.9641733  83.9982807  48.2641938
  38.0934114  84.2517286  49.1781350  37.2839184  84.5910515  47.9446593
  42.1341220  94.6680057  44.3632412  42.0565250  95.6187882  44.4420893
  41.5302864  94.3225929  45.0207338  44.6258450  81.8407922  57.0193779
  43.8491784  82.4001843  57.0096644  45.2649013  82.3264705  57.5408649
  52.4179231  78.6234715  50.8536756  51.7753611  78.9167248  50.2076550
  51.9134159  78.5087636  51.6589952  50.0719394  82.3697888  41.5422615
  50.9837251  82.6025275  41.3670312  49.5629042  82.9534933  40.9797694
  42.8804822  84.6493376  56.5811746  43.6219507  85.1878420  56.3046570
  42.1741808  85.2759665  56.7383298  48.3560162  86.7922516  55.1783908
  48.7643518  86.3504927  54.4338540  47.6337424  86.2175144  55.4318100
  44.7091232  81.7295123  52.5517464  45.5552427  82.1534537  52.6952113
  44.6489870  81.0728747  53.2456028  48.6788977  87.3523707  48.9336196
  48.0497839  87.5169421  48.2312264  48.2914639  87.7665316  49.7047160
  52.5578209  88.2878145  46.2880560  51.8729247  88.6677046  45.7377593
  52.6422058  88.8973471  47.0212508  47.8590677  79.3899491  54.2098638
  47.6151609  80.1441552  53.6732914  48.1350608  79.7684839  55.0445885
  49.8129140  85.9338104  52.8875904  50.0246035  86.5769864  52.2110285
  49.7658889  85.1000420  52.4197834  47.4155369  78.5455924  49.7912476
  46.5539848  78.8437178  50.0829213  47.4417804  78.7626323  48.8593508
  44.2316939  87.0898115  46.1986281  44.6955284  87.3685818  45.4090904
  43.9673737  86.1881560  46.0159372  41.1241020  86.6369596  49.1366045
  41.6942377  87.0656865  48.4983529  41.7149132  86.3552181  49.8350230
  43.1685825  83.2121267  43.0075847  43.8709868  83.6642311  43.4749773
  42.8366453  82.5705086  43.6355740  41.6166186  81.8033024  57.3827056
  40.9864847  82.4849305  57.6162453  41.5102274  81.6916106  56.4380194
  36.9111159  81.4704820  48.3092980  36.1210213  81.7262349  47.8333091
  37.4022406  82.2853158  48.4145021  50.9274968  88.8110059  51.0598261
  51.7492412  88.4090246  50.7780943  50.9237371  88.7078293  52.0114377
  38.8625904  81.8349399  45.2676457  38.0657067  81.9468093  45.7859953
  38.6351496  82.1736051  44.4017347  44.6931572  88.3594102  53.2158972
  44.7576004  88.8214510  54.0517143  43.9842496  87.7291467  53.3441281
  35.1948862  81.7235310  50.7407971  35.4456900  82.6082320  51.0065547
  35.7308410  81.5439912  49.9683063  59.0180961  85.1548808  47.4083232
  58.2644670  84.5856206  47.2527237  59.1528502  85.1211472  48.3553867
  44.4079589  90.0262210  43.0837952  44.2725264  90.8713746  43.5122800
  44.9489402  90.2281488  42.3203886  37.8608987  87.5437648  43.6565877
  38.3733507  88.3380898  43.8071442  38.5131700  86.8463938  43.5899478
  39.6703871  90.6603404  45.7388630  39.8470500  91.5821369  45.5509614
  40.4660705  90.3461823  46.1683010  43.8114890  77.5211669  57.3372564
  44.5524603  78.1218822  57.2577026  44.0432813  76.7789307  56.7790606
  38.9556228  82.7068036  55.6150793  38.8409743  81.8053293  55.9157892
  38.1000746  82.9531733  55.2635610  46.0348066  90.6485776  57.2138294
  45.5911920  89.8622155  56.8959198  46.6965279  90.8364927  56.5482185
  40.7935187  92.1781578  51.7398972  41.3442612  92.0498641  50.9675966
  39.9546663  92.4776467  51.3893865  48.1329304  90.9288576  55.2419695
  48.1147779  91.7497457  54.7499964  49.0549224  90.8042652  55.4669836
  44.5902358  88.4432706  56.0843204  45.1230695  87.6820994  55.8542512
  44.0616439  88.1506358  56.8267358  47.7572053  73.5492772  51.6136845
  47.4136322  74.4394414  51.5375956  48.1251015  73.3594429  50.7506430
  35.8257903  85.8726302  44.4325447  36.6633125  86.2823311  44.2159155
  36.0036171  84.9325744  44.4025641  47.7222336  83.5401383  40.1209280
  47.2068959  84.3105988  40.3597668  47.4499644  82.8666519  40.7442342
  45.3069447  78.3851084  45.1794519  44.4511043  77.9957934  45.0000158
  45.7196398  78.4643045  44.3194304  46.8368593  75.9197427  49.5786079
  46.3333389  75.8827562  48.7653884  47.1299200  76.8290170  49.6382735
  43.0811479  76.0036157  48.5852260  43.9464476  75.8078965  48.2258150
  43.1488988  75.7746508  49.5121617  52.6956610  86.2933738  42.0562454
  51.9186052  85.9544897  41.6117616  53.3748091  86.2986361  41.3817419
  47.5108639  81.4128475  41.9469062  47.2058774  81.7274624  42.7979205
  48.4639081  81.4909895  41.9896395  45.9555071  87.5718698  43.5962016
  45.4276432  86.8371458  43.2835253  45.4542573  88.3493375  43.3501984
  50.9347917  85.7667719  48.7129062  50.2771591  86.4566980  48.8009191
  51.7388316  86.1564151  49.0563048  40.6873798  78.2338365  45.9568627
  41.2617550  78.0113546  45.2241820  41.2744781  78.3027059  46.7097228
  49.7453375  84.1212092  46.7633004  50.2585257  84.7542083  47.2654713
  50.3954599  83.5213287  46.3976364  41.0143385  80.2642826  39.9764512
  40.1780698  80.6017512  40.2973787  40.8748155  80.1291805  39.0391649
  42.9896466  75.1079614  44.6843697  42.3360878  74.7928631  44.0600311
  42.9476940  74.4855354  45.4103519  44.1007671  85.3898909  36.5996989
  43.1934733  85.1588162  36.7988138  44.5978703  84.5936528  36.7870970
  47.0075750  94.0996416  39.5193675  46.3337448  94.4028113  40.1278633
  47.3941572  94.9025496  39.1699132  46.2234206  81.5961547  49.0091344
  45.3056768  81.8176494  48.8513032  46.6394350  81.6707858  48.1503052
  47.0069254  82.9952963  44.1394024  47.7541073  83.5074360  43.8301146
  47.2760844  82.6737015  44.9998418  45.2795904  85.4911503  41.1220979
  44.3707123  85.2070536  41.2193448  45.3090988  85.9110582  40.2624286
  50.5115172  89.1018093  44.8912146  50.0577499  88.2609003  44.9477337
  49.8809138  89.7379491  45.2286926  49.4548091  80.0310079  46.1212814
  48.7170848  79.5187465  46.4523056  49.7074865  79.5910461  45.3096091
  48.9548111  90.9394590  45.8261964  49.2471085  91.4999647  45.1074330
  49.4646731  91.2323151  46.5815124  49.5559719  72.8086331  46.7154583
  49.8618595  71.9483694  46.4280498  50.2812323  73.4003951  46.5153577
  35.8484075  83.2117018  45.1036181  35.6508474  82.6186378  44.3787247
  35.2930739  82.9069228  45.8212120  43.8280798  83.1040124  47.2230774
  43.8829408  82.1513960  47.1473251  43.0172000  83.2599563  47.7072072
  44.9771992  87.0320247  38.4609057  44.5391422  86.3156106  38.0014695
  45.7182433  87.2596362  37.8994149  41.7673158  81.7217184  44.9821153
  40.9541024  82.0211354  45.3886345  42.2632152  81.3272873  45.6995635
  43.9181736  91.7174941  46.9155418  43.8757915  91.9435787  45.9863950
  44.8344435  91.4838315  47.0641219  47.3647370  82.1859008  53.8136047
  47.7196758  82.4130481  54.6730513  48.0119501  82.5177385  53.1913302
  53.0945107  85.3077444  44.5185376  52.9563005  85.4979040  43.5906565
  52.7381326  86.0696827  44.9753427  41.2587233  79.2935539  50.5982388
  41.8986612  79.1524298  49.9005351  40.4264763  79.0070053  50.2220990
  53.1214486  87.3753971  49.5296647  53.5550993  87.2829260  50.3779701
  53.8346067  87.3511472  48.8916663  42.0347537  88.5937970  46.7117380
  42.8288135  88.0988290  46.5099955  41.3239229  88.0655833  46.3485086
  46.8542381  90.9756065  51.0629748  46.9079404  91.5447002  51.8307464
  45.9857163  91.1457950  50.6983785  38.3430300  82.7381052  42.7877133
  37.4127888  82.6765507  43.0047095  38.4387772  82.2157004  41.9913774
  38.2615849  79.2635864  45.3755375  38.5222667  80.1781198  45.2664535
  39.0833022  78.7960307  45.5251988  39.7340775  80.6773622  52.5454199
  40.4063828  80.4690984  51.8966848  38.9070561  80.4795708  52.1059432
  53.9830036  87.4177672  52.0629533  54.1765926  88.3223482  52.3088808
  53.8830654  86.9585091  52.8968118  45.6366347  77.3035562  54.5619860
  44.9894262  78.0025512  54.4684336  46.4067362  77.7371706  54.9296108
  49.0445145  87.5684415  57.6370413  48.8930651  87.3394966  56.7200497
  49.0349824  88.5255016  57.6501758  45.8130481  85.1416327  52.6216680
  46.7422541  85.2927487  52.4485647  45.3921511  85.2300348  51.7665326
  44.6118813  89.1666992  50.3915217  44.4729899  88.7985776  51.2641156
  43.8233409  89.6814631  50.2199175  45.2066965  94.2676088  41.7340754
  45.3818721  93.7964131  42.5486377  44.5199753  94.8941854  41.9622015
  46.1624028  88.5448594  47.7804055  45.8273861  88.5049364  48.6761705
  45.6627974  87.8793310  47.3074465  40.1368272  83.9516224  53.3056636
  39.9988070  83.2196463  53.9068175  41.0473195  83.8625125  53.0240824
  49.0983220  85.8904629  38.0541115  48.4812390  85.1651457  37.9574168
  48.6299708  86.6513989  37.7108189  42.7650573  83.6636184  52.7940316
  43.4750191  83.0229376  52.7526934  42.7219881  83.9149079  53.7166497
  50.7537351  90.6003537  55.7146895  50.6949897  89.9162757  55.0477478
  51.1556870  91.3422527  55.2627521  41.4779507  80.6501402  54.6135955
  40.9416864  80.1992140  55.2657552  40.8896215  80.7847311  53.8706420
  39.7728050  97.4165451  48.5080614  40.0124648  98.0483975  49.1859633
  38.9297247  97.0653491  48.7945973  40.8881766  80.1090053  37.1762419
  40.0111232  79.9878854  36.8124666  41.3639519  79.3176131  36.9241308
  50.7554759  88.5643121  53.9460875  49.8681537  88.2269043  54.0687274
  51.3253310  87.8326152  54.1829640  32.4083906  84.8967213  47.2703926
  33.0954946  84.5828943  46.6824942  32.2532034  85.8008577  46.9971178
  37.2118628  79.7857409  51.6988950  37.1276817  79.1783079  50.9639360
  36.3901334  80.2766428  51.6998446  44.2855912  93.2244573  50.9122118
  44.2126083  94.0299545  51.4241423  43.8433305  93.4236539  50.0870140
  44.0745692  92.4616343  44.4224940  43.2913213  93.0038024  44.5163164
  44.7738437  92.9790323  44.8219181  47.3842342  78.2710973  47.0659145
  47.8811041  77.5180935  46.7460215  46.6129323  78.3075290  46.5002354
  55.2372099  83.9751338  48.7077437  55.2261975  84.8576054  48.3371370
  54.3689479  83.6222889  48.5131974  46.7454595  93.1231407  53.0680277
  47.4582568  93.7578872  52.9956178  46.2544624  93.2195273  52.2520279
  48.4672122  87.0282660  44.6397568  47.5328401  87.1484123  44.4702273
  48.6448791  86.1255127  44.3757578  43.9677310  80.4128356  46.7930830
  43.5975098  79.8599396  47.4811735  44.4636403  79.8086489  46.2405830
  51.8544674  82.8699979  45.1747603  52.3205126  83.7027971  45.1007905
  52.3052174  82.4044961  45.8792861  41.7966509  90.8725851  53.8885848
  42.4975969  91.5062334  54.0415242  41.3261624  91.2140582  53.1281487
  49.9220905  89.2143801  42.1733755  50.1980749  89.1000395  43.0827629
  49.0525404  88.8161286  42.1345928  49.8261336  75.2380566  49.2138504
  48.9124416  75.4684793  49.3820711  50.2554438  75.3219010  50.0652536
  49.5967795  83.4270458  51.7138398  48.9439245  83.6746366  51.0590851
  49.9748175  82.6134597  51.3800875  46.5574969  93.4630152  45.8166568
  46.7397363  92.6451807  46.2794321  47.3807955  93.6797844  45.3791458
  46.8917134  92.3898337  43.0781617  47.4204901  91.8790791  42.4651779
  47.1545354  92.0740867  43.9427150  45.6455368  84.1690269  58.2004435
  44.9696005  84.0684399  58.8706810  46.4683002  84.0129483  58.6640432
  37.3934227  90.4062206  50.8216950  37.9787664  89.6605894  50.9544854
  37.1959066  90.7166163  51.7053614  40.2472882  93.4413453  45.8379393
  39.5783258  93.9259581  45.3543433  40.1085752  93.6882674  46.7522771
  31.9851882  82.9767806  49.5421393  32.0235981  82.4431397  50.3358512
  31.4792175  82.4503012  48.9232371  44.3878151  95.4757197  52.4362051
  44.9396459  95.6388818  53.2011136  44.7284344  96.0661635  51.7642076
  39.3642644  77.8232347  53.0383936  39.4283971  78.6847178  52.6261333
  39.3009764  77.2106348  52.3056294  38.8394917  79.8955479  56.6856970
  39.4666955  79.5132557  57.2994494  37.9822836  79.6769681  57.0512662
  49.2389025  90.3018454  58.2910705  49.7828929  90.9148413  57.7965660
  48.6575870  90.8598033  58.8077718  35.6160459  81.7031908  42.6175325
  35.9113900  80.7942587  42.5642379  34.7148495  81.6819648  42.2956327
  47.5246538  93.4239172  49.4225733  47.3997678  92.6228912  48.9136679
  48.1825629  93.9185366  48.9339703  39.1454706  79.7787905  48.6002873
  38.4241292  80.3923873  48.4610347  39.9347962  80.3145670  48.5219519
  49.5881447  91.2248192  51.0505283  48.6411782  91.1053544  50.9783610
  49.9364220  90.3370691  51.1331545  41.9481020  77.1142331  54.8743525
  42.4715422  77.3604628  55.6369834  41.7293353  77.9462366  54.4546663
  37.3448301  79.3846006  42.7414650  37.0161007  78.5043385  42.5589756
  37.6987672  79.3293675  43.6291039  46.5927880  91.0200909  47.2509635
  46.4452842  90.0917616  47.4317206  47.4181373  91.0420999  46.7666711
  40.4590124  79.6718976  43.1090128  40.7986197  80.2004897  42.3868736
  40.9062245  80.0099382  43.8848694  50.1962002  91.8429467  48.3374508
  51.1208549  91.6372329  48.1998959  50.0277305  91.5945869  49.2463850
  43.1533565  78.0556027  52.5593196  42.8130385  77.2563840  52.9613876
  42.4472571  78.3557737  51.9870029  43.8050037  75.1405339  51.0120519
  44.6276106  74.6665817  50.8899409  44.0488100  75.9195823  51.5119205
  42.4458271  78.1693597  41.3083420  43.1666634  78.5474850  40.8047137
  41.8223575  78.8882474  41.4118398  46.5889394  78.8738746  42.2441753
  46.8053009  79.7563384  41.9430581  46.1083461  78.4824960  41.5147395
  41.3288616  81.8324460  48.8212497  41.1833196  82.1464763  49.7136779
  40.8513819  82.4509360  48.2683396  43.1884998  78.8227008  48.8693387
  43.1746567  77.9268101  48.5325685  43.9057427  78.8297671  49.5031673
  45.0411129  79.2564348  50.9146514  44.7828907  80.1781418  50.9130845
  44.5096170  78.8594782  51.6046978  49.9857318  92.3615135  43.6936600
  50.1594195  91.7961557  42.9410452  50.4786209  93.1616030  43.5116090
  35.8034278  84.3729804  51.7600159  35.2587746  85.1489612  51.8920433
  36.6813628  84.7200608  51.6019280  42.5921894  77.7041388  44.1380957
  42.7137806  76.7758034  44.3371845  42.3023937  77.7180074  43.2259272
  45.4613085  75.3896298  47.2747677  45.4834782  75.4535631  46.3199656
  45.8781144  74.5500807  47.4688183  55.8396709  85.1251558  45.3126899
  56.2827855  84.3758883  44.9146023  54.9623219  85.1161694  44.9300631
  50.9732490  91.6781899  40.7933498  51.6683395  92.2988592  41.0120813
  51.3155641  90.8277251  41.0685876  36.5900300  83.4999700  54.6530315
  35.8482036  83.6482336  55.2394946  36.2693044  83.7607966  53.7897065
  52.8723914  89.1281605  42.3220829  53.3975238  89.4668878  41.5970149
  52.7846266  88.1928620  42.1383963  44.5343962  93.0415678  54.4510705
  44.8431089  92.7964825  55.3233405  45.3319444  93.2462317  53.9629576
  44.5564574  95.1953588  46.6816082  44.1169565  94.7029967  47.3748939
  45.3072691  94.6526556  46.4408157  37.0356913  91.3865129  46.6840710
  37.8614933  91.0868901  46.3039354  36.6850965  90.6172751  47.1330499
  42.0038446  90.7391597  48.7538384  41.3818456  90.0762302  48.4540611
  42.6743313  90.7652729  48.0712031  35.2365518  89.3051455  47.6429644
  34.3997427  88.8773630  47.4613645  35.2089164  89.4983899  48.5800435
  42.0762974  79.2173385  58.3470890  42.1251129  80.0935508  57.9648659
  42.6185488  78.6750778  57.7742533  52.5617820  89.7614508  57.6272027
  51.7713363  89.7438647  57.0876526  52.3251174  90.3002802  58.3821063
  52.6815695  86.6106975  54.9404755  52.7313700  86.4456982  55.8820278
  52.5729618  85.7434234  54.5502636  41.5651953  89.2895521  42.2296844
  41.7140074  89.9730985  41.5763517  42.3718397  89.2700611  42.7446300
  49.9719457  82.5937903  56.2564062  50.8729320  82.4544368  55.9648060
  50.0467432  82.7592358  57.1962239  44.3062262  79.9704758  55.1017248
  43.4365572  80.2638324  54.8299837  44.5421743  80.5545203  55.8224512
  54.1833891  89.0303916  55.1846777  53.8918700  89.3933897  56.0210238
  53.5706023  88.3170925  55.0060109  55.3829574  86.5956796  47.7049347
  56.2176465  87.0346600  47.8686907  55.5188703  86.1195449  46.8857593
  52.4321080  84.1536531  53.6526835  52.9075201  84.3464177  52.8445686
  51.5086645  84.2095717  53.4070218  39.3204586  85.3160698  43.2357913
  39.0750628  84.4123028  43.4338123  39.4900501  85.3177849  42.2937391
  47.0101296  76.1884375  52.6182669  47.5283240  76.9245401  52.2929157
  46.6556429  76.4948368  53.4529428  38.5900234  81.0489056  40.7344075
  37.8969479  81.1233411  40.0784110  38.3451986  80.2849399  41.2565591
  47.2613890  72.6084657  48.1383565  47.5415644  71.9407846  48.7643992
  48.0464497  72.8013753  47.6258229  45.0647359  91.7843651  39.7008592
  44.4921326  92.4033838  39.2479063  45.6380153  92.3343013  40.2348514
  51.1322749  81.0302291  51.8855140  52.0840172  81.1300389  51.9067364
  50.9626199  80.2380560  52.3953225  49.1537128  78.1157874  52.0714541
  48.5587060  78.3962887  51.3761030  48.8686825  78.6051775  52.8431282
  48.2844619  92.0680801  40.8317174  49.2175292  92.0026363  41.0350049
  48.1967831  92.9037068  40.3731707  50.9132635  91.3846671  37.7921121
  50.8346267  91.0506535  38.6856879  51.7342302  91.8768439  37.7912594
  53.6110826  84.2508411  50.9997440  53.5787147  83.3124411  51.1857124
  54.2211450  84.3292447  50.2663265  45.4494157  83.1204464  37.0424644
  46.3953262  82.9910672  37.1113062  45.0708402  82.3819126  37.5194072
  53.7605315  81.0419454  51.0455723  53.2444364  80.2577911  50.8585652
  54.6445263  80.7138171  51.2102243  51.4216042  74.7860470  47.0051536
  51.2240863  74.4775558  47.8894868  52.0315747  75.5122109  47.1349466
  59.4287376  85.3124418  50.1403477  60.1590765  85.0509706  50.7011180
  58.8194322  84.5753140  50.1805545  57.5102673  83.4532280  50.7377928
  56.7835837  83.3188245  50.1294420  57.0949960  83.7609109  51.5434646
  45.3332850  87.1722210  58.5025301  46.2535859  87.3500809  58.6965348
  45.2982433  86.2278255  58.3505000  43.6337074  81.0454440  36.9779529
  42.7268530  80.7487553  37.0542243  43.9113056  80.7484258  36.1113816
  34.5515015  82.3660804  47.4278576  34.2317799  81.5126112  47.1352950
  34.0048443  82.5809382  48.1836543  38.3294922  85.0823245  51.1448082
  38.5480932  86.0140352  51.1636116  38.7420696  84.7231219  51.9302886
  45.2499140  75.5891330  43.1323771  44.4399869  75.2438415  43.5079017
  45.9383557  75.2798874  43.7211382  47.1789689  74.6669377  44.7548067
  47.7320727  75.0864830  45.4138090  47.4159775  73.7405125  44.7971023
  43.2022788  80.6556450  60.5350831  43.1019515  81.6050807  60.4662922
  42.9844330  80.3274689  59.6626901  42.4035859  77.9041375  37.1191508
  43.2655023  78.2296274  37.3787326  42.5886203  77.1172871  36.6064574
  34.4203275  85.9863715  49.3971697  33.7266746  85.5717668  48.8841652
  35.1676266  86.0284252  48.8005116  50.5568496  76.7769902  44.2626731
  49.9767165  77.4354706  43.8804784  50.2904428  75.9547246  43.8514149
  49.0072062  76.1774960  46.4648052  49.5071840  76.2891494  45.6562371
  49.6507670  75.8736012  47.1048860  43.0654058  84.0853589  59.3515893
  42.5821139  84.8853949  59.5579782  43.1514997  84.0961534  58.3983337
  36.3340017  85.9181969  47.2737712  36.3110706  86.0169656  46.3219595
  36.6440654  86.7647120  47.5954878  38.9927395  87.9758124  51.3884327
  39.9470649  87.9442066  51.3214258  38.7939919  87.5148748  52.2034552
  39.5826777  86.5459240  53.9555124  40.4019666  87.0403319  53.9789962
  39.8563585  85.6291208  53.9272692  49.3393374  78.9369992  43.3183080
  48.4519229  79.2219643  43.1003275  49.7547363  78.7763756  42.4710357
  52.6907910  78.9616513  47.0337419  53.4668300  79.4512966  47.3062036
  51.9656044  79.3874567  47.4909288  55.1280468  79.6744132  48.0911360
  55.7224959  79.4339868  47.3804668  55.2007052  78.9551263  48.7184896
  37.3477624  93.5177743  48.4054524  37.2132092  92.7578144  47.8392522
  36.9309686  94.2418643  47.9383313  48.4836587  88.7014667  37.4131100
  49.1872437  88.9064669  38.0288755  47.7599236  89.2691429  37.6780183
  49.3134397  84.4524528  43.5333370  49.2569599  84.9093080  42.6941002
  49.8662740  83.6915213  43.3556213  53.1239203  80.2414260  44.3583489
  52.8676138  79.8410896  45.1891697  52.4992071  80.9558054  44.2333629
  57.4351541  82.9810333  46.8654781  56.8751099  83.0503523  47.6386343
  56.8295044  82.8051318  46.1454277  40.5046750  94.4147060  48.6172967
  40.3879134  95.3592493  48.5151657  39.6839196  94.1120622  49.0058766
  50.3923284  89.1397196  39.4629560  51.2268888  88.7078395  39.2807035
  50.2307627  88.9679210  40.3906454  50.0469177  85.6429309  40.8285899
  49.9917980  85.4773581  39.8874343  49.4215232  86.3505342  40.9848089
  34.8361692  80.8797374  54.6547321  35.4820555  80.3696328  55.1434546
  34.6278843  81.6166055  55.2290747  47.3615084  87.9478221  60.1539462
  48.2306243  88.1218874  59.7926097  46.8821835  88.7672638  60.0315191
  43.3565302  75.1437418  40.4071217  43.3443972  76.0879258  40.5639488
  44.2488724  74.9607564  40.1130679  41.5301264  95.0675322  51.8328896
  42.4328511  95.0998933  52.1495390  41.3038634  94.1375773  51.8475231
  43.2854866  93.8206309  48.4938974  42.3350497  93.8208170  48.3803346
  43.5887352  93.0739043  47.9775009  47.1717422  71.7380195  44.6617154
  46.4049817  71.1838682  44.8073837  47.5828127  71.8102064  45.5231306
  59.0207560  99.6566847  49.5584737  59.6585970  99.5373595  48.8548077
  58.9028402 100.6047691  49.6172689  55.8297266  99.6094275  49.4946261
  55.4915777  99.4935340  48.6066796  56.6987034  99.2085440  49.4747267
  51.6884082 101.4629752  45.4843152  51.1248947 101.3719689  44.7159440
  51.5736477 100.6429656  45.9645645  56.3117049 100.7629127  55.4532467
  56.3005690 100.3681925  54.5812970  56.4737688 100.0295200  56.0466238
  49.2348513 102.9580943  48.3227373  50.0269805 102.6171768  47.9073672
  49.4745164 103.0675918  49.2429526  57.2683640 105.1300719  40.7957617
  56.6171620 105.7154800  40.4091631  58.0628003 105.6606914  40.8552655
  51.1939267 102.2189857  41.1944751  51.9670143 101.6718844  41.0557627
  51.5464666 103.0834106  41.4059213  53.0324310 103.5466239  54.4011651
  52.7414176 104.4511870  54.2858317  53.6681294 103.5882766  55.1155720
  53.9580517 100.9243087  50.9913010  54.5544089 100.6999110  50.2769973
  54.0155488 100.1827833  51.5938458  53.5305545  98.3782523  38.8263201
  53.7831066  97.8564044  38.0646664  52.5930104  98.2148668  38.9289885
  58.5748828  97.3818301  46.6337945  59.3611917  96.9637724  46.2828362
  58.8387532  98.2864393  46.8019593  58.7458905 102.8191151  41.3326601
  58.1104738 102.8925778  42.0447506  58.4156312 103.4084750  40.6545681
  63.9757255  97.3193534  47.5370923  64.7082427  96.7492751  47.7708753
  63.2196611  96.9315135  47.9777429  53.2501834 100.2810629  41.0287576
  53.1338092  99.6055532  41.6968661  53.3604094  99.7943003  40.2119729
  55.5933375  99.7420776  44.7334266  55.2291582  99.2151397  45.4447187
  56.4500491  99.3519245  44.5600751  61.4982676  91.0315108  51.9965532
  61.1666000  91.9010519  51.7726747  60.9028289  90.7151392  52.6759562
  55.2338862  94.7710675  39.7295614  55.4013264  95.6390912  40.0966085
  55.0436031  94.9337957  38.8056903  57.9914195 103.2327654  51.3961444
  57.6914918 104.1352693  51.2877252  57.6465255 102.9659838  52.2482597
  51.4426677  99.6841451  47.4298149  50.5177173  99.5517665  47.6375841
  51.6911090 100.4635670  47.9268091  61.3911339  95.7510195  49.0758882
  60.4828216  95.6825603  48.7817643  61.3398935  96.2282139  49.9040707
  55.2128083  97.2268333  40.7142281  55.0927708  97.6725384  41.5527761
  54.5180671  97.5753651  40.1555819  48.8035488  99.3274725  48.2641938
  48.9327869  99.5809204  49.1781350  48.1232939  99.9202433  47.9446593
  52.9734975 109.9971975  44.3632412  52.8959005 110.9479800  44.4420893
  52.3696618 109.6517847  45.0207338  55.4652205  97.1699840  57.0193779
  54.6885539  97.7293760  57.0096644  56.1042768  97.6556623  57.5408649
  63.2572985  93.9526633  50.8536756  62.6147366  94.2459166  50.2076550
  62.7527914  93.8379553  51.6589952  60.9113149  97.6989806  41.5422615
  61.8231005  97.9317193  41.3670312  60.4022796  98.2826850  40.9797694
  53.7198577  99.9785293  56.5811746  54.4613261 100.5170337  56.3046570
  53.0135562 100.6051582  56.7383298  59.1953917 102.1214434  55.1783908
  59.6037273 101.6796844  54.4338540  58.4731178 101.5467061  55.4318100
  55.5484987  97.0587041  52.5517464  56.3946182  97.4826454  52.6952113
  55.4883624  96.4020665  53.2456028  59.5182731 102.6815625  48.9336196
  58.8891594 102.8461339  48.2312264  59.1308393 103.0957234  49.7047160
  63.3971963 103.6170062  46.2880560  62.7123001 103.9968964  45.7377593
  63.4815812 104.2265389  47.0212508  58.6984432  94.7191409  54.2098638
  58.4545364  95.4733470  53.6732914  58.9744362  95.0976757  55.0445885
  60.6522895 101.2630021  52.8875904  60.8639790 101.9061781  52.2110285
  60.6052643 100.4292338  52.4197834  58.2549124  93.8747842  49.7912476
  57.3933603  94.1729096  50.0829213  58.2811558  94.0918241  48.8593508
  55.0710693 102.4190033  46.1986281  55.5349039 102.6977736  45.4090904
  54.8067491 101.5173477  46.0159372  51.9634774 101.9661514  49.1366045
  52.5336131 102.3948783  48.4983529  52.5542886 101.6844099  49.8350230
  54.0079579  98.5413185  43.0075847  54.7103623  98.9934229  43.4749773
  53.6760208  97.8997004  43.6355740  52.4559941  97.1324942  57.3827056
  51.8258601  97.8141222  57.6162453  52.3496029  97.0208023  56.4380194
  47.7504913  96.7996738  48.3092980  46.9603967  97.0554266  47.8333091
  48.2416161  97.6145076  48.4145021  61.7668723 104.1401977  51.0598261
  62.5886166 103.7382164  50.7780943  61.7631126 104.0370211  52.0114377
  49.7019659  97.1641317  45.2676457  48.9050822  97.2760011  45.7859953
  49.4745251  97.5027969  44.4017347  55.5325326 103.6886020  53.2158972
  55.5969759 104.1506427  54.0517143  54.8236250 103.0583385  53.3441281
  46.0342616  97.0527228  50.7407971  46.2850655  97.9374238  51.0065547
  46.5702165  96.8731830  49.9683063  69.8574716 100.4840725  47.4083232
  69.1038424  99.9148123  47.2527237  69.9922257 100.4503390  48.3553867
  55.2473344 105.3554128  43.0837952  55.1119019 106.2005663  43.5122800
  55.7883156 105.5573405  42.3203886  51.7340683  91.4345707  59.7452307
  51.3407629  90.8811906  60.4199951  52.5506824  91.7456286  60.1358825
  48.7002741 102.8729566  43.6565877  49.2127262 103.6672816  43.8071442
  49.3525454 102.1755856  43.5899478  50.5097626 105.9895322  45.7388630
  50.6864254 106.9113287  45.5509614  51.3054459 105.6753741  46.1683010
  54.6508644  92.8503587  57.3372564  55.3918358  93.4510740  57.2577026
  54.8826567  92.1081224  56.7790606  49.7949982  98.0359954  55.6150793
  49.6803498  97.1345211  55.9157892  48.9394500  98.2823651  55.2635610
  56.8741820 105.9777694  57.2138294  56.4305674 105.1914073  56.8959198
  57.5359034 106.1656845  56.5482185  51.6328941 107.5073496  51.7398972
  52.1836366 107.3790559  50.9675966  50.7940417 107.8068385  51.3893865
  58.9723058 106.2580494  55.2419695  58.9541534 107.0789375  54.7499964
  59.8942978 106.1334569  55.4669836  55.4296112 103.7724624  56.0843204
  55.9624449 103.0112912  55.8542512  54.9010193 103.4798275  56.8267358
  58.5965807  88.8784690  51.6136845  58.2530077  89.7686331  51.5375956
  58.9644770  88.6886347  50.7506430  46.6651658 101.2018220  44.4325447
  47.5026880 101.6115228  44.2159155  46.8429926 100.2617662  44.4025641
  58.5616090  98.8693301  40.1209280  58.0462714  99.6397905  40.3597668
  58.2893399  98.1958437  40.7442342  56.1463201  93.7143001  45.1794519
  55.2904797  93.3249852  45.0000158  56.5590153  93.7934962  44.3194304
  57.6762348  91.2489345  49.5786079  57.1727143  91.2119480  48.7653884
  57.9692955  92.1582087  49.6382735  53.9205234  91.3328074  48.5852260
  54.7858230  91.1370883  48.2258150  53.9882743  91.1038426  49.5121617
  63.5350364 101.6225655  42.0562454  62.7579807 101.2836815  41.6117616
  64.2141845 101.6278278  41.3817419  58.3502393  96.7420393  41.9469062
  58.0452529  97.0566542  42.7979205  59.3032835  96.8201813  41.9896395
  56.7948825 102.9010616  43.5962016  56.2670187 102.1663376  43.2835253
  56.2936328 103.6785292  43.3501984  61.7741671 101.0959637  48.7129062
  61.1165346 101.7858898  48.8009191  62.5782070 101.4856068  49.0563048
  51.5267553  93.5630282  45.9568627  52.1011305  93.3405464  45.2241820
  52.1138535  93.6318977  46.7097228  60.5847130  99.4504009  46.7633004
  61.0979012 100.0834001  47.2654713  61.2348354  98.8505205  46.3976364
  51.8537140  95.5934743  39.9764512  51.0174452  95.9309430  40.2973787
  51.7141909  95.4583723  39.0391649  53.8290220  90.4371531  44.6843697
  53.1754633  90.1220548  44.0600311  53.7870695  89.8147272  45.4103519
  54.9401425 100.7190826  36.5996989  54.0328487 100.4880080  36.7988138
  55.4372457  99.9228446  36.7870970  57.8469504 109.4288333  39.5193675
  57.1731203 109.7320030  40.1278633  58.2335326 110.2317414  39.1699132
  57.0627961  96.9253465  49.0091344  56.1450522  97.1468412  48.8513032
  57.4788104  96.9999775  48.1503052  57.8463009  98.3244880  44.1394024
  58.5934827  98.8366278  43.8301146  58.1154598  98.0028933  44.9998418
  56.1189659 100.8203421  41.1220979  55.2100878 100.5362454  41.2193448
  56.1484743 101.2402500  40.2624286  61.3508926 104.4310011  44.8912146
  60.8971253 103.5900921  44.9477337  60.7202893 105.0671409  45.2286926
  60.2941846  95.3601997  46.1212814  59.5564602  94.8479383  46.4523056
  60.5468619  94.9202378  45.3096091  59.7941865 106.2686507  45.8261964
  60.0864840 106.8291564  45.1074330  60.3040486 106.5615068  46.5815124
  60.3953473  88.1378249  46.7154583  60.7012350  87.2775612  46.4280498
  61.1206078  88.7295869  46.5153577  46.6877829  98.5408935  45.1036181
  46.4902229  97.9478296  44.3787247  46.1324493  98.2361145  45.8212120
  54.6674553  98.4332042  47.2230774  54.7223163  97.4805878  47.1473251
  53.8565755  98.5891481  47.7072072  55.8165747 102.3612165  38.4609057
  55.3785176 101.6448024  38.0014695  56.5576187 102.5888280  37.8994149
  52.6066913  97.0509101  44.9821153  51.7934778  97.3503272  45.3886345
  53.1025907  96.6564790  45.6995635  54.7575491 107.0466858  46.9155418
  54.7151669 107.2727705  45.9863950  55.6738189 106.8130233  47.0641219
  58.2041124  97.5150926  53.8136047  58.5590512  97.7422399  54.6730513
  58.8513256  97.8469303  53.1913302  63.9338861 100.6369362  44.5185376
  63.7956760 100.8270958  43.5906565  63.5775080 101.3988745  44.9753427
  52.0980987  94.6227457  50.5982388  52.7380367  94.4816216  49.9005351
  51.2658518  94.3361970  50.2220990  63.9608241 102.7045889  49.5296647
  64.3944748 102.6121178  50.3779701  64.6739822 102.6803389  48.8916663
  52.8741291 103.9229887  46.7117380  53.6681890 103.4280208  46.5099955
  52.1632984 103.3947751  46.3485086  57.6936136 106.3047983  51.0629748
  57.7473158 106.8738919  51.8307464  56.8250917 106.4749868  50.6983785
  49.1824055  98.0672969  42.7877133  48.2521643  98.0057425  43.0047095
  49.2781527  97.5448922  41.9913774  49.1009604  94.5927782  45.3755375
  49.3616421  95.5073115  45.2664535  49.9226776  94.1252225  45.5251988
  50.5734529  96.0065539  52.5454199  51.2457583  95.7982901  51.8966848
  49.7464316  95.8087625  52.1059432  64.8223790 102.7469590  52.0629533
  65.0159681 103.6515400  52.3088808  64.7224409 102.2877009  52.8968118
  56.4760101  92.6327480  54.5619860  55.8288016  93.3317430  54.4684336
  57.2461117  93.0663624  54.9296108  59.8838899 102.8976332  57.6370413
  59.7324406 102.6686884  56.7200497  59.8743579 103.8546934  57.6501758
  56.6524236 100.4708245  52.6216680  57.5816296 100.6219405  52.4485647
  56.2315266 100.5592266  51.7665326  55.4512567 104.4958909  50.3915217
  55.3123653 104.1277694  51.2641156  54.6627164 105.0106549  50.2199175
  56.0460719 109.5968006  41.7340754  56.2212475 109.1256049  42.5486377
  55.3593507 110.2233772  41.9622015  57.0017782 103.8740512  47.7804055
  56.6667615 103.8341282  48.6761705  56.5021728 103.2085228  47.3074465
  50.9762026  99.2808142  53.3056636  50.8381824  98.5488381  53.9068175
  51.8866950  99.1917042  53.0240824  59.9376974 101.2196546  38.0541115
  59.3206145 100.4943375  37.9574168  59.4693463 101.9805907  37.7108189
  53.6044327  98.9928101  52.7940316  54.3143946  98.3521294  52.7526934
  53.5613635  99.2440996  53.7166497  61.5931106 105.9295455  55.7146895
  61.5343652 105.2454675  55.0477478  61.9950624 106.6714445  55.2627521
  52.3173261  95.9793319  54.6135955  51.7810618  95.5284058  55.2657552
  51.7289970  96.1139228  53.8706420  50.6121805 112.7457369  48.5080614
  50.8518403 113.3775893  49.1859633  49.7691001 112.3945409  48.7945973
  51.7275520  95.4381971  37.1762419  50.8504986  95.3170772  36.8124666
  52.2033273  94.6468049  36.9241308  61.5948513 103.8935039  53.9460875
  60.7075292 103.5560961  54.0687274  62.1647064 103.1618070  54.1829640
  43.2477660 100.2259131  47.2703926  43.9348700  99.9120861  46.6824942
  43.0925789 101.1300495  46.9971178  48.0512382  95.1149327  51.6988950
  47.9670571  94.5074997  50.9639360  47.2295089  95.6058345  51.6998446
  55.1249666 108.5536491  50.9122118  55.0519838 109.3591463  51.4241423
  54.6827060 108.7528457  50.0870140  54.9139446 107.7908261  44.4224940
  54.1306968 108.3329941  44.5163164  55.6132191 108.3082241  44.8219181
  58.2236096  93.6002891  47.0659145  58.7204796  92.8472853  46.7460215
  57.4523078  93.6367207  46.5002354  66.0765854  99.3043256  48.7077437
  66.0655730 100.1867972  48.3371370  65.2083233  98.9514807  48.5131974
  57.5848350 108.4523325  53.0680277  58.2976322 109.0870790  52.9956178
  57.0938379 108.5487191  52.2520279  59.3065877 102.3574578  44.6397568
  58.3722156 102.4776040  44.4702273  59.4842545 101.4547045  44.3757578
  54.8071065  95.7420274  46.7930830  54.4368852  95.1891314  47.4811735
  55.3030157  95.1378407  46.2405830  62.6938428  98.1991897  45.1747603
  63.1598880  99.0319889  45.1007905  63.1445929  97.7336879  45.8792861
  52.6360264 106.2017769  53.8885848  53.3369723 106.8354252  54.0415242
  52.1655379 106.5432500  53.1281487  60.7614659 104.5435718  42.1733755
  61.0374503 104.4292313  43.0827629  59.8919158 104.1453203  42.1345928
  60.6655091  90.5672484  49.2138504  59.7518171  90.7976711  49.3820711
  61.0948192  90.6510928  50.0652536  60.4361549  98.7562376  51.7138398
  59.7833000  99.0038283  51.0590851  60.8141929  97.9426514  51.3800875
  57.3968723 108.7922069  45.8166568  57.5791118 107.9743725  46.2794321
  58.2201709 109.0089761  45.3791458  57.7310889 107.7190254  43.0781617
  58.2598655 107.2082709  42.4651779  57.9939108 107.4032785  43.9427150
  56.4849122  99.4982187  58.2004435  55.8089760  99.3976316  58.8706810
  57.3076756  99.3421401  58.6640432  48.2327982 105.7354124  50.8216950
  48.8181418 104.9897812  50.9544854  48.0352820 106.0458080  51.7053614
  51.0866637 108.7705371  45.8379393  50.4177012 109.2551499  45.3543433
  50.9479506 109.0174591  46.7522771  42.8245636  98.3059724  49.5421393
  42.8629736  97.7723315  50.3358512  42.3185929  97.7794929  48.9232371
  55.2271905 110.8049115  52.4362051  55.7790213 110.9680736  53.2011136
  55.5678099 111.3953552  51.7642076  50.2036399  93.1524264  53.0383936
  50.2677725  94.0139095  52.6261333  50.1403519  92.5398266  52.3056294
  49.6788671  95.2247397  56.6856970  50.3060710  94.8424474  57.2994494
  48.8216590  95.0061599  57.0512662  60.0782780 105.6310372  58.2910705
  60.6222684 106.2440330  57.7965660  59.4969625 106.1889950  58.8077718
  46.4554214  97.0323826  42.6175325  46.7507655  96.1234504  42.5642379
  45.5542250  97.0111565  42.2956327  58.3640293 108.7531090  49.4225733
  58.2391432 107.9520830  48.9136679  59.0219384 109.2477283  48.9339703
  49.9848461  95.1079823  48.6002873  49.2635047  95.7215790  48.4610347
  50.7741717  95.6437587  48.5219519  60.4275201 106.5540110  51.0505283
  59.4805537 106.4345461  50.9783610  60.7757974 105.6662608  51.1331545
  52.7874774  92.4434249  54.8743525  53.3109176  92.6896546  55.6369834
  52.5687108  93.2754284  54.4546663  48.1842055  94.7137924  42.7414650
  47.8554762  93.8335303  42.5589756  48.5381426  94.6585592  43.6291039
  57.4321634 106.3492826  47.2509635  57.2846597 105.4209534  47.4317206
  58.2575128 106.3712917  46.7666711  51.2983879  95.0010893  43.1090128
  51.6379951  95.5296815  42.3868736  51.7455999  95.3391300  43.8848694
  61.0355756 107.1721385  48.3374508  61.9602304 106.9664246  48.1998959
  60.8671060 106.9237786  49.2463850  53.9927319  93.3847944  52.5593196
  53.6524140  92.5855757  52.9613876  53.2866326  93.6849655  51.9870029
  54.6443791  90.4697257  51.0120519  55.4669861  89.9957735  50.8899409
  54.8881855  91.2487740  51.5119205  53.2852026  93.4985515  41.3083420
  54.0060388  93.8766768  40.8047137  52.6617330  94.2174392  41.4118398
  57.4283149  94.2030664  42.2441753  57.6446763  95.0855302  41.9430581
  56.9477216  93.8116877  41.5147395  52.1682370  97.1616377  48.8212497
  52.0226951  97.4756680  49.7136779  51.6907574  97.7801278  48.2683396
  54.0278753  94.1518925  48.8693387  54.0140322  93.2560019  48.5325685
  54.7451181  94.1589589  49.5031673  55.8804884  94.5856265  50.9146514
  55.6222661  95.5073336  50.9130845  55.3489924  94.1886700  51.6046978
  60.8251072 107.6907053  43.6936600  60.9987950 107.1253475  42.9410452
  61.3179964 108.4907947  43.5116090  46.6428032  99.7021722  51.7600159
  46.0981500 100.4781530  51.8920433  47.5207382 100.0492526  51.6019280
  53.4315649  93.0333306  44.1380957  53.5531560  92.1049952  44.3371845
  53.1417691  93.0471991  43.2259272  56.3006839  90.7188216  47.2747677
  56.3228536  90.7827549  46.3199656  56.7174898  89.8792725  47.4688183
  66.6790464 100.4543476  45.3126899  67.1221610  99.7050801  44.9146023
  65.8016974 100.4453612  44.9300631  61.8126245 107.0073817  40.7933498
  62.5077150 107.6280510  41.0120813  62.1549395 106.1569168  41.0685876
  47.4294054  98.8291618  54.6530315  46.6875790  98.9774253  55.2394946
  47.1086798  99.0899884  53.7897065  63.7117668 104.4573523  42.3220829
  64.2368992 104.7960795  41.5970149  63.6240021 103.5220538  42.1383963
  55.3737717 108.3707596  54.4510705  55.6824843 108.1256743  55.3233405
  56.1713199 108.5754235  53.9629576  55.3958329 110.5245506  46.6816082
  54.9563319 110.0321884  47.3748939  56.1466446 109.9818473  46.4408157
  47.8750668 106.7157047  46.6840710  48.7008688 106.4160819  46.3039354
  47.5244720 105.9464669  47.1330499  52.8432201 106.0683515  48.7538384
  52.2212210 105.4054220  48.4540611  53.5137068 106.0944647  48.0712031
  46.0759273 104.6343373  47.6429644  45.2391181 104.2065547  47.4613645
  46.0482918 104.8275816  48.5800435  52.9156728  94.5465303  58.3470890
  52.9644884  95.4227426  57.9648659  53.4579243  94.0042696  57.7742533
  63.4011574 105.0906426  57.6272027  62.6107118 105.0730565  57.0876526
  63.1644929 105.6294720  58.3821063  63.5209449 101.9398893  54.9404755
  63.5707454 101.7748900  55.8820278  63.4123372 101.0726152  54.5502636
  52.4045708 104.6187438  42.2296844  52.5533828 105.3022903  41.5763517
  53.2112151 104.5992528  42.7446300  60.8113212  97.9229821  56.2564062
  61.7123074  97.7836285  55.9648060  60.8861186  98.0884275  57.1962239
  55.1456017  95.2996675  55.1017248  54.2759326  95.5930241  54.8299837
  55.3815497  95.8837120  55.8224512  65.0227646 104.3595834  55.1846777
  64.7312454 104.7225815  56.0210238  64.4099777 103.6462842  55.0060109
  66.2223328 101.9248714  47.7049347  67.0570220 102.3638518  47.8686907
  66.3582457 101.4487367  46.8857593  63.2714834  99.4828449  53.6526835
  63.7468956  99.6756095  52.8445686  62.3480400  99.5387634  53.4070218
  50.1598341 100.6452616  43.2357913  49.9144383  99.7414946  43.4338123
  50.3294255 100.6469766  42.2937391  57.8495051  91.5176292  52.6182669
  58.3676995  92.2537319  52.2929157  57.4950183  91.8240286  53.4529428
  49.4293988  96.3780973  40.7344075  48.7363233  96.4525328  40.0784110
  49.1845740  95.6141317  41.2565591  58.1007645  87.9376575  48.1383565
  58.3809399  87.2699764  48.7643992  58.8858252  88.1305670  47.6258229
  55.9041113 107.1135569  39.7008592  55.3315080 107.7325756  39.2479063
  56.4773907 107.6634930  40.2348514  61.9716503  96.3594209  51.8855140
  62.9233926  96.4592306  51.9067364  61.8019954  95.5672477  52.3953225
  59.9930883  93.4449792  52.0714541  59.3980815  93.7254805  51.3761030
  59.7080579  93.9343693  52.8431282  59.1238373 107.3972719  40.8317174
  60.0569046 107.3318280  41.0350049  59.0361586 108.2328986  40.3731707
  61.7526390 106.7138589  37.7921121  61.6740021 106.3798453  38.6856879
  62.5736057 107.2060357  37.7912594  64.4504581  99.5800328  50.9997440
  64.4180901  98.6416329  51.1857124  65.0605205  99.6584365  50.2663265
  56.2887912  98.4496381  37.0424644  57.2347017  98.3202590  37.1113062
  55.9102157  97.7111043  37.5194072  64.5999069  96.3711372  51.0455723
  64.0838118  95.5869829  50.8585652  65.4839018  96.0430088  51.2102243
  62.2609796  90.1152387  47.0051536  62.0634618  89.8067476  47.8894868
  62.8709502  90.8414026  47.1349466  70.2681131 100.6416335  50.1403477
  70.9984519 100.3801623  50.7011180  69.6588076  99.9045057  50.1805545
  68.3496428  98.7824198  50.7377928  67.6229592  98.6480163  50.1294420
  67.9343715  99.0901026  51.5434646  56.1726604 102.5014128  58.5025301
  57.0929614 102.6792727  58.6965348  56.1376187 101.5570173  58.3505000
  54.4730829  96.3746358  36.9779529  53.5662284  96.0779471  37.0542243
  54.7506810  96.0776176  36.1113816  45.3908769  97.6952721  47.4278576
  45.0711554  96.8418029  47.1352950  44.8442198  97.9101299  48.1836543
  49.1688677 100.4115162  51.1448082  49.3874687 101.3432270  51.1636116
  49.5814451 100.0523137  51.9302886  56.0892895  90.9183248  43.1323771
  55.2793623  90.5730332  43.5079017  56.7777312  90.6090791  43.7211382
  58.0183443  89.9961294  44.7548067  58.5714482  90.4156748  45.4138090
  58.2553529  89.0697042  44.7971023  54.0416542  95.9848368  60.5350831
  53.9413269  96.9342725  60.4662922  53.8238084  95.6566607  59.6626901
  53.2429614  93.2333293  37.1191508  54.1048778  93.5588191  37.3787326
  53.4279958  92.4464789  36.6064574  45.2597029 101.3155633  49.3971697
  44.5660501 100.9009585  48.8841652  46.0070020 101.3576169  48.8005116
  61.3962250  92.1061819  44.2626731  60.8160919  92.7646624  43.8804784
  61.1298183  91.2839164  43.8514149  59.8465816  91.5066877  46.4648052
  60.3465595  91.6183412  45.6562371  60.4901424  91.2027930  47.1048860
  53.9047812  99.4145507  59.3515893  53.4214894 100.2145867  59.5579782
  53.9908751  99.4253452  58.3983337  47.1733772 101.2473886  47.2737712
  47.1504460 101.3461574  46.3219595  47.4834408 102.0939037  47.5954878
  49.8321150 103.3050042  51.3884327  50.7864403 103.2733984  51.3214258
  49.6333673 102.8440665  52.2034552  50.4220532 101.8751158  53.9555124
  51.2413421 102.3695236  53.9789962  50.6957340 100.9583126  53.9272692
  60.1787128  94.2661910  43.3183080  59.2912983  94.5511560  43.1003275
  60.5941117  94.1055673  42.4710357  63.5301664  94.2908431  47.0337419
  64.3062054  94.7804883  47.3062036  62.8049798  94.7166485  47.4909288
  65.9674223  95.0036050  48.0911360  66.5618714  94.7631786  47.3804668
  66.0400807  94.2843181  48.7184896  48.1871379 108.8469661  48.4054524
  48.0525846 108.0870062  47.8392522  47.7703441 109.5710561  47.9383313
  59.3230342 104.0306585  37.4131100  60.0266192 104.2356587  38.0288755
  58.5992990 104.5983346  37.6780183  60.1528152  99.7816446  43.5333370
  60.0963353 100.2384997  42.6941002  60.7056494  99.0207130  43.3556213
  63.9632958  95.5706178  44.3583489  63.7069892  95.1702813  45.1891697
  63.3385826  96.2849972  44.2333629  68.2745296  98.3102251  46.8654781
  67.7144854  98.3795440  47.6386343  67.6688799  98.1343236  46.1454277
  51.3440504 109.7438978  48.6172967  51.2272889 110.6884411  48.5151657
  50.5232951 109.4412540  49.0058766  61.2317039 104.4689114  39.4629560
  62.0662643 104.0370312  39.2807035  61.0701382 104.2971127  40.3906454
  60.8862931 100.9721227  40.8285899  60.8311735 100.8065498  39.8874343
  60.2608986 101.6797260  40.9848089  45.6755446  96.2089291  54.6547321
  46.3214310  95.6988245  55.1434546  45.4672597  96.9457973  55.2290747
  58.2008838 103.2770139  60.1539462  59.0699998 103.4510791  59.7926097
  57.7215590 104.0964556  60.0315191  54.1959057  90.4729336  40.4071217
  54.1837726  91.4171176  40.5639488  55.0882478  90.2899481  40.1130679
  52.3695019 110.3967240  51.8328896  53.2722265 110.4290850  52.1495390
  52.1432389 109.4667691  51.8475231  54.1248621 109.1498226  48.4938974
  53.1744252 109.1500088  48.3803346  54.4281107 108.4030961  47.9775009
  58.0111176  87.0672113  44.6617154  57.2443572  86.5130599  44.8073837
  58.4221881  87.1393981  45.5231306  50.0152937  93.3556908  58.7522336
  50.8784399  92.9993713  58.9625660  49.4418348  93.0170803  59.4397740
  69.8601314 114.9858765  49.5584737  70.4979724 114.8665512  48.8548077
  69.7422157 115.9339609  49.6172689  66.6691020 114.9386193  49.4946261
  66.3309532 114.8227258  48.6066796  67.5380789 114.5377358  49.4747267
  62.5277836 116.7921669  45.4843152  61.9642701 116.7011606  44.7159440
  62.4130231 115.9721574  45.9645645  67.1510803 116.0921045  55.4532467
  67.1399444 115.6973843  54.5812970  67.3131443 115.3587117  56.0466238
  60.0742268 118.2872861  48.3227373  60.8663560 117.9463686  47.9073672
  60.3138918 118.3967836  49.2429526  68.1077395 120.4592637  40.7957617
  67.4565375 121.0446717  40.4091631  68.9021758 120.9898832  40.8552655
  62.0333022 117.5481774  41.1944751  62.8063898 117.0010761  41.0557627
  62.3858421 118.4126024  41.4059213  63.8718064 118.8758156  54.4011651
  63.5807930 119.7803787  54.2858317  64.5075049 118.9174684  55.1155720
  64.7974271 116.2535005  50.9913010  65.3937844 116.0291027  50.2769973
  64.8549243 115.5119750  51.5938458  64.3699300 113.7074440  38.8263201
  64.6224820 113.1855962  38.0646664  63.4323859 113.5440586  38.9289885
  69.4142583 112.7110219  46.6337945  70.2005672 112.2929642  46.2828362
  69.6781287 113.6156311  46.8019593  69.5852660 118.1483069  41.3326601
  68.9498493 118.2217696  42.0447506  69.2550066 118.7376668  40.6545681
  74.8151010 112.6485452  47.5370923  75.5476182 112.0784669  47.7708753
  74.0590365 112.2607052  47.9777429  64.0895588 115.6102546  41.0287576
  63.9731847 114.9347450  41.6968661  64.1997848 115.1234920  40.2119729
  66.4327129 115.0712693  44.7334266  66.0685337 114.5443314  45.4447187
  67.2894245 114.6811162  44.5600751  72.3376430 106.3607026  51.9965532
  72.0059755 107.2302437  51.7726747  71.7422043 106.0443310  52.6759562
  66.0732616 110.1002593  39.7295614  66.2407019 110.9682829  40.0966085
  65.8829785 110.2629875  38.8056903  68.8307950 118.5619572  51.3961444
  68.5308673 119.4644611  51.2877252  68.4859009 118.2951755  52.2482597
  62.2820431 115.0133369  47.4298149  61.3570928 114.8809583  47.6375841
  62.5304844 115.7927588  47.9268091  72.2305093 111.0802112  49.0758882
  71.3221971 111.0117521  48.7817643  72.1792689 111.5574057  49.9040707
  66.0521837 112.5560251  40.7142281  65.9321462 113.0017301  41.5527761
  65.3574426 112.9045568  40.1555819  59.6429242 114.6566642  48.2641938
  59.7721623 114.9101121  49.1781350  58.9626693 115.2494350  47.9446593
  63.8128729 125.3263892  44.3632412  63.7352759 126.2771717  44.4420893
  63.2090373 124.9809765  45.0207338  66.3045959 112.4991758  57.0193779
  65.5279293 113.0585678  57.0096644  66.9436522 112.9848541  57.5408649
  74.0966740 109.2818551  50.8536756  73.4541120 109.5751084  50.2076550
  73.5921668 109.1671471  51.6589952  71.7506903 113.0281724  41.5422615
  72.6624760 113.2609111  41.3670312  71.2416550 113.6118768  40.9797694
  64.5592331 115.3077211  56.5811746  65.3007016 115.8462255  56.3046570
  63.8529317 115.9343500  56.7383298  70.0347671 117.4506352  55.1783908
  70.4431027 117.0088762  54.4338540  69.3124933 116.8758979  55.4318100
  66.3878741 112.3878958  52.5517464  67.2339936 112.8118372  52.6952113
  66.3277379 111.7312583  53.2456028  70.3576486 118.0107542  48.9336196
  69.7285348 118.1753256  48.2312264  69.9702148 118.4249152  49.7047160
  74.2365718 118.9461980  46.2880560  73.5516756 119.3260881  45.7377593
  74.3209567 119.5557307  47.0212508  69.5378186 110.0483327  54.2098638
  69.2939118 110.8025387  53.6732914  69.8138117 110.4268674  55.0445885
  71.4916649 116.5921939  52.8875904  71.7033544 117.2353699  52.2110285
  71.4446397 115.7584256  52.4197834  69.0942878 109.2039760  49.7912476
  68.2327357 109.5021013  50.0829213  69.1205313 109.4210159  48.8593508
  65.9104448 117.7481950  46.1986281  66.3742793 118.0269653  45.4090904
  65.6461246 116.8465395  46.0159372  62.8028529 117.2953432  49.1366045
  63.3729886 117.7240700  48.4983529  63.3936641 117.0136017  49.8350230
  64.8473334 113.8705103  43.0075847  65.5497377 114.3226146  43.4749773
  64.5153962 113.2288922  43.6355740  63.2953695 112.4616859  57.3827056
  62.6652356 113.1433140  57.6162453  63.1889783 112.3499941  56.4380194
  58.5898668 112.1288655  48.3092980  57.7997722 112.3846184  47.8333091
  59.0809915 112.9436993  48.4145021  72.6062477 119.4693895  51.0598261
  73.4279921 119.0674082  50.7780943  72.6024880 119.3662129  52.0114377
  60.5413413 112.4933235  45.2676457  59.7444576 112.6051929  45.7859953
  60.3139005 112.8319887  44.4017347  66.3719081 119.0177938  53.2158972
  66.4363513 119.4798345  54.0517143  65.6630005 118.3875303  53.3441281
  56.8736371 112.3819146  50.7407971  57.1244409 113.2666156  51.0065547
  57.4095919 112.2023747  49.9683063  80.6968470 115.8132643  47.4083232
  79.9432179 115.2440041  47.2527237  80.8316011 115.7795307  48.3553867
  66.0867098 120.6846045  43.0837952  65.9512773 121.5297581  43.5122800
  66.6276911 120.8865323  42.3203886  62.5734438 106.7637625  59.7452307
  62.1801383 106.2103824  60.4199951  63.3900578 107.0748204  60.1358825
  59.5396496 118.2021483  43.6565877  60.0521016 118.9964734  43.8071442
  60.1919208 117.5047774  43.5899478  61.3491380 121.3187240  45.7388630
  61.5258009 122.2405204  45.5509614  62.1448214 121.0045659  46.1683010
  65.4902399 108.1795504  57.3372564  66.2312112 108.7802657  57.2577026
  65.7220322 107.4373142  56.7790606  60.6343737 113.3651872  55.6150793
  60.5197252 112.4637129  55.9157892  59.7788255 113.6115568  55.2635610
  67.7135575 121.3069612  57.2138294  67.2699429 120.5205990  56.8959198
  68.3752788 121.4948762  56.5482185  62.4722696 122.8365413  51.7398972
  63.0230121 122.7082477  50.9675966  61.6334172 123.1360302  51.3893865
  69.8116813 121.5872412  55.2419695  69.7935288 122.4081293  54.7499964
  70.7336733 121.4626487  55.4669836  66.2689867 119.1016541  56.0843204
  66.8018204 118.3404829  55.8542512  65.7403948 118.8090193  56.8267358
  69.4359562 104.2076607  51.6136845  69.0923831 105.0978249  51.5375956
  69.8038524 104.0178265  50.7506430  57.5045412 116.5310138  44.4325447
  58.3420634 116.9407146  44.2159155  57.6823680 115.5909580  44.4025641
  69.4009845 114.1985218  40.1209280  68.8856468 114.9689823  40.3597668
  69.1287153 113.5250354  40.7442342  66.9856956 109.0434919  45.1794519
  66.1298552 108.6541769  45.0000158  67.3983907 109.1226880  44.3194304
  68.5156102 106.5781262  49.5786079  68.0120898 106.5411397  48.7653884
  68.8086709 107.4874005  49.6382735  64.7598988 106.6619992  48.5852260
  65.6251985 106.4662801  48.2258150  64.8276497 106.4330344  49.5121617
  74.3744119 116.9517573  42.0562454  73.5973561 116.6128732  41.6117616
  75.0535600 116.9570196  41.3817419  69.1896148 112.0712310  41.9469062
  68.8846283 112.3858460  42.7979205  70.1426590 112.1493730  41.9896395
  67.6342580 118.2302534  43.5962016  67.1063941 117.4955293  43.2835253
  67.1330082 119.0077210  43.3501984  72.6135426 116.4251554  48.7129062
  71.9559100 117.1150816  48.8009191  73.4175825 116.8147986  49.0563048
  62.3661307 108.8922200  45.9568627  62.9405059 108.6697381  45.2241820
  62.9532290 108.9610894  46.7097228  71.4240884 114.7795927  46.7633004
  71.9372766 115.4125919  47.2654713  72.0742108 114.1797122  46.3976364
  62.6930894 110.9226661  39.9764512  61.8568207 111.2601348  40.2973787
  62.5535664 110.7875641  39.0391649  64.6683975 105.7663449  44.6843697
  64.0148387 105.4512466  44.0600311  64.6264449 105.1439189  45.4103519
  65.7795180 116.0482744  36.5996989  64.8722242 115.8171997  36.7988138
  66.2766212 115.2520363  36.7870970  68.6863259 124.7580251  39.5193675
  68.0124957 125.0611948  40.1278633  69.0729081 125.5609331  39.1699132
  67.9021715 112.2545382  49.0091344  66.9844277 112.4760329  48.8513032
  68.3181859 112.3291693  48.1503052  68.6856763 113.6536798  44.1394024
  69.4328582 114.1658195  43.8301146  68.9548353 113.3320851  44.9998418
  66.9583413 116.1495339  41.1220979  66.0494632 115.8654372  41.2193448
  66.9878497 116.5694417  40.2624286  72.1902681 119.7601928  44.8912146
  71.7365008 118.9192838  44.9477337  71.5596647 120.3963327  45.2286926
  71.1335600 110.6893914  46.1212814  70.3958357 110.1771301  46.4523056
  71.3862374 110.2494296  45.3096091  70.6335620 121.5978425  45.8261964
  70.9258594 122.1583482  45.1074330  71.1434240 121.8906986  46.5815124
  71.2347227 103.4670166  46.7154583  71.5406104 102.6067530  46.4280498
  71.9599832 104.0587787  46.5153577  57.5271584 113.8700853  45.1036181
  57.3295983 113.2770214  44.3787247  56.9718248 113.5653063  45.8212120
  65.5068307 113.7623959  47.2230774  65.5616917 112.8097796  47.1473251
  64.6959509 113.9183399  47.7072072  66.6559501 117.6904083  38.4609057
  66.2178931 116.9739941  38.0014695  67.3969942 117.9180197  37.8994149
  63.4460667 112.3801019  44.9821153  62.6328533 112.6795190  45.3886345
  63.9419661 111.9856708  45.6995635  65.5969245 122.3758776  46.9155418
  65.5545424 122.6019622  45.9863950  66.5131944 122.1422151  47.0641219
  69.0434879 112.8442844  53.8136047  69.3984267 113.0714317  54.6730513
  69.6907010 113.1761220  53.1913302  74.7732616 115.9661280  44.5185376
  74.6350514 116.1562876  43.5906565  74.4168835 116.7280662  44.9753427
  62.9374742 109.9519375  50.5982388  63.5774121 109.8108134  49.9005351
  62.1052272 109.6653888  50.2220990  74.8001995 118.0337807  49.5296647
  75.2338502 117.9413096  50.3779701  75.5133576 118.0095307  48.8916663
  63.7135046 119.2521805  46.7117380  64.5075644 118.7572125  46.5099955
  63.0026738 118.7239668  46.3485086  68.5329890 121.6339901  51.0629748
  68.5866913 122.2030837  51.8307464  67.6644672 121.8041786  50.6983785
  60.0217809 113.3964887  42.7877133  59.0915397 113.3349342  43.0047095
  60.1175281 112.8740840  41.9913774  59.9403358 109.9219700  45.3755375
  60.2010176 110.8365033  45.2664535  60.7620531 109.4544142  45.5251988
  61.4128284 111.3357457  52.5454199  62.0851337 111.1274819  51.8966848
  60.5858070 111.1379543  52.1059432  75.6617545 118.0761507  52.0629533
  75.8553435 118.9807318  52.3088808  75.5618163 117.6168926  52.8968118
  67.3153856 107.9619398  54.5619860  66.6681771 108.6609347  54.4684336
  68.0854871 108.3955542  54.9296108  70.7232654 118.2268250  57.6370413
  70.5718160 117.9978802  56.7200497  70.7137333 119.1838851  57.6501758
  67.4917990 115.8000163  52.6216680  68.4210050 115.9511322  52.4485647
  67.0709020 115.8884183  51.7665326  66.2906322 119.8250827  50.3915217
  66.1517408 119.4569612  51.2641156  65.5020918 120.3398467  50.2199175
  66.8854474 124.9259924  41.7340754  67.0606229 124.4547967  42.5486377
  66.1987262 125.5525690  41.9622015  67.8411537 119.2032430  47.7804055
  67.5061370 119.1633200  48.6761705  67.3415483 118.5377146  47.3074465
  61.8155781 114.6100060  53.3056636  61.6775579 113.8780299  53.9068175
  62.7260704 114.5208960  53.0240824  70.7770729 116.5488464  38.0541115
  70.1599899 115.8235292  37.9574168  70.3087217 117.3097824  37.7108189
  64.4438082 114.3220019  52.7940316  65.1537700 113.6813211  52.7526934
  64.4007390 114.5732914  53.7166497  72.4324860 121.2587372  55.7146895
  72.3737406 120.5746593  55.0477478  72.8344379 122.0006363  55.2627521
  63.1567016 111.3085237  54.6135955  62.6204373 110.8575976  55.2657552
  62.5683724 111.4431146  53.8706420  62.5669275 110.7673888  37.1762419
  61.6898741 110.6462689  36.8124666  63.0427028 109.9759967  36.9241308
  72.4342268 119.2226956  53.9460875  71.5469046 118.8852878  54.0687274
  73.0040819 118.4909988  54.1829640  54.0871415 115.5551048  47.2703926
  54.7742455 115.2412778  46.6824942  53.9319543 116.4592413  46.9971178
  58.8906137 110.4441245  51.6988950  58.8064326 109.8366914  50.9639360
  58.0688843 110.9350263  51.6998446  65.9643421 123.8828409  50.9122118
  65.8913592 124.6883380  51.4241423  65.5220814 124.0820375  50.0870140
  65.7533201 123.1200179  44.4224940  64.9700722 123.6621859  44.5163164
  66.4525946 123.6374158  44.8219181  69.0629851 108.9294808  47.0659145
  69.5598550 108.1764771  46.7460215  68.2916832 108.9659125  46.5002354
  76.9159608 114.6335174  48.7077437  76.9049484 115.5159889  48.3371370
  76.0476988 114.2806725  48.5131974  68.4242104 123.7815243  53.0680277
  69.1370077 124.4162708  52.9956178  67.9332133 123.8779109  52.2520279
  70.1459631 117.6866495  44.6397568  69.2115910 117.8067958  44.4702273
  70.3236300 116.7838962  44.3757578  65.6464819 111.0712191  46.7930830
  65.2762607 110.5183232  47.4811735  66.1423912 110.4670325  46.2405830
  73.5332183 113.5283815  45.1747603  73.9992635 114.3611806  45.1007905
  73.9839683 113.0628796  45.8792861  63.4754018 121.5309686  53.8885848
  64.1763477 122.1646169  54.0415242  63.0049133 121.8724418  53.1281487
  71.6008414 119.8727636  42.1733755  71.8768258 119.7584231  43.0827629
  70.7312913 119.4745121  42.1345928  71.5048845 105.8964402  49.2138504
  70.5911925 106.1268629  49.3820711  71.9341947 105.9802846  50.0652536
  71.2755304 114.0854294  51.7138398  70.6226754 114.3330201  51.0590851
  71.6535684 113.2718432  51.3800875  68.2362478 124.1213987  45.8166568
  68.4184872 123.3035643  46.2794321  69.0595464 124.3381679  45.3791458
  68.5704643 123.0482172  43.0781617  69.0992410 122.5374627  42.4651779
  68.8332863 122.7324702  43.9427150  67.3242877 114.8274105  58.2004435
  66.6483514 114.7268234  58.8706810  68.1470511 114.6713319  58.6640432
  59.0721736 121.0646041  50.8216950  59.6575173 120.3189729  50.9544854
  58.8746575 121.3749998  51.7053614  61.9260391 124.0997289  45.8379393
  61.2570767 124.5843416  45.3543433  61.7873261 124.3466509  46.7522771
  53.6639391 113.6351642  49.5421393  53.7023490 113.1015232  50.3358512
  53.1579684 113.1086847  48.9232371  66.0665660 126.1341032  52.4362051
  66.6183968 126.2972654  53.2011136  66.4071853 126.7245470  51.7642076
  61.0430153 108.4816182  53.0383936  61.1071480 109.3431013  52.6261333
  60.9797273 107.8690184  52.3056294  60.5182426 110.5539315  56.6856970
  61.1454464 110.1716392  57.2994494  59.6610344 110.3353517  57.0512662
  70.9176534 120.9602290  58.2910705  71.4616438 121.5732248  57.7965660
  70.3363379 121.5181868  58.8077718  57.2947968 112.3615744  42.6175325
  57.5901409 111.4526422  42.5642379  56.3936004 112.3403483  42.2956327
  69.2034047 124.0823008  49.4225733  69.0785187 123.2812748  48.9136679
  69.8613138 124.5769201  48.9339703  60.8242215 110.4371740  48.6002873
  60.1028801 111.0507708  48.4610347  61.6135471 110.9729505  48.5219519
  71.2668956 121.8832028  51.0505283  70.3199291 121.7637379  50.9783610
  71.6151729 120.9954526  51.1331545  63.6268529 107.7726167  54.8743525
  64.1502931 108.0188463  55.6369834  63.4080862 108.6046202  54.4546663
  59.0235810 110.0429841  42.7414650  58.6948516 109.1627220  42.5589756
  59.3775181 109.9877510  43.6291039  68.2715389 121.6784744  47.2509635
  68.1240351 120.7501451  47.4317206  69.0968882 121.7004835  46.7666711
  62.1377633 110.3302811  43.1090128  62.4773706 110.8588732  42.3868736
  62.5849754 110.6683217  43.8848694  71.8749511 122.5013303  48.3374508
  72.7996058 122.2956164  48.1998959  71.7064814 122.2529704  49.2463850
  64.8321074 108.7139862  52.5593196  64.4917894 107.9147675  52.9613876
  64.1260080 109.0141573  51.9870029  65.4837546 105.7989174  51.0120519
  66.3063615 105.3249652  50.8899409  65.7275609 106.5779658  51.5119205
  64.1245780 108.8277433  41.3083420  64.8454143 109.2058686  40.8047137
  63.5011084 109.5466310  41.4118398  68.2676903 109.5322582  42.2441753
  68.4840518 110.4147220  41.9430581  67.7870970 109.1408795  41.5147395
  63.0076125 112.4908295  48.8212497  62.8620705 112.8048598  49.7136779
  62.5301328 113.1093195  48.2683396  64.8672507 109.4810843  48.8693387
  64.8534076 108.5851936  48.5325685  65.5844936 109.4881507  49.5031673
  66.7198638 109.9148183  50.9146514  66.4616416 110.8365254  50.9130845
  66.1883678 109.5178618  51.6046978  71.6644827 123.0198970  43.6936600
  71.8381704 122.4545393  42.9410452  72.1573718 123.8199865  43.5116090
  57.4821787 115.0313639  51.7600159  56.9375255 115.8073447  51.8920433
  58.3601137 115.3784444  51.6019280  64.2709403 108.3625223  44.1380957
  64.3925315 107.4341869  44.3371845  63.9811446 108.3763909  43.2259272
  67.1400594 106.0480134  47.2747677  67.1622291 106.1119467  46.3199656
  67.5568653 105.2084642  47.4688183  77.5184218 115.7835393  45.3126899
  77.9615364 115.0342718  44.9146023  76.6410728 115.7745530  44.9300631
  72.6519999 122.3365735  40.7933498  73.3470904 122.9572427  41.0120813
  72.9943150 121.4861086  41.0685876  58.2687809 114.1583536  54.6530315
  57.5269545 114.3066171  55.2394946  57.9480553 114.4191801  53.7897065
  74.5511422 119.7865440  42.3220829  75.0762747 120.1252713  41.5970149
  74.4633775 118.8512456  42.1383963  66.2131471 123.6999514  54.4510705
  66.5218598 123.4548661  55.3233405  67.0106953 123.9046152  53.9629576
  66.2352083 125.8537423  46.6816082  65.7957074 125.3613802  47.3748939
  66.9860200 125.3110391  46.4408157  58.7144422 122.0448964  46.6840710
  59.5402442 121.7452736  46.3039354  58.3638474 121.2756587  47.1330499
  63.6825955 121.3975433  48.7538384  63.0605965 120.7346138  48.4540611
  64.3530822 121.4236564  48.0712031  56.9153027 119.9635291  47.6429644
  56.0784936 119.5357465  47.4613645  56.8876673 120.1567734  48.5800435
  63.7550483 109.8757221  58.3470890  63.8038638 110.7519343  57.9648659
  64.2972997 109.3334614  57.7742533  74.2405329 120.4198344  57.6272027
  73.4500872 120.4022483  57.0876526  74.0038683 120.9586638  58.3821063
  74.3603204 117.2690810  54.9404755  74.4101209 117.1040818  55.8820278
  74.2517127 116.4018069  54.5502636  63.2439462 119.9479356  42.2296844
  63.3927583 120.6314820  41.5763517  64.0505906 119.9284446  42.7446300
  71.6506966 113.2521738  56.2564062  72.5516829 113.1128203  55.9648060
  71.7254941 113.4176193  57.1962239  65.9849771 110.6288593  55.1017248
  65.1153081 110.9222159  54.8299837  66.2209252 111.2129038  55.8224512
  75.8621400 119.6887752  55.1846777  75.5706209 120.0517732  56.0210238
  75.2493532 118.9754760  55.0060109  77.0617083 117.2540631  47.7049347
  77.8963974 117.6930436  47.8686907  77.1976212 116.7779285  46.8857593
  74.1108589 114.8120366  53.6526835  74.5862710 115.0048013  52.8445686
  73.1874154 114.8679552  53.4070218  60.9992095 115.9744534  43.2357913
  60.7538137 115.0706864  43.4338123  61.1688010 115.9761684  42.2937391
  68.6888805 106.8468210  52.6182669  69.2070749 107.5829237  52.2929157
  68.3343938 107.1532203  53.4529428  60.2687743 111.7072891  40.7344075
  59.5756988 111.7817246  40.0784110  60.0239495 110.9433235  41.2565591
  68.9401399 103.2668492  48.1383565  69.2203153 102.5991682  48.7643992
  69.7252006 103.4597588  47.6258229  66.7434868 122.4427486  39.7008592
  66.1708835 123.0617673  39.2479063  67.3167661 122.9926848  40.2348514
  72.8110258 111.6886126  51.8855140  73.7627681 111.7884224  51.9067364
  72.6413708 110.8964395  52.3953225  70.8324637 108.7741710  52.0714541
  70.2374569 109.0546722  51.3761030  70.5474334 109.2635611  52.8431282
  69.9632128 122.7264636  40.8317174  70.8962801 122.6610198  41.0350049
  69.8755340 123.5620903  40.3731707  72.5920144 122.0430507  37.7921121
  72.5133776 121.7090370  38.6856879  73.4129811 122.5352275  37.7912594
  75.2898335 114.9092246  50.9997440  75.2574656 113.9708247  51.1857124
  75.8998959 114.9876283  50.2663265  67.1281666 113.7788299  37.0424644
  68.0740771 113.6494507  37.1113062  66.7495911 113.0402961  37.5194072
  75.4392824 111.7003290  51.0455723  74.9231873 110.9161746  50.8585652
  76.3232772 111.3722006  51.2102243  73.1003551 105.4444305  47.0051536
  72.9028372 105.1359393  47.8894868  73.7103256 106.1705944  47.1349466
  81.1074885 115.9708253  50.1403477  81.8378274 115.7093541  50.7011180
  80.4981831 115.2336975  50.1805545  79.1890182 114.1116116  50.7377928
  78.4623346 113.9772080  50.1294420  78.7737469 114.4192944  51.5434646
  67.0120359 117.8306045  58.5025301  67.9323368 118.0084644  58.6965348
  66.9769942 116.8862091  58.3505000  65.3124583 111.7038275  36.9779529
  64.4056039 111.4071388  37.0542243  65.5900564 111.4068094  36.1113816
  56.2302524 113.0244639  47.4278576  55.9105308 112.1709947  47.1352950
  55.6835952 113.2393217  48.1836543  60.0082431 115.7407080  51.1448082
  60.2268441 116.6724188  51.1636116  60.4208205 115.3815054  51.9302886
  66.9286649 106.2475165  43.1323771  66.1187378 105.9022250  43.5079017
  67.6171066 105.9382709  43.7211382  68.8577197 105.3253212  44.7548067
  69.4108236 105.7448665  45.4138090  69.0947284 104.3988960  44.7971023
  64.8810297 111.3140286  60.5350831  64.7807024 112.2634643  60.4662922
  64.6631839 110.9858525  59.6626901  64.0823368 108.5625211  37.1191508
  64.9442532 108.8880109  37.3787326  64.2673712 107.7756707  36.6064574
  56.0990784 116.6447550  49.3971697  55.4054255 116.2301503  48.8841652
  56.8463775 116.6868087  48.8005116  72.2356005 107.4353737  44.2626731
  71.6554674 108.0938541  43.8804784  71.9691937 106.6131082  43.8514149
  70.6859571 106.8358795  46.4648052  71.1859349 106.9475329  45.6562371
  71.3295179 106.5319848  47.1048860  64.7441567 114.7437424  59.3515893
  64.2608648 115.5437785  59.5579782  64.8302506 114.7545369  58.3983337
  58.0127526 116.5765804  47.2737712  57.9898214 116.6753491  46.3219595
  58.3228163 117.4230955  47.5954878  60.6714904 118.6341959  51.3884327
  61.6258158 118.6025902  51.3214258  60.4727428 118.1732583  52.2034552
  61.2614286 117.2043075  53.9555124  62.0807175 117.6987154  53.9789962
  61.5351094 116.2875043  53.9272692  71.0180883 109.5953828  43.3183080
  70.1306738 109.8803478  43.1003275  71.4334872 109.4347591  42.4710357
  74.3695419 109.6200349  47.0337419  75.1455809 110.1096801  47.3062036
  73.6443553 110.0458403  47.4909288  76.8067977 110.3327968  48.0911360
  77.4012468 110.0923704  47.3804668  76.8794561 109.6135098  48.7184896
  59.0265133 124.1761579  48.4054524  58.8919601 123.4161980  47.8392522
  58.6097195 124.9002479  47.9383313  70.1624096 119.3598502  37.4131100
  70.8659946 119.5648505  38.0288755  69.4386745 119.9275264  37.6780183
  70.9921906 115.1108363  43.5333370  70.9357108 115.5676915  42.6941002
  71.5450249 114.3499048  43.3556213  74.8026712 110.8998095  44.3583489
  74.5463646 110.4994731  45.1891697  74.1779580 111.6141889  44.2333629
  79.1139050 113.6394169  46.8654781  78.5538608 113.7087358  47.6386343
  78.5082553 113.4635153  46.1454277  62.1834259 125.0730896  48.6172967
  62.0666643 126.0176328  48.5151657  61.3626705 124.7704457  49.0058766
  72.0710793 119.7981031  39.4629560  72.9056397 119.3662230  39.2807035
  71.9095136 119.6263045  40.3906454  71.7256686 116.3013145  40.8285899
  71.6705489 116.1357416  39.8874343  71.1002741 117.0089178  40.9848089
  56.5149201 111.5381209  54.6547321  57.1608064 111.0280163  55.1434546
  56.3066352 112.2749891  55.2290747  69.0402593 118.6062057  60.1539462
  69.9093752 118.7802709  59.7926097  68.5609344 119.4256473  60.0315191
  65.0352811 105.8021254  40.4071217  65.0231481 106.7463094  40.5639488
  65.9276233 105.6191399  40.1130679  63.2088773 125.7259158  51.8328896
  64.1116020 125.7582768  52.1495390  62.9826143 124.7959609  51.8475231
  64.9642375 124.4790144  48.4938974  64.0138006 124.4792006  48.3803346
  65.2674861 123.7322879  47.9775009  68.8504931 102.3964030  44.6617154
  68.0837326 101.8422517  44.8073837  69.2615636 102.4685899  45.5231306
  60.8546692 108.6848826  58.7522336  61.7178153 108.3285631  58.9625660
  60.2812102 108.3462721  59.4397740  80.6995069 130.3150683  49.5584737
  81.3373479 130.1957430  48.8548077  80.5815911 131.2631526  49.6172689
  77.5084775 130.2678111  49.4946261  77.1703286 130.1519175  48.6066796
  78.3774543 129.8669276  49.4747267  77.9904558 131.4212962  55.4532467
  77.9793199 131.0265761  54.5812970  78.1525197 130.6879035  56.0466238
  75.2093054 129.0366358  38.8263201  75.4618575 128.5147879  38.0646664
  74.2717613 128.8732503  38.9289885  80.2536337 128.0402136  46.6337945
  81.0399426 127.6221560  46.2828362  80.5175041 128.9448229  46.8019593
  85.6544764 127.9777370  47.5370923  86.3869936 127.4076586  47.7708753
  84.8984120 127.5898970  47.9777429  77.2720884 130.4004611  44.7334266
  76.9079091 129.8735232  45.4447187  78.1288000 130.0103080  44.5600751
  83.1770185 121.6898944  51.9965532  82.8453509 122.5594355  51.7726747
  82.5815798 121.3735228  52.6759562  76.9126371 125.4294511  39.7295614
  77.0800773 126.2974747  40.0966085  76.7223540 125.5921792  38.8056903
  83.0698848 126.4094030  49.0758882  82.1615725 126.3409438  48.7817643
  83.0186444 126.8865975  49.9040707  76.8915592 127.8852168  40.7142281
  76.7715217 128.3309219  41.5527761  76.1968180 128.2337486  40.1555819
  77.1439714 127.8283675  57.0193779  76.3673048 128.3877596  57.0096644
  77.7830277 128.3140458  57.5408649  84.9360494 124.6110468  50.8536756
  84.2934874 124.9043001  50.2076550  84.4315423 124.4963389  51.6589952
  82.5900658 128.3573641  41.5422615  83.5018514 128.5901028  41.3670312
  82.0810305 128.9410686  40.9797694  80.8741426 132.7798269  55.1783908
  81.2824782 132.3380680  54.4338540  80.1518687 132.2050897  55.4318100
  77.2272496 127.7170876  52.5517464  78.0733691 128.1410290  52.6952113
  77.1671133 127.0604500  53.2456028  80.3771941 125.3775244  54.2098638
  80.1332873 126.1317305  53.6732914  80.6531871 125.7560592  55.0445885
  82.3310404 131.9213857  52.8875904  82.5427299 132.5645617  52.2110285
  82.2840152 131.0876173  52.4197834  79.9336633 124.5331677  49.7912476
  79.0721112 124.8312931  50.0829213  79.9599067 124.7502076  48.8593508
  75.6867088 129.1997020  43.0075847  76.3891131 129.6518064  43.4749773
  75.3547717 128.5580839  43.6355740  74.1347450 127.7908777  57.3827056
  73.5046110 128.4725058  57.6162453  74.0283538 127.6791859  56.4380194
  69.4292422 127.4580573  48.3092980  68.6391476 127.7138102  47.8333091
  69.9203669 128.2728911  48.4145021  71.3807167 127.8225152  45.2676457
  70.5838331 127.9343847  45.7859953  71.1532760 128.1611804  44.4017347
  73.4128192 122.0929543  59.7452307  73.0195138 121.5395741  60.4199951
  74.2294333 122.4040121  60.1358825  76.3296153 123.5087422  57.3372564
  77.0705867 124.1094575  57.2577026  76.5614076 122.7665060  56.7790606
  71.4737491 128.6943789  55.6150793  71.3591007 127.7929046  55.9157892
  70.6182009 128.9407486  55.2635610  80.2753316 119.5368525  51.6136845
  79.9317586 120.4270167  51.5375956  80.6432279 119.3470182  50.7506430
  80.2403599 129.5277136  40.1209280  79.7250222 130.2981741  40.3597668
  79.9680908 128.8542272  40.7442342  77.8250710 124.3726837  45.1794519
  76.9692306 123.9833687  45.0000158  78.2377662 124.4518798  44.3194304
  79.3549857 121.9073180  49.5786079  78.8514652 121.8703315  48.7653884
  79.6480464 122.8165923  49.6382735  75.5992743 121.9911910  48.5852260
  76.4645739 121.7954718  48.2258150  75.6670252 121.7622262  49.5121617
  80.0289902 127.4004228  41.9469062  79.7240038 127.7150377  42.7979205
  80.9820344 127.4785648  41.9896395  73.2055062 124.2214118  45.9568627
  73.7798814 123.9989299  45.2241820  73.7926044 124.2902812  46.7097228
  82.2634639 130.1087845  46.7633004  82.7766521 130.7417836  47.2654713
  82.9135863 129.5089040  46.3976364  73.5324649 126.2518579  39.9764512
  72.6961961 126.5893265  40.2973787  73.3929418 126.1167558  39.0391649
  75.5077729 121.0955367  44.6843697  74.8542142 120.7804384  44.0600311
  75.4658204 120.4731107  45.4103519  76.6188934 131.3774662  36.5996989
  75.7115996 131.1463915  36.7988138  77.1159966 130.5812281  36.7870970
  78.7415470 127.5837300  49.0091344  77.8238031 127.8052247  48.8513032
  79.1575613 127.6583611  48.1503052  79.5250518 128.9828716  44.1394024
  80.2722336 129.4950113  43.8301146  79.7942107 128.6612769  44.9998418
  77.7977168 131.4787257  41.1220979  76.8888387 131.1946289  41.2193448
  77.8272251 131.8986335  40.2624286  81.9729355 126.0185832  46.1212814
  81.2352111 125.5063218  46.4523056  82.2256128 125.5786214  45.3096091
  82.0740982 118.7962084  46.7154583  82.3799859 117.9359447  46.4280498
  82.7993587 119.3879704  46.5153577  76.3462062 129.0915877  47.2230774
  76.4010672 128.1389714  47.1473251  75.5353264 129.2475316  47.7072072
  74.2854422 127.7092937  44.9821153  73.4722287 128.0087107  45.3886345
  74.7813416 127.3148626  45.6995635  79.8828633 128.1734761  53.8136047
  80.2378021 128.4006234  54.6730513  80.5300765 128.5053138  53.1913302
  73.7768496 125.2811292  50.5982388  74.4167876 125.1400051  49.9005351
  72.9446027 124.9945806  50.2220990  70.8611564 128.7256805  42.7877133
  69.9309152 128.6641260  43.0047095  70.9569036 128.2032757  41.9913774
  70.7797113 125.2511617  45.3755375  71.0403930 126.1656951  45.2664535
  71.6014285 124.7836060  45.5251988  72.2522038 126.6649375  52.5454199
  72.9245092 126.4566737  51.8966848  71.4251825 126.4671461  52.1059432
  78.1547610 123.2911315  54.5619860  77.5075525 123.9901265  54.4684336
  78.9248626 123.7247459  54.9296108  78.3311745 131.1292080  52.6216680
  79.2603805 131.2803240  52.4485647  77.9102775 131.2176101  51.7665326
  72.6549535 129.9391978  53.3056636  72.5169333 129.2072216  53.9068175
  73.5654459 129.8500878  53.0240824  81.6164483 131.8780382  38.0541115
  80.9993654 131.1527210  37.9574168  81.1480972 132.6389742  37.7108189
  75.2831836 129.6511937  52.7940316  75.9931455 129.0105129  52.7526934
  75.2401144 129.9024832  53.7166497  73.9960770 126.6377155  54.6135955
  73.4598127 126.1867893  55.2657552  73.4077479 126.7723064  53.8706420
  73.4063029 126.0965806  37.1762419  72.5292495 125.9754607  36.8124666
  73.8820782 125.3051884  36.9241308  69.7299891 125.7733162  51.6988950
  69.6458080 125.1658832  50.9639360  68.9082598 126.2642181  51.6998446
  79.9023605 124.2586726  47.0659145  80.3992305 123.5056688  46.7460215
  79.1310587 124.2951043  46.5002354  76.4858574 126.4004109  46.7930830
  76.1156361 125.8475149  47.4811735  76.9817666 125.7962242  46.2405830
  84.3725937 128.8575732  45.1747603  84.8386389 129.6903724  45.1007905
  84.8233438 128.3920714  45.8792861  82.3442600 121.2256319  49.2138504
  81.4305680 121.4560546  49.3820711  82.7735701 121.3094764  50.0652536
  82.1149058 129.4146211  51.7138398  81.4620509 129.6622119  51.0590851
  82.4929438 128.6010350  51.3800875  78.1636631 130.1566022  58.2004435
  77.4877268 130.0560152  58.8706810  78.9864265 130.0005236  58.6640432
  71.8823908 123.8108100  53.0383936  71.9465234 124.6722931  52.6261333
  71.8191028 123.1982101  52.3056294  71.3576180 125.8831232  56.6856970
  71.9848219 125.5008310  57.2994494  70.5004099 125.6645434  57.0512662
  68.1341723 127.6907661  42.6175325  68.4295164 126.7818340  42.5642379
  67.2329759 127.6695401  42.2956327  71.6635970 125.7663658  48.6002873
  70.9422556 126.3799626  48.4610347  72.4529226 126.3021423  48.5219519
  74.4662283 123.1018084  54.8743525  74.9896685 123.3480381  55.6369834
  74.2474617 123.9338119  54.4546663  69.8629564 125.3721759  42.7414650
  69.5342271 124.4919138  42.5589756  70.2168935 125.3169428  43.6291039
  72.9771388 125.6594729  43.1090128  73.3167460 126.1880650  42.3868736
  73.4243508 125.9975135  43.8848694  75.6714828 124.0431780  52.5593196
  75.3311649 123.2439593  52.9613876  74.9653835 124.3433490  51.9870029
  76.3231300 121.1281092  51.0120519  77.1457370 120.6541570  50.8899409
  76.5669364 121.9071576  51.5119205  74.9639535 124.1569350  41.3083420
  75.6847897 124.5350603  40.8047137  74.3404839 124.8758227  41.4118398
  79.1070658 124.8614499  42.2441753  79.3234272 125.7439137  41.9430581
  78.6264725 124.4700713  41.5147395  73.8469879 127.8200213  48.8212497
  73.7014460 128.1340516  49.7136779  73.3695083 128.4385113  48.2683396
  75.7066262 124.8102761  48.8693387  75.6927831 123.9143854  48.5325685
  76.4238690 124.8173424  49.5031673  77.5592393 125.2440101  50.9146514
  77.3010170 126.1657171  50.9130845  77.0277433 124.8470535  51.6046978
  75.1103158 123.6917141  44.1380957  75.2319069 122.7633787  44.3371845
  74.8205200 123.7055827  43.2259272  77.9794348 121.3772051  47.2747677
  78.0016045 121.4411384  46.3199656  78.3962407 120.5376560  47.4688183
  74.5944237 125.2049138  58.3470890  74.6432393 126.0811261  57.9648659
  75.1366752 124.6626531  57.7742533  82.4900720 128.5813656  56.2564062
  83.3910583 128.4420121  55.9648060  82.5648695 128.7468111  57.1962239
  76.8243526 125.9580511  55.1017248  75.9546835 126.2514077  54.8299837
  77.0603006 126.5420956  55.8224512  84.9502343 130.1412284  53.6526835
  85.4256465 130.3339930  52.8445686  84.0267909 130.1971470  53.4070218
  79.5282560 122.1760128  52.6182669  80.0464504 122.9121155  52.2929157
  79.1737692 122.4824121  53.4529428  71.1081497 127.0364809  40.7344075
  70.4150742 127.1109164  40.0784110  70.8633249 126.2725152  41.2565591
  79.7795154 118.5960410  48.1383565  80.0596908 117.9283599  48.7643992
  80.5645761 118.7889506  47.6258229  83.6504012 127.0178044  51.8855140
  84.6021435 127.1176142  51.9067364  83.4807463 126.2256313  52.3953225
  81.6718392 124.1033627  52.0714541  81.0768324 124.3838640  51.3761030
  81.3868088 124.5927528  52.8431282  77.9675421 129.1080217  37.0424644
  78.9134526 128.9786425  37.1113062  77.5889666 128.3694879  37.5194072
  86.2786578 127.0295207  51.0455723  85.7625627 126.2453664  50.8585652
  87.1626527 126.7013924  51.2102243  83.9397305 120.7736223  47.0051536
  83.7422126 120.4651311  47.8894868  84.5497011 121.4997862  47.1349466
  76.1518338 127.0330193  36.9779529  75.2449793 126.7363306  37.0542243
  76.4294319 126.7360011  36.1113816  77.7680404 121.5767083  43.1323771
  76.9581132 121.2314168  43.5079017  78.4564821 121.2674627  43.7211382
  79.6970952 120.6545130  44.7548067  80.2501991 121.0740583  45.4138090
  79.9341038 119.7280878  44.7971023  75.7204051 126.6432203  60.5350831
  75.6200778 127.5926560  60.4662922  75.5025593 126.3150442  59.6626901
  74.9217123 123.8917128  37.1191508  75.7836287 124.2172027  37.3787326
  75.1067467 123.1048624  36.6064574  83.0749759 122.7645655  44.2626731
  82.4948428 123.4230459  43.8804784  82.8085692 121.9422999  43.8514149
  81.5253325 122.1650713  46.4648052  82.0253104 122.2767247  45.6562371
  82.1688933 121.8611765  47.1048860  75.5835321 130.0729342  59.3515893
  75.1002403 130.8729702  59.5579782  75.6696260 130.0837287  58.3983337
  81.8574637 124.9245745  43.3183080  80.9700492 125.2095396  43.1003275
  82.2728626 124.7639509  42.4710357  85.2089173 124.9492266  47.0337419
  85.9849563 125.4388719  47.3062036  84.4837307 125.3750320  47.4909288
  87.6461732 125.6619885  48.0911360  88.2406223 125.4215621  47.3804668
  87.7188316 124.9427016  48.7184896  81.8315661 130.4400281  43.5333370
  81.7750862 130.8968833  42.6941002  82.3844003 129.6790966  43.3556213
  85.6420467 126.2290013  44.3583489  85.3857401 125.8286649  45.1891697
  85.0173335 126.9433807  44.2333629  82.5650440 131.6305062  40.8285899
  82.5099244 131.4649334  39.8874343  81.9396495 132.3381095  40.9848089
  67.3542955 126.8673127  54.6547321  68.0001819 126.3572081  55.1434546
  67.1460106 127.6041808  55.2290747  75.8746566 121.1313171  40.4071217
  75.8625235 122.0755011  40.5639488  76.7669987 120.9483317  40.1130679
  79.6898685 117.7255948  44.6617154  78.9231081 117.1714435  44.8073837
  80.1009390 117.7977817  45.5231306  71.6940446 124.0140744  58.7522336
  72.5571908 123.6577549  58.9625660  71.1205857 123.6754639  59.4397740
  15.6632543  15.3461299  36.2830043  16.3010953  15.2268046  35.5793383
  15.5453386  16.2942143  36.3417995  12.4722249  15.2988727  36.2191568
  12.1340761  15.1829792  35.3312103  13.3412017  14.8979892  36.1992574
  12.9542032  16.4523579  42.1777773  12.9430673  16.0576377  41.3058277
  13.1162672  15.7189652  42.7711545   5.8773497  18.6475395  35.0472679
   6.6694789  18.3066220  34.6318979   6.1170147  18.7570370  35.9674833
   9.6749293  19.2360691  41.1256957   9.3839159  20.1406322  41.0103624
  10.3106278  19.2777218  41.8401027  10.6005500  16.6137539  37.7158317
  11.1969072  16.3893562  37.0015280  10.6580472  15.8722285  38.3183765
  20.6182239  13.0087986  34.2616230  21.3507410  12.4387203  34.4954059
  19.8621594  12.6209587  34.7022735  18.1407659   6.7209560  38.7210838
  17.8090984   7.5904971  38.4972053  17.5453272   6.4045844  39.4004869
  14.6339178  18.9222106  38.1206751  14.3339901  19.8247145  38.0122558
  14.2890238  18.6554289  38.9727904  18.0336322  11.4404646  35.8004188
  17.1253200  11.3720055  35.5062949  17.9823918  11.9176591  36.6286014
   9.6159958  25.6866427  31.0877719   9.5383988  26.6374252  31.1666199
   9.0121602  25.3412299  31.7452645  12.1077188  12.8594292  43.7439086
  11.3310522  13.4188212  43.7341950  12.7467751  13.3451075  44.2653956
  19.8997969   9.6421085  37.5782062  19.2572349   9.9353618  36.9321857
  19.3952897   9.5274005  38.3835259  10.3623560  15.6679745  43.3057053
  11.1038245  16.2064789  43.0291876   9.6560546  16.2946034  43.4628604
  15.8378900  17.8108886  41.9029214  16.2462256  17.3691296  41.1583847
  15.1156161  17.2361513  42.1563407  12.1909970  12.7481493  39.2762771
  13.0371165  13.1720906  39.4197420  12.1308608  12.0915117  39.9701334
  16.1607715  18.3710076  35.6581503  15.5316577  18.5355791  34.9557571
  15.7733377  18.7851686  36.4292467  20.0396946  19.3064514  33.0125867
  19.3547985  19.6863416  32.4622900  20.1240796  19.9159841  33.7457815
  15.3409415  10.4085861  40.9343945  15.0970347  11.1627921  40.3978220
  15.6169346  10.7871209  41.7691192  17.2947878  16.9524473  39.6121210
  17.5064773  17.5956233  38.9355591  17.2477626  16.1186790  39.1443140
  11.7135676  18.1084485  32.9231588  12.1774022  18.3872188  32.1336211
  11.4492475  17.2067929  32.7404679   8.6059757  17.6555966  35.8611351
   9.1761115  18.0843234  35.2228836   9.1967869  17.3738551  36.5595537
   9.0984924  12.8219394  44.1072363   8.4683585  13.5035674  44.3407759
   8.9921012  12.7102475  43.1625501  18.4093706  19.8296429  37.7843568
  19.2311150  19.4276616  37.5026249  18.4056109  19.7264663  38.7359683
  12.1750309  19.3780472  39.9404278  12.2394742  19.8400879  40.7762450
  11.4661233  18.7477837  40.0686588  26.4999699  16.1735177  34.1328539
  25.7463407  15.6042575  33.9772544  26.6347240  16.1397842  35.0799174
   7.1522609  21.6789774  32.4633937   7.3289238  22.6007739  32.2754921
   7.9479443  21.3648193  32.8928317  13.5166803  21.6672146  43.9383601
  13.0730658  20.8808525  43.6204505  14.1784017  21.8551297  43.2727491
   8.2753925  23.1967948  38.4644279   8.8261350  23.0685011  37.6921273
   7.4365401  23.4962837  38.1139172  15.6148042  21.9474946  41.9665002
  15.5966517  22.7683827  41.4745271  16.5367962  21.8229021  42.1915143
  12.0721096  19.4619075  42.8088510  12.6049432  18.7007364  42.5787818
  11.5435177  19.1692727  43.5512665  18.4166654  16.7854088  35.4374369
  17.7590329  17.4753350  35.5254497  19.2207054  17.1750520  35.7808355
  17.2272113  15.1398461  33.4878310  17.7403995  15.7728453  33.9900020
  17.8773337  14.5399657  33.1221670  13.7052944  12.6147917  35.7336651
  12.7875505  12.8362864  35.5758339  14.1213088  12.6894227  34.8748358
  17.9933909  20.1204463  31.6157453  17.5396237  19.2795372  31.6722643
  17.3627876  20.7565861  31.9532233  16.4366849  21.9580959  32.5507271
  16.7289823  22.5186016  31.8319637  16.9465469  22.2509520  33.3060430
  11.4000474  22.7361310  33.6400724  11.3576653  22.9622157  32.7109256
  12.3163173  22.5024685  33.7886525  14.8466108  13.2045378  40.5381353
  15.2015495  13.4316851  41.3975819  15.4938239  13.5363755  39.9158609
  20.5763845  16.3263814  31.2430682  20.4381743  16.5165410  30.3151872
  20.2200063  17.0883197  31.6998734  20.6033224  18.3940341  36.2541954
  21.0369731  18.3015630  37.1025008  21.3164805  18.3697841  35.6161970
   9.5166275  19.6124339  33.4362687  10.3106873  19.1174659  33.2345262
   8.8057967  19.0842202  33.0730393  14.3361119  21.9942435  37.7875055
  14.3898141  22.5633371  38.5552770  13.4675900  22.1644320  37.4229092
  21.4648774  18.4364041  38.7874839  21.6584664  19.3409852  39.0334114
  21.3649392  17.9771460  39.6213424  16.5263882  18.5870784  44.3615720
  16.3749389  18.3581336  43.4445804  16.5168562  19.5441386  44.3747065
  13.2949219  16.1602697  39.3461986  14.2241279  16.3113857  39.1730954
  12.8740249  16.2486718  38.4910633  12.0937551  20.1853361  37.1160524
  11.9548636  19.8172146  37.9886462  11.3052147  20.7001001  36.9444482
  12.6885703  25.2862458  28.4586061  12.8637458  24.8150501  29.2731683
  12.0018491  25.9128224  28.6867321  13.6442766  19.5634964  34.5049362
  13.3092598  19.5235734  35.4007012  13.1446711  18.8979680  34.0319772
   7.6187010  14.9702594  40.0301943   7.4806808  14.2382833  40.6313482
   8.5291933  14.8811494  39.7486131  10.2469310  14.6822553  39.5185623
  10.9568929  14.0415746  39.4772241  10.2038619  14.9335448  40.4411803
  18.2356089  21.6189907  42.4392202  18.1768635  20.9349127  41.7722785
  18.6375607  22.3608897  41.9872828   7.2546788  28.4351821  35.2325921
   7.4943386  29.0670345  35.9104939   6.4115984  28.0839861  35.5191280
  18.2373496  19.5829491  40.6706182  17.3500275  19.2455412  40.7932580
  18.8072047  18.8512522  40.9074947  11.7674650  24.2430943  37.6367425
  11.6944821  25.0485914  38.1486729  11.3252043  24.4422909  36.8115446
  11.5564429  23.4802713  31.1470246  10.7731951  24.0224393  31.2408471
  12.2557175  23.9976693  31.5464487  22.7190837  14.9937708  35.4322743
  22.7080713  15.8762423  35.0616676  21.8508216  14.6409259  35.2377280
  14.2273333  24.1417777  39.7925583  14.9401305  24.7765242  39.7201485
  13.7363362  24.2381643  38.9765585  15.9490860  18.0469030  31.3642875
  15.0147139  18.1670492  31.1947579  16.1267529  17.1441496  31.1002885
  19.3363412  13.8886349  31.8992909  19.8023864  14.7214341  31.8253212
  19.7870912  13.4231331  32.6038168   9.2785247  21.8912220  40.6131154
   9.9794706  22.5248703  40.7660548   8.8080362  22.2326952  39.8526793
  17.0786533  14.4456828  38.4383705  16.4257983  14.6932735  37.7836157
  17.4566913  13.6320966  38.1046182  14.0393707  24.4816521  32.5411875
  14.2216101  23.6638177  33.0039627  14.8626693  24.6984213  32.1036765
  14.3735872  23.4084706  29.8026923  14.9023639  22.8977161  29.1897085
  14.6364092  23.0927236  30.6672456  13.1274106  15.1876639  44.9249742
  12.4514743  15.0870768  45.5952117  13.9501740  15.0315853  45.3885739
   4.8752965  21.4248576  37.5462257   5.4606402  20.6792263  37.6790161
   4.6777803  21.7352532  38.4298921   7.7291620  24.4599823  32.5624699
   7.0601995  24.9445951  32.0788739   7.5904490  24.7069043  33.4768078
  11.8696889  26.4943566  39.1607358  12.4215197  26.6575188  39.9256443
  12.2103082  27.0848004  38.4887383  16.7207763  21.3204824  45.0156012
  17.2647667  21.9334782  44.5210967  16.1394608  21.8784402  45.5323025
  15.0065276  24.4425542  36.1471040  14.8816415  23.6415282  35.6381985
  15.6644367  24.9371735  35.6585010  17.0700184  22.2434562  37.7750590
  16.1230520  22.1239913  37.7028917  17.4182957  21.3557060  37.8576851
  14.0746618  22.0387278  33.9754942  13.9271580  21.1103986  34.1562512
  14.9000111  22.0607369  33.4912017  17.6780739  22.8615837  35.0619815
  18.6027287  22.6558698  34.9244266  17.5096043  22.6132238  35.9709156
  17.4676056  23.3801504  30.4181906  17.6412933  22.8147927  29.6655759
  17.9604947  24.1802399  30.2361396  23.3215447  16.1437927  32.0372206
  23.7646593  15.3945253  31.6391329  22.4441957  16.1348064  31.6545938
  18.4551228  22.6968269  27.5178805  19.1502133  23.3174962  27.7366119
  18.7974378  21.8463620  27.7931183  20.3542651  20.1467974  29.0466135
  20.8793975  20.4855247  28.3215455  20.2665004  19.2114990  28.8629270
  12.0162700  24.0602048  41.1756012  12.3249826  23.8151195  42.0478712
  12.8138182  24.2648687  40.6874882  12.0383312  26.2139958  33.4061389
  11.5988302  25.7216336  34.0994245  12.7891429  25.6712925  33.1653464
   4.5175651  22.4051499  33.4086017   5.3433671  22.1055270  33.0284660
   4.1669703  21.6359121  33.8575805   9.4857184  21.7577967  35.4783690
   8.8637193  21.0948672  35.1785918  10.1562051  21.7839099  34.7957338
  20.0436557  20.7800878  44.3517333  19.2532101  20.7625017  43.8121833
  19.8069912  21.3189172  45.1066370  20.1634432  17.6293344  41.6650062
  20.2132437  17.4643352  42.6065585  20.0548356  16.7620603  41.2747943
  17.4538195  13.6124272  42.9809369  18.3548058  13.4730737  42.6893366
  17.5286169  13.7778727  43.9207546  11.7881000  10.9891127  41.8262555
  10.9184310  11.2824693  41.5545143  12.0240480  11.5731572  42.5469819
  21.6652629  20.0490286  41.9092083  21.3737438  20.4120266  42.7455544
  21.0524761  19.3357294  41.7305415  22.8648312  17.6143166  34.4294654
  23.6995203  18.0532970  34.5932214  23.0007440  17.1381819  33.6102899
  19.9139817  15.1722901  40.3772141  20.3893939  15.3650547  39.5690993
  18.9905383  15.2282086  40.1315525  18.6141486  12.0488661  38.6100447
  19.5658909  12.1486758  38.6312671  18.4444937  11.2566929  39.1198531
  16.6355866   9.1344244  38.7959848  16.0405798   9.4149257  38.1006337
  16.3505563   9.6238145  39.5676589  21.0929564  15.2694780  37.7242747
  21.0605884  14.3310781  37.9102430  21.7030188  15.3478817  36.9908572
  21.2424053  12.0605824  37.7701030  20.7263101  11.2764280  37.5830959
  22.1264001  11.7324540  37.9347549  26.9106114  16.3310787  36.8648783
  27.6409503  16.0696075  37.4256487  26.3013060  15.5939509  36.9050851
  24.9921411  14.4718650  37.4623235  24.2654575  14.3374615  36.8539726
  24.5768698  14.7795478  38.2679953  12.8151588  18.1908579  45.2270608
  13.7354597  18.3687178  45.4210654  12.7801171  17.2464625  45.0750307
   5.8113660  16.1009614  37.8693389   6.0299670  17.0326722  37.8881423
   6.2239434  15.7417588  38.6548193  10.6841526  11.6742820  47.2596138
  10.5838252  12.6237177  47.1908229  10.4663068  11.3461059  46.3872208
  10.5472796  15.1039959  46.0761199  10.0639877  15.9040319  46.2825088
  10.6333735  15.1147904  45.1228643   6.4746133  18.9944493  38.1129633
   7.4289387  18.9628436  38.0459565   6.2758657  18.5335117  38.9279859
   7.0645515  17.5645609  40.6800431   7.8838404  18.0589688  40.7035268
   7.3382323  16.6477578  40.6517998  20.1726648   9.9802883  33.7582726
  20.9487038  10.4699335  34.0307342  19.4474782  10.4060937  34.2154595
  22.6099206  10.6930502  34.8156666  23.2043697  10.4526238  34.1049974
  22.6825790   9.9737633  35.4430203   4.8296362  24.5364113  35.1299831
   4.6950830  23.7764514  34.5637829   4.4128424  25.2605013  34.6628620
  24.9170279  13.9996703  33.5900087  24.3569837  14.0689892  34.3631649
  24.3113782  13.8237687  32.8699584   7.9865488  25.4333430  35.3418274
   7.8697872  26.3778862  35.2396964   7.1657934  25.1306991  35.7304073
  14.8433822  18.9664591  46.8784768  15.7124981  19.1405243  46.5171403
  14.3640573  19.7859008  46.7560498   9.0120002  26.0861692  38.5574202
   9.9147249  26.1185302  38.8740697   8.7857372  25.1562143  38.5720538
  10.7673604  24.8392678  35.2184281   9.8169235  24.8394540  35.1048653
  11.0706090  24.0925413  34.7020315  26.5026297  30.6753217  36.2830043
  27.1404707  30.5559964  35.5793383  26.3847140  31.6234061  36.3417995
  23.3116004  30.6280645  36.2191568  22.9734515  30.5121710  35.3312103
  24.1805772  30.2271810  36.1992574  19.1702819  32.4816121  32.2088459
  18.6067684  32.3906058  31.4404747  19.0555214  31.6616026  32.6890951
  23.7935787  31.7815497  42.1777773  23.7824427  31.3868295  41.3058277
  23.9556426  31.0481569  42.7711545  16.7167251  33.9767313  35.0472679
  17.5088543  33.6358137  34.6318979  16.9563901  34.0862288  35.9674833
  24.7502378  36.1487089  27.5202924  24.0990358  36.7341169  27.1336938
  25.5446741  36.6793284  27.5797961  18.6758005  33.2376226  27.9190058
  19.4488881  32.6905213  27.7802934  19.0283404  34.1020475  28.1304519
  20.5143048  34.5652608  41.1256957  20.2232914  35.4698239  41.0103624
  21.1500032  34.6069136  41.8401027  21.4399255  31.9429457  37.7158317
  22.0362827  31.7185479  37.0015280  21.4974226  31.2014202  38.3183765
  21.0124283  29.3968892  25.5508508  21.2649804  28.8750413  24.7891971
  20.0748842  29.2335038  25.6535192  26.0567566  28.4004671  33.3583251
  26.8430655  27.9824094  33.0073668  26.3206270  29.3050763  33.5264900
  26.2277643  33.8377521  28.0571908  25.5923476  33.9112147  28.7692813
  25.8975050  34.4271120  27.3790987  31.4575993  28.3379904  34.2616230
  32.1901165  27.7679121  34.4954059  30.7015349  27.9501504  34.7022735
  20.7320572  31.2996998  27.7532883  20.6156830  30.6241902  28.4213967
  20.8422832  30.8129372  26.9365036  23.0752113  30.7607145  31.4579572
  22.7110320  30.2337766  32.1692494  23.9319229  30.3705614  31.2846058
  28.9801413  22.0501478  38.7210838  28.6484738  22.9196889  38.4972053
  28.3847027  21.7337762  39.4004869  22.7157600  25.7897045  26.4540921
  22.8832002  26.6577281  26.8211392  22.5254769  25.9524327  25.5302210
  25.4732933  34.2514024  38.1206751  25.1733656  35.1539063  38.0122558
  25.1283992  33.9846207  38.9727904  18.9245414  30.7027821  34.1543455
  17.9995911  30.5704035  34.3621147  19.1729828  31.4822040  34.6513398
  28.8730077  26.7696564  35.8004188  27.9646954  26.7011973  35.5062949
  28.8217672  27.2468509  36.6286014  22.6946821  28.2454702  27.4387588
  22.5746446  28.6911753  28.2773068  21.9999409  28.5940020  26.8801126
  16.2854225  30.3461094  34.9887245  16.4146607  30.5995573  35.9026656
  15.6051677  30.9388802  34.6691900  20.4553713  41.0158344  31.0877719
  20.3777742  41.9666169  31.1666199  19.8515356  40.6704217  31.7452645
  22.9470942  28.1886210  43.7439086  22.1704276  28.7480130  43.7341950
  23.5861505  28.6742993  44.2653956  30.7391723  24.9713002  37.5782062
  30.0966103  25.2645536  36.9321857  30.2346652  24.8565923  38.3835259
  28.3931887  28.7176176  28.2667922  29.3049743  28.9503562  28.0915619
  27.8841534  29.3013220  27.7043000  21.2017315  30.9971663  43.3057053
  21.9431999  31.5356707  43.0291876  20.4954300  31.6237952  43.4628604
  26.6772654  33.1400803  41.9029214  27.0856010  32.6983214  41.1583847
  25.9549916  32.5653431  42.1563407  23.0303724  28.0773410  39.2762771
  23.8764920  28.5012824  39.4197420  22.9702362  27.4207035  39.9701334
  27.0001469  33.7001994  35.6581503  26.3710331  33.8647708  34.9557571
  26.6127131  34.1143604  36.4292467  30.8790701  34.6356432  33.0125867
  30.1941739  35.0155333  32.4622900  30.9634550  35.2451759  33.7457815
  26.1803170  25.7377779  40.9343945  25.9364102  26.4919839  40.3978220
  26.4563100  26.1163126  41.7691192  28.1341633  32.2816391  39.6121210
  28.3458528  32.9248151  38.9355591  28.0871381  31.4478708  39.1443140
  25.7367861  24.8934212  36.5157782  24.8752341  25.1915465  36.8074520
  25.7630296  25.1104611  35.5838815  22.5529431  33.4376402  32.9231588
  23.0167776  33.7164105  32.1336211  22.2886229  32.5359847  32.7404679
  19.4453512  32.9847884  35.8611351  20.0154869  33.4135152  35.2228836
  20.0361624  32.7030468  36.5595537  21.4898317  29.5599555  29.7321153
  22.1922360  30.0120598  30.1995080  21.1578945  28.9183373  30.3601046
  19.9378678  28.1511311  44.1072363  19.3077339  28.8327592  44.3407759
  19.8314766  28.0394393  43.1625501  15.2323651  27.8183107  35.0338287
  14.4422705  28.0740636  34.5578397  15.7234898  28.6331445  35.1390327
  29.2487460  35.1588346  37.7843568  30.0704904  34.7568534  37.5026249
  29.2449863  35.0556581  38.7359683  17.1838396  28.1827686  31.9921764
  16.3869560  28.2946381  32.5105259  16.9563988  28.5214339  31.1262654
  23.0144064  34.7072390  39.9404278  23.0788496  35.1692797  40.7762450
  22.3054988  34.0769755  40.0686588  13.5161354  28.0713598  37.4653278
  13.7669392  28.9560608  37.7310854  14.0520902  27.8918199  36.6928369
  37.3393454  31.5027095  34.1328539  36.5857162  30.9334493  33.9772544
  37.4740995  31.4689759  35.0799174  22.7292082  36.3740497  29.8083258
  22.5937756  37.2192033  30.2368106  23.2701894  36.5759775  29.0449192
  19.2159421  22.4532077  46.4697614  18.8226367  21.8998276  47.1445258
  20.0325562  22.7642656  46.8604131  16.1821479  33.8915935  30.3811184
  16.6946000  34.6859185  30.5316748  16.8344192  33.1942226  30.3144785
  17.9916364  37.0081692  32.4633937  18.1682992  37.9299656  32.2754921
  18.7873197  36.6940111  32.8928317  22.1327382  23.8689956  44.0617870
  22.8737096  24.4697109  43.9822333  22.3645305  23.1267594  43.5035913
  17.2768720  29.0546323  42.3396100  17.1622235  28.1531581  42.6403199
  16.4213238  29.3010020  41.9880916  24.3560558  36.9964064  43.9383601
  23.9124412  36.2100442  43.6204505  25.0177772  37.1843214  43.2727491
  19.1147679  38.5259865  38.4644279  19.6655104  38.3976929  37.6921273
  18.2759155  38.8254754  38.1139172  26.4541796  37.2766864  41.9665002
  26.4360271  38.0975745  41.4745271  27.3761716  37.1520939  42.1915143
  22.9114850  34.7910993  42.8088510  23.4443187  34.0299281  42.5787818
  22.3828931  34.4984645  43.5512665  26.0784545  19.8971059  38.3382152
  25.7348815  20.7872701  38.2621263  26.4463508  19.7072717  37.4751737
  14.1470396  32.2204590  31.1570754  14.9845618  32.6301598  30.9404462
  14.3248663  31.2804032  31.1270948  26.0434828  29.8879670  26.8454587
  25.5281451  30.6584275  27.0842974  25.7712136  29.2144806  27.4687649
  23.6281939  24.7329371  31.9039825  22.7723535  24.3436221  31.7245464
  24.0408891  24.8121332  31.0439611  25.1581086  22.2675714  36.3031385
  24.6545881  22.2305849  35.4899190  25.4511692  23.1768457  36.3628042
  21.4023971  22.3514444  35.3097567  22.2676968  22.1557253  34.9503456
  21.4701480  22.1224796  36.2366924  31.0169102  32.6412025  28.7807761
  30.2398545  32.3023184  28.3362923  31.6960583  32.6464648  28.1062726
  25.8321131  27.7606762  28.6714368  25.5271267  28.0752911  29.5224511
  26.7851573  27.8388182  28.7141701  24.2767563  33.9196986  30.3207322
  23.7488924  33.1849745  30.0080560  23.7755066  34.6971662  30.0747291
  29.2560409  32.1146006  35.4374369  28.5984083  32.8045267  35.5254497
  30.0600808  32.5042438  35.7808355  19.0086290  24.5816652  32.6813934
  19.5830042  24.3591833  31.9487127  19.5957273  24.6505346  33.4342535
  28.0665868  30.4690379  33.4878310  28.5797749  31.1020371  33.9900020
  28.7167092  29.8691574  33.1221670  19.3355878  26.6121113  26.7009819
  18.4993190  26.9495799  27.0219094  19.1960647  26.4770093  25.7636956
  21.3108958  21.4557901  31.4089003  20.6573371  21.1406918  30.7845618
  21.2689432  20.8333641  32.1348826  22.4220163  31.7377196  23.3242295
  21.5147225  31.5066449  23.5233444  22.9191195  30.9414815  23.5116277
  25.3288242  40.4474703  26.2438981  24.6549941  40.7506400  26.8523939
  25.7154064  41.2503783  25.8944438  24.5446699  27.9439834  35.7336651
  23.6269260  28.1654781  35.5758339  24.9606842  28.0186145  34.8748358
  25.3281746  29.3431250  30.8639331  26.0753565  29.8552647  30.5546453
  25.5973336  29.0215303  31.7243725  23.6008397  31.8389791  27.8466285
  22.6919616  31.5548824  27.9438755  23.6303480  32.2588869  26.9869592
  28.8327664  35.4496380  31.6157453  28.3789991  34.6087290  31.6722643
  28.2021631  36.0857779  31.9532233  27.7760583  26.3788366  32.8458120
  27.0383340  25.8665752  33.1768363  28.0287357  25.9388748  32.0341397
  27.2760603  37.2872877  32.5507271  27.5683578  37.8477934  31.8319637
  27.7859224  37.5801438  33.3060430  27.8772211  19.1564618  33.4399890
  28.1831088  18.2961982  33.1525805  28.6024816  19.7482238  33.2398884
  14.1696567  29.5595305  31.8281488  13.9720967  28.9664666  31.1032554
  13.6143231  29.2547515  32.5457426  22.1493291  29.4518411  33.9476081
  22.2041900  28.4992248  33.8718557  21.3384493  29.6077850  34.4317379
  23.2984484  33.3798534  25.1854364  22.8603914  32.6634393  24.7260001
  24.0394925  33.6074649  24.6239455  20.0885650  28.0695471  31.7066460
  19.2753516  28.3689642  32.1131652  20.5844645  27.6751160  32.4240942
  22.2394228  38.0653228  33.6400724  22.1970407  38.2914074  32.7109256
  23.1556927  37.8316603  33.7886525  25.6859862  28.5337296  40.5381353
  26.0409250  28.7608769  41.3975819  26.3331993  28.8655672  39.9158609
  31.4157599  31.6555731  31.2430682  31.2775498  31.8457327  30.3151872
  31.0593818  32.4175114  31.6998734  19.5799725  25.6413827  37.3227695
  20.2199105  25.5002586  36.6250658  18.7477256  25.3548340  36.9466297
  31.4426979  33.7232258  36.2541954  31.8763485  33.6307548  37.1025008
  32.1558559  33.6989759  35.6161970  20.3560029  34.9416257  33.4362687
  21.1500628  34.4466577  33.2345262  19.6451722  34.4134120  33.0730393
  25.1754874  37.3234353  37.7875055  25.2291896  37.8925289  38.5552770
  24.3069655  37.4936238  37.4229092  16.6642793  29.0859339  29.5122440
  15.7340381  29.0243794  29.7292402  16.7600265  28.5635292  28.7159081
  16.5828342  25.6114152  32.1000681  16.8435159  26.5259485  31.9909842
  17.4045514  25.1438594  32.2497294  18.0553267  27.0251909  39.2699506
  18.7276320  26.8169271  38.6212155  17.2283054  26.8273995  38.8304738
  32.3042528  33.7655959  38.7874839  32.4978418  34.6701770  39.0334114
  32.2043146  33.3063378  39.6213424  23.9578839  23.6513850  41.2865167
  23.3106754  24.3503799  41.1929643  24.7279854  24.0849994  41.6541415
  27.3657637  33.9162702  44.3615720  27.2143143  33.6873254  43.4445804
  27.3562316  34.8733303  44.3747065  24.1342973  31.4894615  39.3461986
  25.0635033  31.6405774  39.1730954  23.7134003  31.5778635  38.4910633
  22.9331305  35.5145279  37.1160524  22.7942391  35.1464063  37.9886462
  22.1445901  36.0292918  36.9444482  23.5279457  40.6154375  28.4586061
  23.7031213  40.1442419  29.2731683  22.8412245  41.2420142  28.6867321
  24.4836520  34.8926882  34.5049362  24.1486353  34.8527652  35.4007012
  23.9840466  34.2271598  34.0319772  18.4580764  30.2994512  40.0301943
  18.3200562  29.5674751  40.6313482  19.3685688  30.2103412  39.7486131
  27.4195712  32.2382916  24.7786422  26.8024883  31.5129744  24.6819474
  26.9512200  32.9992276  24.4353496  21.0863065  30.0114471  39.5185623
  21.7962683  29.3707663  39.4772241  21.0432373  30.2627366  40.4411803
  29.0749844  36.9481824  42.4392202  29.0162390  36.2641045  41.7722785
  29.4769362  37.6900814  41.9872828  19.7991999  26.9979689  41.3381262
  19.2629356  26.5470427  41.9902858  19.2108707  27.1325598  40.5951726
  18.0940542  43.7643738  35.2325921  18.3337141  44.3962262  35.9104939
  17.2509739  43.4131778  35.5191280  29.0767251  34.9121408  40.6706182
  28.1894030  34.5747330  40.7932580  29.6465802  34.1804440  40.9074947
  10.7296398  31.2445500  33.9949233  11.4167438  30.9307230  33.4070248
  10.5744527  32.1486865  33.7216484  15.5331120  26.1335697  38.4234257
  15.4489309  25.5261366  37.6884667  14.7113827  26.6244715  38.4243753
  22.6068404  39.5722861  37.6367425  22.5338576  40.3777832  38.1486729
  22.1645797  39.7714826  36.8115446  22.3958184  38.8094631  31.1470246
  21.6125706  39.3516311  31.2408471  23.0950929  39.3268610  31.5464487
  25.7054834  24.6189260  33.7904452  26.2023534  23.8659222  33.4705522
  24.9341815  24.6553577  33.2247661  33.5584591  30.3229626  35.4322743
  33.5474468  31.2054341  35.0616676  32.6901971  29.9701177  35.2377280
  25.0667088  39.4709695  39.7925583  25.7795060  40.1057160  39.7201485
  24.5757116  39.5673561  38.9765585  26.7884615  33.3760947  31.3642875
  25.8540893  33.4962410  31.1947579  26.9661283  32.4733414  31.1002885
  22.2889803  26.7606643  33.5176136  21.9187590  26.2077684  34.2057042
  22.7848895  26.1564777  32.9651136  30.1757166  29.2178267  31.8992909
  30.6417618  30.0506258  31.8253212  30.6264667  28.7523248  32.6038168
  20.1179001  37.2204138  40.6131154  20.8188461  37.8540621  40.7660548
  19.6474116  37.5618870  39.8526793  28.2433397  35.5622088  28.8979061
  28.5193241  35.4478683  29.8072935  27.3737896  35.1639573  28.8591234
  28.1473829  21.5858854  35.9383811  27.2336909  21.8163081  36.1066017
  28.5766930  21.6697298  36.7897843  27.9180287  29.7748746  38.4383705
  27.2651738  30.0224653  37.7836157  28.2960667  28.9612884  38.1046182
  24.8787461  39.8108439  32.5411875  25.0609856  38.9930095  33.0039627
  25.7020447  40.0276131  32.1036765  25.2129627  38.7376624  29.8026923
  25.7417393  38.2269079  29.1897085  25.4757846  38.4219154  30.6672456
  23.9667860  30.5168557  44.9249742  23.2908497  30.4162686  45.5952117
  24.7895494  30.3607770  45.3885739  15.7146719  36.7540493  37.5462257
  16.3000156  36.0084181  37.6790161  15.5171558  37.0644450  38.4298921
  18.5685375  39.7891741  32.5624699  17.8995750  40.2737868  32.0788739
  18.4298244  40.0360961  33.4768078  10.3064374  29.3246093  36.2666700
  10.3448474  28.7909684  37.0603818   9.8004667  28.7981299  35.6477677
  22.7090643  41.8235484  39.1607358  23.2608951  41.9867106  39.9256443
  23.0496837  42.4139922  38.4887383  17.6855136  24.1710634  39.7629242
  17.7496463  25.0325465  39.3506640  17.6222257  23.5584636  39.0301601
  17.1607409  26.2433766  43.4102277  17.7879448  25.8610844  44.0239801
  16.3035328  26.0247968  43.7757969  27.5601517  36.6496742  45.0156012
  28.1041421  37.2626700  44.5210967  26.9788362  37.2076320  45.5323025
  13.9372952  28.0510196  29.3420631  14.2326393  27.1420874  29.2887685
  13.0360987  28.0297935  29.0201634  25.8459030  39.7717460  36.1471040
  25.7210170  38.9707200  35.6381985  26.5038122  40.2663653  35.6585010
  17.4667199  26.1266192  35.3248180  16.7453784  26.7402160  35.1855653
  18.2560454  26.6623957  35.2464826  27.9093939  37.5726480  37.7750590
  26.9624274  37.4531831  37.7028917  28.2576712  36.6848978  37.8576851
  20.2693512  23.4620619  41.5988832  20.7927914  23.7082915  42.3615141
  20.0505845  24.2940653  41.1791969  15.6660793  25.7324293  29.4659957
  15.3373499  24.8521672  29.2835063  16.0200164  25.6771962  30.3536346
  24.9140372  37.3679196  33.9754942  24.7665335  36.4395903  34.1562512
  25.7393866  37.3899287  33.4912017  18.7802616  26.0197263  29.8335434
  19.1198689  26.5483184  29.1114043  19.2274737  26.3577669  30.6094001
  28.5174494  38.1907755  35.0619815  29.4421041  37.9850616  34.9244266
  28.3489797  37.9424156  35.9709156  21.4746057  24.4034314  39.2838502
  21.1342878  23.6042127  39.6859182  20.7685064  24.7036025  38.7115336
  22.1262529  21.4883626  37.7365825  22.9488598  21.0144104  37.6144716
  22.3700593  22.2674110  38.2364512  20.7670764  24.5171885  28.0328727
  21.4879126  24.8953137  27.5292444  20.1436068  25.2360761  28.1363705
  24.9101886  25.2217034  28.9687059  25.1265501  26.1041671  28.6675888
  24.4295954  24.8303247  28.2392701  19.6501108  28.1802747  35.5457804
  19.5045689  28.4943050  36.4382085  19.1726311  28.7987647  34.9928703
  21.5097491  25.1705295  35.5938694  21.4959059  24.2746388  35.2570991
  22.2269919  25.1775959  36.2276980  23.3623621  25.6042635  37.6391821
  23.1041399  26.5259706  37.6376151  22.8308662  25.2073070  38.3292285
  28.3069810  38.7093422  30.4181906  28.4806688  38.1439845  29.6655759
  28.7998701  39.5094317  30.2361396  14.1246770  30.7208091  38.4845465
  13.5800238  31.4967899  38.6165739  15.0026120  31.0678896  38.3264587
  20.9134387  24.0519675  30.8626264  21.0350298  23.1236321  31.0617151
  20.6236429  24.0658361  29.9504579  23.7825577  21.7374586  33.9992983
  23.8047274  21.8013919  33.0444963  24.1993636  20.8979094  34.1933490
  34.1609201  31.4729845  32.0372206  34.6040347  30.7237170  31.6391329
  33.2835712  31.4639981  31.6545938  29.2944983  38.0260187  27.5178805
  29.9895887  38.6466879  27.7366119  29.6368133  37.1755538  27.7931183
  14.9112792  29.8477987  41.3775622  14.1694528  29.9960623  41.9640252
  14.5905536  30.1086253  40.5142371  31.1936406  35.4759892  29.0466135
  31.7187730  35.8147165  28.3215455  31.1058758  34.5406907  28.8629270
  22.8556454  39.3893966  41.1756012  23.1643581  39.1443112  42.0478712
  23.6531937  39.5940604  40.6874882  22.8777067  41.5431875  33.4061389
  22.4382057  41.0508254  34.0994245  23.6285183  41.0004843  33.1653464
  15.3569406  37.7343416  33.4086017  16.1827425  37.4347188  33.0284660
  15.0063458  36.9651039  33.8575805  20.3250939  37.0869884  35.4783690
  19.7030948  36.4240589  35.1785918  20.9955806  37.1131016  34.7957338
  13.5578011  35.6529743  34.3674950  12.7209919  35.2251917  34.1858951
  13.5301656  35.8462186  35.3045741  20.3975466  25.5651672  45.0716196
  20.4463622  26.4413795  44.6893966  20.9397980  25.0229066  44.4987839
  30.8830312  36.1092796  44.3517333  30.0925856  36.0916935  43.8121833
  30.6463666  36.6481089  45.1066370  31.0028187  32.9585262  41.6650062
  31.0526192  32.7935270  42.6065585  30.8942110  32.0912521  41.2747943
  19.8864446  35.6373808  28.9542151  20.0352566  36.3209272  28.3008824
  20.6930889  35.6178898  29.4691607  28.2931949  28.9416190  42.9809369
  29.1941812  28.8022655  42.6893366  28.3679924  29.1070645  43.9207546
  22.6274755  26.3183045  41.8262555  21.7578064  26.6116611  41.5545143
  22.8634235  26.9023490  42.5469819  32.5046384  35.3782204  41.9092083
  32.2131192  35.7412184  42.7455544  31.8918515  34.6649212  41.7305415
  33.7042066  32.9435083  34.4294654  34.5388957  33.3824887  34.5932214
  33.8401195  32.4673737  33.6102899  30.7533572  30.5014818  40.3772141
  31.2287694  30.6942465  39.5690993  29.8299137  30.5574004  40.1315525
  17.6417079  31.6638985  29.9603220  17.3963121  30.7601315  30.1583430
  17.8112993  31.6656136  29.0182698  25.3313788  22.5362662  39.3427975
  25.8495732  23.2723689  39.0174464  24.9768921  22.8426655  40.1774734
  16.9112726  27.3967343  27.4589381  16.2181971  27.4711698  26.8029417
  16.6664478  26.6327687  27.9810898  25.5826383  18.9562944  34.8628872
  25.8628136  18.2886133  35.4889298  26.3676990  19.1492040  34.3503536
  23.3859851  38.1321938  26.4253898  22.8133818  38.7512125  25.9724370
  23.9592645  38.6821300  26.9593820  29.4535241  27.3780578  38.6100447
  30.4052664  27.4778676  38.6312671  29.2838691  26.5858847  39.1198531
  27.4749620  24.4636162  38.7959848  26.8799553  24.7441174  38.1006337
  27.1899317  24.9530062  39.5676589  26.6057111  38.4159088  27.5562480
  27.5387784  38.3504650  27.7595356  26.5180324  39.2515355  27.0977013
  29.2345128  37.7324959  24.5166428  29.1558759  37.3984822  25.4102186
  30.0554794  38.2246727  24.5157900  31.9323319  30.5986698  37.7242747
  31.8999639  29.6602699  37.9102430  32.5423942  30.6770735  36.9908572
  23.7706650  29.4682751  23.7669951  24.7165754  29.3388959  23.8358369
  23.3920895  28.7297413  24.2439379  32.0817807  27.3897741  37.7701030
  31.5656856  26.6056198  37.5830959  32.9657756  27.0616458  37.9347549
  29.7428534  21.1338757  33.7296843  29.5453355  20.8253845  34.6140174
  30.3528240  21.8600396  33.8594772  37.7499869  31.6602705  36.8648783
  38.4803257  31.3987993  37.4256487  37.1406814  30.9231427  36.9050851
  35.8315166  29.8010567  37.4623235  35.1048329  29.6666532  36.8539726
  35.4162453  30.1087396  38.2679953  23.6545342  33.5200497  45.2270608
  24.5748352  33.6979096  45.4210654  23.6194925  32.5756542  45.0750307
  21.9549567  27.3932727  23.7024836  21.0481022  27.0965840  23.7787550
  22.2325548  27.0962545  22.8359122  12.8727507  28.7139091  34.1523882
  12.5530291  27.8604399  33.8598256  12.3260935  28.9287669  34.9081850
  16.6507415  31.4301532  37.8693389  16.8693424  32.3618640  37.8881423
  17.0633189  31.0709506  38.6548193  23.5711632  21.9369617  29.8569077
  22.7612361  21.5916702  30.2324323  24.2596049  21.6277161  30.4456689
  25.5002181  21.0147664  31.4793374  26.0533219  21.4343117  32.1383397
  25.7372267  20.0883412  31.5216330  21.5235280  27.0034738  47.2596138
  21.4232007  27.9529094  47.1908229  21.3056822  26.6752976  46.3872208
  12.7415767  32.3342002  36.1217004  12.0479239  31.9195955  35.6086958
  13.4888758  32.3762539  35.5250423  28.8780988  23.1248189  30.9872038
  28.2979657  23.7832993  30.6050091  28.6116921  22.3025534  30.5759456
  27.3284554  22.5253247  33.1893358  27.8284333  22.6369781  32.3807677
  27.9720162  22.2214300  33.8294167  21.3866550  30.4331876  46.0761199
  20.9033632  31.2332236  46.2825088  21.4727489  30.4439821  45.1228643
  14.6552510  32.2660256  33.9983019  14.6323198  32.3647943  33.0464902
  14.9653146  33.1125407  34.3200185  17.3139888  34.3236411  38.1129633
  18.2683141  34.2920353  38.0459565  17.1152411  33.8627035  38.9279859
  17.9039270  32.8937527  40.6800431  18.7232159  33.3881606  40.7035268
  18.1776077  31.9769495  40.6517998  27.6605866  25.2848279  30.0428386
  26.7731721  25.5697930  29.8248581  28.0759855  25.1242043  29.1955663
  31.0120402  25.3094800  33.7582726  31.7880792  25.7991253  34.0307342
  30.2868536  25.7352855  34.2154595  33.4492961  26.0222420  34.8156666
  34.0437451  25.7818156  34.1049974  33.5219544  25.3029550  35.4430203
  15.6690116  39.8656031  35.1299831  15.5344584  39.1056431  34.5637829
  15.2522179  40.5896930  34.6628620  26.8049079  35.0492954  24.1376406
  27.5084929  35.2542957  24.7534062  26.0811728  35.6169716  24.4025490
  27.6346890  30.8002815  30.2578677  27.5782091  31.2571367  29.4186309
  28.1875232  30.0393500  30.0801519  31.4451696  26.5892547  31.0828796
  31.1888630  26.1889183  31.9137004  30.8204564  27.3036341  30.9578935
  35.7564033  29.3288620  33.5900087  35.1963591  29.3981810  34.3631649
  35.1507537  29.1529605  32.8699584  18.8259242  40.7625348  35.3418274
  18.7091626  41.7070780  35.2396964  18.0051688  40.4598909  35.7304073
  28.7135777  35.4875483  26.1874866  29.5481381  35.0556682  26.0052341
  28.5520120  35.3157497  27.1151761  28.3681669  31.9907597  27.5531206
  28.3130473  31.8251868  26.6119650  27.7427724  32.6983630  27.7093395
  13.1574184  27.2275661  41.3792628  13.8033048  26.7174615  41.8679853
  12.9491335  27.9644343  41.9536053  25.6827576  34.2956508  46.8784768
  26.5518736  34.4697161  46.5171403  25.2034328  35.1150925  46.7560498
  21.6777794  21.4915706  27.1316524  21.6656464  22.4357546  27.2884795
  22.5701216  21.3085851  26.8375985  19.8513756  41.4153609  38.5574202
  20.7541003  41.4477220  38.8740697  19.6251126  40.4854060  38.5720538
  21.6067358  40.1684596  35.2184281  20.6562989  40.1686458  35.1048653
  21.9099845  39.4217331  34.7020315  25.4929914  18.0858482  31.3862461
  24.7262310  17.5316969  31.5319143  25.9040619  18.1580351  32.2476613
  17.4971675  24.3743278  45.4767642  18.3603136  24.0180083  45.6870967
  16.9237086  24.0357173  46.1643046  37.3420052  46.0045134  36.2830043
  37.9798462  45.8851882  35.5793383  37.2240895  46.9525978  36.3417995
  34.1509758  45.9572563  36.2191568  33.8128270  45.8413627  35.3312103
  35.0199526  45.5563728  36.1992574  30.0096574  47.8108039  32.2088459
  29.4461439  47.7197976  31.4404747  29.8948969  46.9907943  32.6890951
  34.6329541  47.1107414  42.1777773  34.6218182  46.7160213  41.3058277
  34.7950181  46.3773487  42.7711545  27.5561006  49.3059231  35.0472679
  28.3482298  48.9650055  34.6318979  27.7957656  49.4154206  35.9674833
  35.5896133  51.4779007  27.5202924  34.9384112  52.0633087  27.1336938
  36.3840495  52.0085202  27.5797961  29.5151760  48.5668144  27.9190058
  30.2882636  48.0197131  27.7802934  29.8677159  49.4312393  28.1304519
  31.3536802  49.8944526  41.1256957  31.0626668  50.7990157  41.0103624
  31.9893787  49.9361054  41.8401027  32.2793009  47.2721375  37.7158317
  32.8756581  47.0477397  37.0015280  32.3367981  46.5306120  38.3183765
  31.8518038  44.7260810  25.5508508  32.1043558  44.2042331  24.7891971
  30.9142597  44.5626955  25.6535192  36.8961320  43.7296588  33.3583251
  37.6824410  43.3116011  33.0073668  37.1600025  44.6342680  33.5264900
  37.0671398  49.1669439  28.0571908  36.4317231  49.2404065  28.7692813
  36.7368804  49.7563037  27.3790987  42.2969747  43.6671821  34.2616230
  43.0294919  43.0971038  34.4954059  41.5409103  43.2793422  34.7022735
  31.5714326  46.6288916  27.7532883  31.4550584  45.9533819  28.4213967
  31.6816586  46.1421290  26.9365036  33.9145867  46.0899063  31.4579572
  33.5504074  45.5629684  32.1692494  34.7712983  45.6997532  31.2846058
  39.8195168  37.3793396  38.7210838  39.4878493  38.2488807  38.4972053
  39.2240781  37.0629680  39.4004869  33.5551354  41.1188963  26.4540921
  33.7225757  41.9869199  26.8211392  33.3648523  41.2816244  25.5302210
  36.3126687  49.5805942  38.1206751  36.0127410  50.4830980  38.0122558
  35.9677747  49.3138125  38.9727904  29.7639169  46.0319738  34.1543455
  28.8389665  45.8995953  34.3621147  30.0123582  46.8113958  34.6513398
  39.7123831  42.0988482  35.8004188  38.8040708  42.0303890  35.5062949
  39.6611427  42.5760427  36.6286014  33.5340575  43.5746620  27.4387588
  33.4140200  44.0203671  28.2773068  32.8393163  43.9231938  26.8801126
  27.1247980  45.6753012  34.9887245  27.2540361  45.9287491  35.9026656
  26.4445431  46.2680720  34.6691900  31.2947467  56.3450262  31.0877719
  31.2171497  57.2958087  31.1666199  30.6909111  55.9996134  31.7452645
  33.7864697  43.5178127  43.7439086  33.0098031  44.0772047  43.7341950
  34.4255260  44.0034910  44.2653956  41.5785478  40.3004920  37.5782062
  40.9359858  40.5937453  36.9321857  41.0740406  40.1857840  38.3835259
  39.2325641  44.0468093  28.2667922  40.1443497  44.2795480  28.0915619
  38.7235288  44.6305138  27.7043000  32.0411069  46.3263581  43.3057053
  32.7825754  46.8648625  43.0291876  31.3348055  46.9529869  43.4628604
  37.5166409  48.4692721  41.9029214  37.9249765  48.0275132  41.1583847
  36.7943670  47.8945349  42.1563407  33.8697479  43.4065328  39.2762771
  34.7158674  43.8304741  39.4197420  33.8096117  42.7498952  39.9701334
  37.8395224  49.0293912  35.6581503  37.2104086  49.1939626  34.9557571
  37.4520886  49.4435521  36.4292467  41.7184455  49.9648350  33.0125867
  41.0335494  50.3447251  32.4622900  41.8028305  50.5743676  33.7457815
  37.0196924  41.0669696  40.9343945  36.7757856  41.8211757  40.3978220
  37.2956855  41.4455044  41.7691192  38.9735387  47.6108309  39.6121210
  39.1852282  48.2540069  38.9355591  38.9265135  46.7770625  39.1443140
  36.5761616  40.2226129  36.5157782  35.7146095  40.5207383  36.8074520
  36.6024051  40.4396528  35.5838815  33.3923185  48.7668320  32.9231588
  33.8561531  49.0456023  32.1336211  33.1279983  47.8651764  32.7404679
  30.2847266  48.3139801  35.8611351  30.8548624  48.7427070  35.2228836
  30.8755378  48.0322386  36.5595537  32.3292071  44.8891472  29.7321153
  33.0316115  45.3412516  30.1995080  31.9972700  44.2475291  30.3601046
  30.7772433  43.4803229  44.1072363  30.1471094  44.1619510  44.3407759
  30.6708521  43.3686310  43.1625501  26.0717405  43.1475025  35.0338287
  25.2816459  43.4032553  34.5578397  26.5628653  43.9623363  35.1390327
  40.0881215  50.4880264  37.7843568  40.9098659  50.0860451  37.5026249
  40.0843618  50.3848498  38.7359683  28.0232151  43.5119604  31.9921764
  27.2263314  43.6238298  32.5105259  27.7957743  43.8506256  31.1262654
  33.8537818  50.0364307  39.9404278  33.9182251  50.4984715  40.7762450
  33.1448742  49.4061672  40.0686588  24.3555108  43.4005515  37.4653278
  24.6063147  44.2852525  37.7310854  24.8914657  43.2210117  36.6928369
  48.1787208  46.8319013  34.1328539  47.4250916  46.2626411  33.9772544
  48.3134749  46.7981677  35.0799174  33.5685836  51.7032415  29.8083258
  33.4331511  52.5483951  30.2368106  34.1095649  51.9051693  29.0449192
  30.0553176  37.7823995  46.4697614  29.6620121  37.2290193  47.1445258
  30.8719316  38.0934573  46.8604131  27.0215233  49.2207853  30.3811184
  27.5339754  50.0151103  30.5316748  27.6737946  48.5234143  30.3144785
  28.8310118  52.3373609  32.4633937  29.0076746  53.2591574  32.2754921
  29.6266952  52.0232028  32.8928317  32.9721137  39.1981874  44.0617870
  33.7130850  39.7989027  43.9822333  33.2039060  38.4559512  43.5035913
  28.1162475  44.3838241  42.3396100  28.0015990  43.4823498  42.6403199
  27.2606992  44.6301938  41.9880916  35.1954312  52.3255981  43.9383601
  34.7518167  51.5392360  43.6204505  35.8571526  52.5135132  43.2727491
  29.9541434  53.8551783  38.4644279  30.5048859  53.7268846  37.6921273
  29.1152910  54.1546672  38.1139172  37.2935551  52.6058781  41.9665002
  37.2754026  53.4267662  41.4745271  38.2155471  52.4812857  42.1915143
  33.7508605  50.1202911  42.8088510  34.2836941  49.3591199  42.5787818
  33.2222686  49.8276563  43.5512665  36.9178300  35.2262977  38.3382152
  36.5742569  36.1164618  38.2621263  37.2857262  35.0364634  37.4751737
  24.9864150  47.5496507  31.1570754  25.8239372  47.9593516  30.9404462
  25.1642418  46.6095949  31.1270948  36.8828582  45.2171588  26.8454587
  36.3675206  45.9876192  27.0842974  36.6105891  44.5436724  27.4687649
  34.4675693  40.0621289  31.9039825  33.6117290  39.6728139  31.7245464
  34.8802645  40.1413249  31.0439611  35.9974840  37.5967632  36.3031385
  35.4939636  37.5597767  35.4899190  36.2905447  38.5060375  36.3628042
  32.2417726  37.6806362  35.3097567  33.1070723  37.4849170  34.9503456
  32.3095235  37.4516713  36.2366924  41.8562856  47.9703943  28.7807761
  41.0792299  47.6315102  28.3362923  42.5354337  47.9756566  28.1062726
  36.6714886  43.0898680  28.6714368  36.3665021  43.4044829  29.5224511
  37.6245328  43.1680100  28.7141701  35.1161317  49.2488903  30.3207322
  34.5882679  48.5141663  30.0080560  34.6148820  50.0263580  30.0747291
  40.0954163  47.4437924  35.4374369  39.4377838  48.1337185  35.5254497
  40.8994563  47.8334356  35.7808355  29.8480045  39.9108570  32.6813934
  30.4223797  39.6883751  31.9487127  30.4351027  39.9797264  33.4342535
  38.9059622  45.7982296  33.4878310  39.4191504  46.4312288  33.9900020
  39.5560846  45.1983492  33.1221670  30.1749632  41.9413031  26.7009819
  29.3386944  42.2787717  27.0219094  30.0354402  41.8062010  25.7636956
  32.1502713  36.7849818  31.4089003  31.4967125  36.4698836  30.7845618
  32.1083187  36.1625559  32.1348826  33.2613918  47.0669114  23.3242295
  32.3540979  46.8358367  23.5233444  33.7584950  46.2706733  23.5116277
  36.1681996  55.7766621  26.2438981  35.4943695  56.0798317  26.8523939
  36.5547818  56.5795701  25.8944438  35.3840453  43.2731752  35.7336651
  34.4663014  43.4946699  35.5758339  35.8000597  43.3478062  34.8748358
  36.1675501  44.6723168  30.8639331  36.9147320  45.1844565  30.5546453
  36.4367090  44.3507220  31.7243725  34.4402151  47.1681708  27.8466285
  33.5313370  46.8840741  27.9438755  34.4697235  47.5880787  26.9869592
  39.6721418  50.7788298  31.6157453  39.2183746  49.9379208  31.6722643
  39.0415385  51.4149696  31.9532233  38.6154338  41.7080284  32.8458120
  37.8777095  41.1957670  33.1768363  38.8681112  41.2680666  32.0341397
  38.1154358  52.6164795  32.5507271  38.4077332  53.1769852  31.8319637
  38.6252978  52.9093356  33.3060430  38.7165965  34.4856536  33.4399890
  39.0224842  33.6253899  33.1525805  39.4418570  35.0774156  33.2398884
  25.0090321  44.8887223  31.8281488  24.8114721  44.2956583  31.1032554
  24.4536985  44.5839433  32.5457426  32.9887045  44.7810329  33.9476081
  33.0435655  43.8284165  33.8718557  32.1778247  44.9369768  34.4317379
  34.1378239  48.7090452  25.1854364  33.6997669  47.9926311  24.7260001
  34.8788680  48.9366567  24.6239455  30.9279405  43.3987389  31.7066460
  30.1147270  43.6981559  32.1131652  31.4238399  43.0043078  32.4240942
  33.0787983  53.3945146  33.6400724  33.0364162  53.6205992  32.7109256
  33.9950682  53.1608520  33.7886525  36.5253617  43.8629213  40.5381353
  36.8803004  44.0900686  41.3975819  37.1725748  44.1947590  39.9158609
  42.2551354  46.9847649  31.2430682  42.1169252  47.1749245  30.3151872
  41.8987572  47.7467032  31.6998734  30.4193480  40.9705744  37.3227695
  31.0592859  40.8294503  36.6250658  29.5871010  40.6840258  36.9466297
  42.2820733  49.0524176  36.2541954  42.7157240  48.9599465  37.1025008
  42.9952314  49.0281677  35.6161970  31.1953784  50.2708175  33.4362687
  31.9894382  49.7758495  33.2345262  30.4845476  49.7426038  33.0730393
  36.0148628  52.6526270  37.7875055  36.0685650  53.2217207  38.5552770
  35.1463409  52.8228155  37.4229092  27.5036547  44.4151256  29.5122440
  26.5734135  44.3535712  29.7292402  27.5994019  43.8927209  28.7159081
  27.4222096  40.9406069  32.1000681  27.6828913  41.8551403  31.9909842
  28.2439268  40.4730512  32.2497294  28.8947021  42.3543826  39.2699506
  29.5670075  42.1461189  38.6212155  28.0676808  42.1565912  38.8304738
  43.1436283  49.0947877  38.7874839  43.3372173  49.9993687  39.0334114
  43.0436901  48.6355296  39.6213424  34.7972593  38.9805767  41.2865167
  34.1500509  39.6795717  41.1929643  35.5673609  39.4141911  41.6541415
  38.2051391  49.2454620  44.3615720  38.0536898  49.0165171  43.4445804
  38.1956071  50.2025221  44.3747065  34.9736728  46.8186532  39.3461986
  35.9028788  46.9697692  39.1730954  34.5527758  46.9070553  38.4910633
  33.7725060  50.8437197  37.1160524  33.6336145  50.4755981  37.9886462
  32.9839656  51.3584836  36.9444482  34.3673212  55.9446293  28.4586061
  34.5424967  55.4734336  29.2731683  33.6806000  56.5712059  28.6867321
  35.3230275  50.2218799  34.5049362  34.9880107  50.1819569  35.4007012
  34.8234220  49.5563515  34.0319772  29.2974519  45.6286429  40.0301943
  29.1594317  44.8966668  40.6313482  30.2079442  45.5395330  39.7486131
  38.2589466  47.5674834  24.7786422  37.6418637  46.8421662  24.6819474
  37.7905955  48.3284194  24.4353496  31.9256819  45.3406389  39.5185623
  32.6356438  44.6999581  39.4772241  31.8826128  45.5919284  40.4411803
  39.9143598  52.2773742  42.4392202  39.8556144  51.5932962  41.7722785
  40.3163116  53.0192732  41.9872828  30.6385753  42.3271607  41.3381262
  30.1023110  41.8762345  41.9902858  30.0502462  42.4617515  40.5951726
  28.9334297  59.0935656  35.2325921  29.1730895  59.7254180  35.9104939
  28.0903493  58.7423696  35.5191280  30.0488012  41.7860258  23.9007726
  29.1717479  41.6649059  23.5369972  30.5245765  40.9946336  23.6486614
  39.9161005  50.2413326  40.6706182  39.0287784  49.9039248  40.7932580
  40.4859556  49.5096357  40.9074947  21.5690152  46.5737418  33.9949233
  22.2561192  46.2599148  33.4070248  21.4138281  47.4778782  33.7216484
  26.3724875  41.4627614  38.4234257  26.2883063  40.8553284  37.6884667
  25.5507581  41.9536633  38.4243753  33.4462159  54.9014778  37.6367425
  33.3732330  55.7069750  38.1486729  33.0039552  55.1006744  36.8115446
  33.2351938  54.1386548  31.1470246  32.4519460  54.6808229  31.2408471
  33.9344684  54.6560528  31.5464487  36.5448588  39.9481178  33.7904452
  37.0417288  39.1951140  33.4705522  35.7735570  39.9845494  33.2247661
  44.3978346  45.6521543  35.4322743  44.3868222  46.5346259  35.0616676
  43.5295725  45.2993094  35.2377280  35.9060842  54.8001612  39.7925583
  36.6188814  55.4349077  39.7201485  35.4150871  54.8965478  38.9765585
  37.6278369  48.7052865  31.3642875  36.6934648  48.8254328  31.1947579
  37.8055038  47.8025332  31.1002885  33.1283557  42.0898561  33.5176136
  32.7581345  41.5369601  34.2057042  33.6242650  41.4856694  32.9651136
  41.0150921  44.5470184  31.8992909  41.4811373  45.3798176  31.8253212
  41.4658421  44.0815166  32.6038168  30.9572756  52.5496056  40.6131154
  31.6582215  53.1832539  40.7660548  30.4867871  52.8910787  39.8526793
  39.0827152  50.8914006  28.8979061  39.3586996  50.7770600  29.8072935
  38.2131650  50.4931490  28.8591234  38.9867583  36.9150771  35.9383811
  38.0730663  37.1454998  36.1066017  39.4160685  36.9989215  36.7897843
  38.7574042  45.1040663  38.4383705  38.1045492  45.3516571  37.7836157
  39.1354422  44.2904801  38.1046182  35.7181216  55.1400356  32.5411875
  35.9003610  54.3222012  33.0039627  36.5414202  55.3568049  32.1036765
  36.0523381  54.0668542  29.8026923  36.5811148  53.5560996  29.1897085
  36.3151601  53.7511072  30.6672456  34.8061615  45.8460474  44.9249742
  34.1302252  45.7454604  45.5952117  35.6289249  45.6899688  45.3885739
  26.5540474  52.0832411  37.5462257  27.1393911  51.3376099  37.6790161
  26.3565312  52.3936368  38.4298921  29.4079129  55.1183658  32.5624699
  28.7389504  55.6029786  32.0788739  29.2691999  55.3652879  33.4768078
  21.1458129  44.6538011  36.2666700  21.1842228  44.1201602  37.0603818
  20.6398421  44.1273217  35.6477677  33.5484398  57.1527402  39.1607358
  34.1002706  57.3159023  39.9256443  33.8890591  57.7431840  38.4887383
  28.5248891  39.5002552  39.7629242  28.5890217  40.3617383  39.3506640
  28.4616011  38.8876553  39.0301601  28.0001163  41.5725684  43.4102277
  28.6273202  41.1902761  44.0239801  27.1429082  41.3539886  43.7757969
  38.3995272  51.9788659  45.0156012  38.9435176  52.5918618  44.5210967
  37.8182117  52.5368238  45.5323025  24.7766706  43.3802113  29.3420631
  25.0720147  42.4712792  29.2887685  23.8754742  43.3589853  29.0201634
  36.6852785  55.1009377  36.1471040  36.5603924  54.2999117  35.6381985
  37.3431876  55.5955571  35.6585010  28.3060953  41.4558110  35.3248180
  27.5847539  42.0694078  35.1855653  29.0954209  41.9915875  35.2464826
  38.7487693  52.9018397  37.7750590  37.8018029  52.7823749  37.7028917
  39.0970466  52.0140895  37.8576851  31.1087267  38.7912536  41.5988832
  31.6321668  39.0374833  42.3615141  30.8899600  39.6232571  41.1791969
  26.5054548  41.0616211  29.4659957  26.1767254  40.1813590  29.2835063
  26.8593918  41.0063880  30.3536346  35.7534127  52.6971114  33.9754942
  35.6059089  51.7687821  34.1562512  36.5787620  52.7191204  33.4912017
  29.6196371  41.3489181  29.8335434  29.9592443  41.8775102  29.1114043
  30.0668491  41.6869587  30.6094001  39.3568248  53.5199672  35.0619815
  40.2814796  53.3142534  34.9244266  39.1883552  53.2716074  35.9709156
  32.3139812  39.7326231  39.2838502  31.9736632  38.9334045  39.6859182
  31.6078818  40.0327942  38.7115336  32.9656284  36.8175544  37.7365825
  33.7882353  36.3436022  37.6144716  33.2094347  37.5966028  38.2364512
  31.6064518  39.8463802  28.0328727  32.3272881  40.2245055  27.5292444
  30.9829822  40.5652679  28.1363705  35.7495641  40.5508951  28.9687059
  35.9659255  41.4333589  28.6675888  35.2689708  40.1595165  28.2392701
  30.4894862  43.5094665  35.5457804  30.3439443  43.8234968  36.4382085
  30.0120066  44.1279565  34.9928703  32.3491245  40.4997212  35.5938694
  32.3352814  39.6038306  35.2570991  33.0663673  40.5067876  36.2276980
  34.2017376  40.9334553  37.6391821  33.9435154  41.8551623  37.6376151
  33.6702416  40.5364987  38.3292285  39.1463565  54.0385340  30.4181906
  39.3200442  53.4731762  29.6655759  39.6392456  54.8386235  30.2361396
  24.9640524  46.0500009  38.4845465  24.4193993  46.8259817  38.6165739
  25.8419874  46.3970813  38.3264587  31.7528141  39.3811593  30.8626264
  31.8744052  38.4528239  31.0617151  31.4630183  39.3950279  29.9504579
  34.6219332  37.0666503  33.9992983  34.6441028  37.1305836  33.0444963
  35.0387391  36.2271012  34.1933490  45.0002956  46.8021763  32.0372206
  45.4434102  46.0529088  31.6391329  44.1229466  46.7931899  31.6545938
  40.1338737  53.3552104  27.5178805  40.8289642  53.9758797  27.7366119
  40.4761887  52.5047455  27.7931183  25.7506546  45.1769905  41.3775622
  25.0088282  45.3252541  41.9640252  25.4299291  45.4378171  40.5142371
  42.0330160  50.8051810  29.0466135  42.5581484  51.1439083  28.3215455
  41.9452513  49.8698825  28.8629270  33.6950209  54.7185883  41.1756012
  34.0037335  54.4735030  42.0478712  34.4925691  54.9232522  40.6874882
  33.7170821  56.8723793  33.4061389  33.2775811  56.3800172  34.0994245
  34.4678938  56.3296761  33.1653464  26.1963160  53.0635334  33.4086017
  27.0221180  52.7639106  33.0284660  25.8457212  52.2942956  33.8575805
  31.1644693  52.4161802  35.4783690  30.5424702  51.7532507  35.1785918
  31.8349560  52.4422934  34.7957338  24.3971765  50.9821660  34.3674950
  23.5603673  50.5543835  34.1858951  24.3695410  51.1754104  35.3045741
  31.2369221  40.8943590  45.0716196  31.2857376  41.7705713  44.6893966
  31.7791735  40.3520983  44.4987839  41.7224066  51.4384713  44.3517333
  40.9319610  51.4208852  43.8121833  41.4857421  51.9773007  45.1066370
  41.8421941  48.2877180  41.6650062  41.8919946  48.1227187  42.6065585
  41.7335865  47.4204439  41.2747943  30.7258200  50.9665725  28.9542151
  30.8746320  51.6501190  28.3008824  31.5324644  50.9470816  29.4691607
  39.1325704  44.2708108  42.9809369  40.0335567  44.1314573  42.6893366
  39.2073678  44.4362563  43.9207546  33.4668509  41.6474963  41.8262555
  32.5971819  41.9408529  41.5545143  33.7027989  42.2315408  42.5469819
  43.3440138  50.7074121  41.9092083  43.0524947  51.0704102  42.7455544
  42.7312270  49.9941130  41.7305415  44.5435821  48.2727001  34.4294654
  45.3782712  48.7116805  34.5932214  44.6794949  47.7965654  33.6102899
  41.5927326  45.8306736  40.3772141  42.0681448  46.0234382  39.5690993
  40.6692892  45.8865922  40.1315525  28.4810833  46.9930903  29.9603220
  28.2356875  46.0893233  30.1583430  28.6506748  46.9948054  29.0182698
  36.1707543  37.8654579  39.3427975  36.6889487  38.6015606  39.0174464
  35.8162676  38.1718573  40.1774734  27.7506481  42.7259261  27.4589381
  27.0575726  42.8003616  26.8029417  27.5058233  41.9619604  27.9810898
  36.4220137  34.2854862  34.8628872  36.7021891  33.6178051  35.4889298
  37.2070744  34.4783958  34.3503536  34.2253606  53.4613856  26.4253898
  33.6527573  54.0804043  25.9724370  34.7986399  54.0113218  26.9593820
  40.2928995  42.7072496  38.6100447  41.2446418  42.8070594  38.6312671
  40.1232446  41.9150765  39.1198531  38.3143375  39.7928079  38.7959848
  37.7193307  40.0733092  38.1006337  38.0293072  40.2821980  39.5676589
  37.4450865  53.7451006  27.5562480  38.3781539  53.6796568  27.7595356
  37.3574078  54.5807273  27.0977013  40.0738882  53.0616876  24.5166428
  39.9952514  52.7276740  25.4102186  40.8948549  53.5538644  24.5157900
  42.7717073  45.9278616  37.7242747  42.7393393  44.9894616  37.9102430
  43.3817697  46.0062652  36.9908572  34.6100404  44.7974669  23.7669951
  35.5559509  44.6680877  23.8358369  34.2314649  44.0589331  24.2439379
  42.9211562  42.7189659  37.7701030  42.4050610  41.9348116  37.5830959
  43.8051510  42.3908376  37.9347549  40.5822289  36.4630675  33.7296843
  40.3847110  36.1545763  34.6140174  41.1921994  37.1892314  33.8594772
  48.5893623  46.9894623  36.8648783  49.3197012  46.7279911  37.4256487
  47.9800569  46.2523344  36.9050851  46.6708920  45.1302485  37.4623235
  45.9442084  44.9958450  36.8539726  46.2556207  45.4379314  38.2679953
  34.4939097  48.8492415  45.2270608  35.4142106  49.0271014  45.4210654
  34.4588680  47.9048460  45.0750307  32.7943321  42.7224645  23.7024836
  31.8874777  42.4257758  23.7787550  33.0719302  42.4254463  22.8359122
  23.7121262  44.0431008  34.1523882  23.3924046  43.1896317  33.8598256
  23.1654690  44.2579587  34.9081850  27.4901169  46.7593449  37.8693389
  27.7087179  47.6910557  37.8881423  27.9026943  46.4001424  38.6548193
  34.4105387  37.2661535  29.8569077  33.6006115  36.9208620  30.2324323
  35.0989804  36.9569078  30.4456689  36.3395935  36.3439582  31.4793374
  36.8926974  36.7635035  32.1383397  36.5766022  35.4175330  31.5216330
  32.3629035  42.3326655  47.2596138  32.2625761  43.2821012  47.1908229
  32.1450577  42.0044894  46.3872208  31.5642106  39.5811580  23.8436815
  32.4261270  39.9066479  24.1032632  31.7492450  38.7943076  23.3309881
  23.5809522  47.6633920  36.1217004  22.8872993  47.2487873  35.6086958
  24.3282513  47.7054456  35.5250423  39.7174742  38.4540107  30.9872038
  39.1373411  39.1124911  30.6050091  39.4510675  37.6317451  30.5759456
  38.1678309  37.8545164  33.1893358  38.6678087  37.9661699  32.3807677
  38.8113917  37.5506217  33.8294167  32.2260305  45.7623794  46.0761199
  31.7427386  46.5624154  46.2825088  32.3121244  45.7731739  45.1228643
  25.4946264  47.5952174  33.9983019  25.4716952  47.6939861  33.0464902
  25.8046901  48.4417325  34.3200185  28.1533642  49.6528329  38.1129633
  29.1076896  49.6212271  38.0459565  27.9546166  49.1918952  38.9279859
  28.7433024  48.2229445  40.6800431  29.5625913  48.7173523  40.7035268
  29.0169832  47.3061413  40.6517998  38.4999620  40.6140197  30.0428386
  37.6125475  40.8989848  29.8248581  38.9153609  40.4533960  29.1955663
  41.8514157  40.6386718  33.7582726  42.6274547  41.1283171  34.0307342
  41.1262291  41.0644772  34.2154595  44.2886715  41.3514337  34.8156666
  44.8831206  41.1110073  34.1049974  44.3613299  40.6321468  35.4430203
  26.5083871  55.1947948  35.1299831  26.3738339  54.4348349  34.5637829
  26.0915933  55.9188848  34.6628620  37.6442834  50.3784872  24.1376406
  38.3478684  50.5834874  24.7534062  36.9205483  50.9461634  24.4025490
  38.4740644  46.1294733  30.2578677  38.4175846  46.5863284  29.4186309
  39.0268987  45.3685418  30.0801519  42.2845450  41.9184465  31.0828796
  42.0282384  41.5181101  31.9137004  41.6598318  42.6328259  30.9578935
  46.5957788  44.6580538  33.5900087  46.0357346  44.7273727  34.3631649
  45.9901291  44.4821523  32.8699584  29.6652997  56.0917265  35.3418274
  29.5485381  57.0362698  35.2396964  28.8445443  55.7890827  35.7304073
  39.5529531  50.8167401  26.1874866  40.3875135  50.3848599  26.0052341
  39.3913874  50.6449415  27.1151761  39.2075423  47.3199514  27.5531206
  39.1524227  47.1543786  26.6119650  38.5821479  48.0275547  27.7093395
  23.9967938  42.5567579  41.3792628  24.6426802  42.0466533  41.8679853
  23.7885090  43.2936260  41.9536053  36.5221331  49.6248426  46.8784768
  37.3912490  49.7989078  46.5171403  36.0428082  50.4442843  46.7560498
  32.5171549  36.8207623  27.1316524  32.5050219  37.7649463  27.2884795
  33.4094971  36.6377769  26.8375985  30.6907511  56.7445527  38.5574202
  31.5934758  56.7769137  38.8740697  30.4644881  55.8145978  38.5720538
  32.4461113  55.4976514  35.2184281  31.4956744  55.4978375  35.1048653
  32.7493599  54.7509248  34.7020315  36.3323668  33.4150400  31.3862461
  35.5656064  32.8608887  31.5319143  36.7434373  33.4872269  32.2476613
  28.3365429  39.7035196  45.4767642  29.1996891  39.3472001  45.6870967
  27.7630840  39.3649091  46.1643046  48.1813806  61.3337052  36.2830043
  48.8192216  61.2143799  35.5793383  48.0634649  62.2817896  36.3417995
  44.9903513  61.2864480  36.2191568  44.6522024  61.1705545  35.3312103
  45.8593281  60.8855645  36.1992574  40.8490328  63.1399957  32.2088459
  40.2855193  63.0489894  31.4404747  40.7342723  62.3199861  32.6890951
  45.4723296  62.4399332  42.1777773  45.4611936  62.0452130  41.3058277
  45.6343935  61.7065405  42.7711545  38.3954760  64.6351148  35.0472679
  39.1876052  64.2941973  34.6318979  38.6351410  64.7446123  35.9674833
  46.4289887  66.8070924  27.5202924  45.7777867  67.3925005  27.1336938
  47.2234250  67.3377119  27.5797961  40.3545514  63.8960061  27.9190058
  41.1276390  63.3489049  27.7802934  40.7070913  64.7604311  28.1304519
  42.1930557  65.2236444  41.1256957  41.9020423  66.1282075  41.0103624
  42.8287541  65.2652971  41.8401027  43.1186764  62.6013292  37.7158317
  43.7150336  62.3769315  37.0015280  43.1761735  61.8598038  38.3183765
  42.6911792  60.0552728  25.5508508  42.9437313  59.5334249  24.7891971
  41.7536351  59.8918873  25.6535192  47.7355075  59.0588506  33.3583251
  48.5218164  58.6407929  33.0073668  47.9993779  59.9634598  33.5264900
  47.9065152  64.4961356  28.0571908  47.2710985  64.5695983  28.7692813
  47.5762559  65.0854955  27.3790987  53.1363502  58.9963739  34.2616230
  53.8688674  58.4262956  34.4954059  52.3802858  58.6085340  34.7022735
  42.4108081  61.9580834  27.7532883  42.2944339  61.2825737  28.4213967
  42.5210341  61.4713207  26.9365036  44.7539622  61.4190981  31.4579572
  44.3897829  60.8921602  32.1692494  45.6106738  61.0289450  31.2846058
  50.6588922  52.7085313  38.7210838  50.3272247  53.5780724  38.4972053
  50.0634536  52.3921597  39.4004869  44.3945109  56.4480880  26.4540921
  44.5619511  57.3161117  26.8211392  44.2042278  56.6108162  25.5302210
  47.1520442  64.9097859  38.1206751  46.8521165  65.8122898  38.0122558
  46.8071501  64.6430042  38.9727904  40.6032923  61.3611656  34.1543455
  39.6783420  61.2287870  34.3621147  40.8517337  62.1405875  34.6513398
  50.5517586  57.4280399  35.8004188  49.6434463  57.3595808  35.5062949
  50.5005181  57.9052344  36.6286014  44.3734330  58.9038538  27.4387588
  44.2533955  59.3495589  28.2773068  43.6786918  59.2523856  26.8801126
  37.9641734  61.0044930  34.9887245  38.0934116  61.2579409  35.9026656
  37.2839186  61.5972638  34.6691900  42.1341222  71.6742180  31.0877719
  42.0565251  72.6250005  31.1666199  41.5302865  71.3288052  31.7452645
  44.6258451  58.8470045  43.7439086  43.8491785  59.4063965  43.7341950
  45.2649014  59.3326828  44.2653956  52.4179232  55.6296838  37.5782062
  51.7753612  55.9229371  36.9321857  51.9134161  55.5149758  38.3835259
  50.0719396  59.3760011  28.2667922  50.9837252  59.6087398  28.0915619
  49.5629043  59.9597055  27.7043000  42.8804824  61.6555498  43.3057053
  43.6219508  62.1940542  43.0291876  42.1741809  62.2821787  43.4628604
  48.3560163  63.7984639  41.9029214  48.7643519  63.3567049  41.1583847
  47.6337425  63.2237266  42.1563407  44.7091233  58.7357246  39.2762771
  45.5552429  59.1596659  39.4197420  44.6489871  58.0790870  39.9701334
  48.6788978  64.3585829  35.6581503  48.0497840  64.5231544  34.9557571
  48.2914640  64.7727439  36.4292467  52.5578210  65.2940267  33.0125867
  51.8729248  65.6739169  32.4622900  52.6422059  65.9035594  33.7457815
  47.8590679  56.3961614  40.9343945  47.6151611  57.1503674  40.3978220
  48.1350609  56.7746962  41.7691192  49.8129142  62.9400226  39.6121210
  50.0246037  63.5831986  38.9355591  49.7658890  62.1062543  39.1443140
  47.4155370  55.5518047  36.5157782  46.5539850  55.8499301  36.8074520
  47.4417805  55.7688446  35.5838815  44.2316940  64.0960238  32.9231588
  44.6955285  64.3747941  32.1336211  43.9673738  63.1943682  32.7404679
  41.1241021  63.6431719  35.8611351  41.6942378  64.0718987  35.2228836
  41.7149133  63.3614304  36.5595537  43.1685826  60.2183390  29.7321153
  43.8709869  60.6704434  30.1995080  42.8366454  59.5767209  30.3601046
  41.6166187  58.8095147  44.1072363  40.9864848  59.4911427  44.3407759
  41.5102275  58.6978228  43.1625501  36.9111160  58.4766943  35.0338287
  36.1210214  58.7324471  34.5578397  37.4022407  59.2915280  35.1390327
  50.9274969  65.8172182  37.7843568  51.7492413  65.4152369  37.5026249
  50.9237372  65.7140416  38.7359683  38.8625905  58.8411522  31.9921764
  38.0657069  58.9530216  32.5105259  38.6351497  59.1798174  31.1262654
  44.6931573  65.3656225  39.9404278  44.7576005  65.8276632  40.7762450
  43.9842497  64.7353590  40.0686588  35.1948863  58.7297433  37.4653278
  35.4456901  59.6144443  37.7310854  35.7308411  58.5502035  36.6928369
  59.0180963  62.1610930  34.1328539  58.2644671  61.5918328  33.9772544
  59.1528504  62.1273595  35.0799174  44.4079591  67.0324333  29.8083258
  44.2725265  67.8775868  30.2368106  44.9489403  67.2343610  29.0449192
  40.8946930  53.1115912  46.4697614  40.5013876  52.5582111  47.1445258
  41.7113071  53.4226491  46.8604131  37.8608988  64.5499771  30.3811184
  38.3733509  65.3443021  30.5316748  38.5131701  63.8526061  30.3144785
  39.6703873  67.6665527  32.4633937  39.8470501  68.5883492  32.2754921
  40.4660706  67.3523946  32.8928317  43.8114891  54.5273791  44.0617870
  44.5524605  55.1280945  43.9822333  44.0432814  53.7851429  43.5035913
  38.9556229  59.7130159  42.3396100  38.8409744  58.8115416  42.6403199
  38.1000747  59.9593856  41.9880916  46.0348067  67.6547899  43.9383601
  45.5911921  66.8684278  43.6204505  46.6965281  67.8427050  43.2727491
  40.7935188  69.1843701  38.4644279  41.3442613  69.0560764  37.6921273
  39.9546664  69.4838590  38.1139172  48.1329305  67.9350699  41.9665002
  48.1147780  68.7559580  41.4745271  49.0549225  67.8104774  42.1915143
  44.5902359  65.4494828  42.8088510  45.1230696  64.6883117  42.5787818
  44.0616440  65.1568480  43.5512665  47.7572054  50.5554894  38.3382152
  47.4136324  51.4456536  38.2621263  48.1251017  50.3656552  37.4751737
  35.8257905  62.8788425  31.1570754  36.6633127  63.2885433  30.9404462
  36.0036172  61.9387867  31.1270948  47.7222337  60.5463506  26.8454587
  47.2068960  61.3168110  27.0842974  47.4499645  59.8728642  27.4687649
  45.3069448  55.3913206  31.9039825  44.4511044  55.0020057  31.7245464
  45.7196400  55.4705167  31.0439611  46.8368595  52.9259550  36.3031385
  46.3333390  52.8889685  35.4899190  47.1299201  53.8352292  36.3628042
  43.0811480  53.0098279  35.3097567  43.9464477  52.8141088  34.9503456
  43.1488989  52.7808631  36.2366924  52.6956611  63.2995860  28.7807761
  51.9186054  62.9607020  28.3362923  53.3748092  63.3048483  28.1062726
  47.5108640  58.4190598  28.6714368  47.2058776  58.7336747  29.5224511
  48.4639082  58.4972018  28.7141701  45.9555072  64.5780821  30.3207322
  45.4276433  63.8433581  30.0080560  45.4542575  65.3555497  30.0747291
  50.9347918  62.7729841  35.4374369  50.2771592  63.4629103  35.5254497
  51.7388317  63.1626273  35.7808355  40.6873799  55.2400487  32.6813934
  41.2617551  55.0175669  31.9487127  41.2744782  55.3089182  33.4342535
  49.7453377  61.1274214  33.4878310  50.2585258  61.7604206  33.9900020
  50.3954601  60.5275410  33.1221670  41.0143387  57.2704948  26.7009819
  40.1780699  57.6079635  27.0219094  40.8748156  57.1353928  25.7636956
  42.9896467  52.1141736  31.4089003  42.3360880  51.7990753  30.7845618
  42.9476941  51.4917477  32.1348826  44.1007672  62.3961031  23.3242295
  43.1934734  62.1650285  23.5233444  44.5978704  61.5998650  23.5116277
  47.0075751  71.1058538  26.2438981  46.3337450  71.4090235  26.8523939
  47.3941573  71.9087619  25.8944438  46.2234208  58.6023670  35.7336651
  45.3056769  58.8238617  35.5758339  46.6394351  58.6769980  34.8748358
  47.0069255  60.0015085  30.8639331  47.7541074  60.5136483  30.5546453
  47.2760845  59.6799138  31.7243725  45.2795905  62.4973626  27.8466285
  44.3707125  62.2132659  27.9438755  45.3090989  62.9172705  26.9869592
  50.5115173  66.1080216  31.6157453  50.0577500  65.2671125  31.6722643
  49.8809140  66.7441614  31.9532233  49.4548092  57.0372202  32.8458120
  48.7170849  56.5249588  33.1768363  49.7074866  56.5972583  32.0341397
  48.9548112  67.9456712  32.5507271  49.2471087  68.5061769  31.8319637
  49.4646733  68.2385273  33.3060430  49.5559720  49.8148454  33.4399890
  49.8618597  48.9545817  33.1525805  50.2812325  50.4066074  33.2398884
  35.8484076  60.2179140  31.8281488  35.6508476  59.6248501  31.1032554
  35.2930740  59.9131350  32.5457426  43.8280800  60.1102247  33.9476081
  43.8829409  59.1576083  33.8718557  43.0172002  60.2661686  34.4317379
  44.9771993  64.0382370  25.1854364  44.5391423  63.3218229  24.7260001
  45.7182434  64.2658485  24.6239455  41.7673159  58.7279306  31.7066460
  40.9541025  59.0273477  32.1131652  42.2632154  58.3334995  32.4240942
  43.9181737  68.7237063  33.6400724  43.8757916  68.9497910  32.7109256
  44.8344436  68.4900438  33.7886525  47.3647371  59.1921131  40.5381353
  47.7196759  59.4192604  41.3975819  48.0119502  59.5239508  39.9158609
  53.0945108  62.3139567  31.2430682  52.9563007  62.5041163  30.3151872
  52.7381327  63.0758950  31.6998734  41.2587234  56.2997662  37.3227695
  41.8986614  56.1586421  36.6250658  40.4264765  56.0132175  36.9466297
  53.1214488  64.3816094  36.2541954  53.5550994  64.2891383  37.1025008
  53.8346068  64.3573594  35.6161970  42.0347538  65.6000092  33.4362687
  42.8288137  65.1050413  33.2345262  41.3239230  65.0717956  33.0730393
  46.8542383  67.9818188  37.7875055  46.9079405  68.5509124  38.5552770
  45.9857164  68.1520073  37.4229092  38.3430302  59.7443174  29.5122440
  37.4127890  59.6827630  29.7292402  38.4387774  59.2219127  28.7159081
  38.2615851  56.2697987  32.1000681  38.5222668  57.1843320  31.9909842
  39.0833023  55.8022430  32.2497294  39.7340776  57.6835744  39.2699506
  40.4063829  57.4753106  38.6212155  38.9070562  57.4857830  38.8304738
  53.9830037  64.4239794  38.7874839  54.1765927  65.3285605  39.0334114
  53.8830655  63.9647214  39.6213424  45.6366348  54.3097685  41.2865167
  44.9894263  55.0087635  41.1929643  46.4067363  54.7433829  41.6541415
  49.0445146  64.5746537  44.3615720  48.8930652  64.3457089  43.4445804
  49.0349825  65.5317139  44.3747065  45.8130482  62.1478450  39.3461986
  46.7422542  62.2989610  39.1730954  45.3921512  62.2362471  38.4910633
  44.6118814  66.1729114  37.1160524  44.4729900  65.8047899  37.9886462
  43.8233410  66.6876754  36.9444482  45.2066966  71.2738211  28.4586061
  45.3818722  70.8026254  29.2731683  44.5199754  71.9003977  28.6867321
  46.1624029  65.5510717  34.5049362  45.8273862  65.5111487  35.4007012
  45.6627975  64.8855433  34.0319772  40.1368273  60.9578347  40.0301943
  39.9988071  60.2258586  40.6313482  41.0473197  60.8687247  39.7486131
  49.0983221  62.8966751  24.7786422  48.4812392  62.1713580  24.6819474
  48.6299709  63.6576112  24.4353496  42.7650574  60.6698306  39.5185623
  43.4750192  60.0291499  39.4772241  42.7219882  60.9211201  40.4411803
  50.7537353  67.6065660  42.4392202  50.6949899  66.9224880  41.7722785
  51.1556871  68.3484650  41.9872828  41.4779508  57.6563524  41.3381262
  40.9416865  57.2054263  41.9902858  40.8896216  57.7909433  40.5951726
  39.7728051  74.4227574  35.2325921  40.0124650  75.0546098  35.9104939
  38.9297248  74.0715614  35.5191280  40.8881767  57.1152176  23.9007726
  40.0111233  56.9940976  23.5369972  41.3639520  56.3238254  23.6486614
  50.7554760  65.5705244  40.6706182  49.8681539  65.2331165  40.7932580
  51.3253311  64.8388275  40.9074947  32.4083907  61.9029335  33.9949233
  33.0954947  61.5891065  33.4070248  32.2532036  62.8070700  33.7216484
  37.2118629  56.7919532  38.4234257  37.1276818  56.1845202  37.6884667
  36.3901335  57.2828550  38.4243753  44.2855913  70.2306696  37.6367425
  44.2126085  71.0361668  38.1486729  43.8433306  70.4298662  36.8115446
  44.0745693  69.4678466  31.1470246  43.2913215  70.0100146  31.2408471
  44.7738438  69.9852446  31.5464487  47.3842343  55.2773096  33.7904452
  47.8811042  54.5243058  33.4705522  46.6129324  55.3137412  33.2247661
  55.2372100  60.9813461  35.4322743  55.2261977  61.8638176  35.0616676
  54.3689480  60.6285012  35.2377280  46.7454597  70.1293530  39.7925583
  47.4582569  70.7640995  39.7201485  46.2544625  70.2257396  38.9765585
  48.4672124  64.0344783  31.3642875  47.5328402  64.1546245  31.1947579
  48.6448792  63.1317250  31.1002885  43.9677312  57.4190479  33.5176136
  43.5975099  56.8661519  34.2057042  44.4636404  56.8148612  32.9651136
  51.8544675  59.8762102  31.8992909  52.3205127  60.7090094  31.8253212
  52.3052175  59.4107084  32.6038168  41.7966510  67.8787974  40.6131154
  42.4975970  68.5124456  40.7660548  41.3261625  68.2202705  39.8526793
  49.9220906  66.2205923  28.8979061  50.1980750  66.1062518  29.8072935
  49.0525405  65.8223408  28.8591234  49.8261338  52.2442689  35.9383811
  48.9124418  52.4746916  36.1066017  50.2554439  52.3281133  36.7897843
  49.5967796  60.4332581  38.4383705  48.9439246  60.6808488  37.7836157
  49.9748176  59.6196719  38.1046182  46.5574970  70.4692274  32.5411875
  46.7397365  69.6513930  33.0039627  47.3807956  70.6859966  32.1036765
  46.8917136  69.3960459  29.8026923  47.4204902  68.8852914  29.1897085
  47.1545355  69.0802989  30.6672456  45.6455369  61.1752392  44.9249742
  44.9696006  61.0746521  45.5952117  46.4683003  61.0191606  45.3885739
  37.3934228  67.4124329  37.5462257  37.9787665  66.6668016  37.6790161
  37.1959067  67.7228285  38.4298921  40.2472884  70.4475576  32.5624699
  39.5783259  70.9321704  32.0788739  40.1085753  70.6944796  33.4768078
  31.9851883  59.9829929  36.2666700  32.0235983  59.4493519  37.0603818
  31.4792176  59.4565134  35.6477677  44.3878152  72.4819319  39.1607358
  44.9396460  72.6450941  39.9256443  44.7284346  73.0723757  38.4887383
  39.3642645  54.8294469  39.7629242  39.4283972  55.6909300  39.3506640
  39.3009766  54.2168471  39.0301601  38.8394918  56.9017602  43.4102277
  39.4666957  56.5194679  44.0239801  37.9822837  56.6831804  43.7757969
  49.2389026  67.3080577  45.0156012  49.7828930  67.9210535  44.5210967
  48.6575871  67.8660155  45.5323025  35.6160461  58.7094031  29.3420631
  35.9113902  57.8004709  29.2887685  34.7148496  58.6881770  29.0201634
  47.5246539  70.4301295  36.1471040  47.3997679  69.6291035  35.6381985
  48.1825631  70.9247488  35.6585010  39.1454708  56.7850028  35.3248180
  38.4241293  57.3985995  35.1855653  39.9347963  57.3207792  35.2464826
  49.5881448  68.2310315  37.7750590  48.6411783  68.1115666  37.7028917
  49.9364221  67.3432813  37.8576851  41.9481021  54.1204454  41.5988832
  42.4715423  54.3666751  42.3615141  41.7293354  54.9524489  41.1791969
  37.3448302  56.3908129  29.4659957  37.0161008  55.5105508  29.2835063
  37.6987673  56.3355797  30.3536346  46.5927881  68.0263031  33.9754942
  46.4452844  67.0979739  34.1562512  47.4181375  68.0483122  33.4912017
  40.4590125  56.6781098  29.8335434  40.7986198  57.2067020  29.1114043
  40.9062246  57.0161505  30.6094001  50.1962003  68.8491590  35.0619815
  51.1208550  68.6434451  34.9244266  50.0277306  68.6007991  35.9709156
  43.1533566  55.0618149  39.2838502  42.8130387  54.2625962  39.6859182
  42.4472572  55.3619860  38.7115336  43.8050038  52.1467462  37.7365825
  44.6276107  51.6727940  37.6144716  44.0488102  52.9257945  38.2364512
  42.4458273  55.1755720  28.0328727  43.1666635  55.5536973  27.5292444
  41.8223577  55.8944597  28.1363705  46.5889395  55.8800869  28.9687059
  46.8053010  56.7625507  28.6675888  46.1083463  55.4887082  28.2392701
  41.3288617  58.8386582  35.5457804  41.1833198  59.1526885  36.4382085
  40.8513820  59.4571483  34.9928703  43.1885000  55.8289130  35.5938694
  43.1746568  54.9330223  35.2570991  43.9057428  55.8359794  36.2276980
  45.0411130  56.2626470  37.6391821  44.7828908  57.1843541  37.6376151
  44.5096171  55.8656905  38.3292285  49.9857319  69.3677257  30.4181906
  50.1594197  68.8023680  29.6655759  50.4786210  70.1678152  30.2361396
  35.8034279  61.3791927  38.4845465  35.2587747  62.1551735  38.6165739
  36.6813629  61.7262731  38.3264587  42.5921896  54.7103510  30.8626264
  42.7137807  53.7820157  31.0617151  42.3023938  54.7242196  29.9504579
  45.4613086  52.3958421  33.9992983  45.4834783  52.4597754  33.0444963
  45.8781145  51.5562930  34.1933490  55.8396710  62.1313680  32.0372206
  56.2827856  61.3821006  31.6391329  54.9623221  62.1223817  31.6545938
  50.9732492  68.6844022  27.5178805  51.6683396  69.3050715  27.7366119
  51.3155642  67.8339373  27.7931183  36.5900301  60.5061823  41.3775622
  35.8482037  60.6544458  41.9640252  36.2693045  60.7670088  40.5142371
  52.8723915  66.1343727  29.0466135  53.3975239  66.4731000  28.3215455
  52.7846267  65.1990743  28.8629270  44.5343963  70.0477801  41.1756012
  44.8431090  69.8026948  42.0478712  45.3319445  70.2524440  40.6874882
  44.5564576  72.2015711  33.4061389  44.1169566  71.7092089  34.0994245
  45.3072692  71.6588678  33.1653464  37.0356914  68.3927252  33.4086017
  37.8614934  68.0931023  33.0284660  36.6850966  67.6234874  33.8575805
  42.0038448  67.7453720  35.4783690  41.3818457  67.0824425  35.1785918
  42.6743315  67.7714852  34.7957338  35.2365520  66.3113578  34.3674950
  34.3997428  65.8835752  34.1858951  35.2089165  66.5046021  35.3045741
  42.0762975  56.2235508  45.0716196  42.1251131  57.0997631  44.6893966
  42.6185489  55.6812901  44.4987839  52.5617821  66.7676631  44.3517333
  51.7713365  66.7500770  43.8121833  52.3251175  67.3064925  45.1066370
  52.6815696  63.6169097  41.6650062  52.7313701  63.4519105  42.6065585
  52.5729619  62.7496356  41.2747943  41.5651955  66.2957643  28.9542151
  41.7140075  66.9793108  28.3008824  42.3718398  66.2762733  29.4691607
  49.9719458  59.6000025  42.9809369  50.8729321  59.4606490  42.6893366
  50.0467433  59.7654480  43.9207546  44.3062264  56.9766880  41.8262555
  43.4365573  57.2700446  41.5545143  44.5421744  57.5607325  42.5469819
  54.1833893  66.0366039  41.9092083  53.8918701  66.3996020  42.7455544
  53.5706024  65.3233047  41.7305415  55.3829575  63.6018919  34.4294654
  56.2176466  64.0408723  34.5932214  55.5188704  63.1257572  33.6102899
  52.4321081  61.1598654  40.3772141  52.9075203  61.3526300  39.5690993
  51.5086646  61.2157839  40.1315525  39.3204588  62.3222821  29.9603220
  39.0750629  61.4185151  30.1583430  39.4900502  62.3239971  29.0182698
  47.0101297  53.1946497  39.3427975  47.5283241  53.9307524  39.0174464
  46.6556430  53.5010490  40.1774734  38.5900235  58.0551178  27.4589381
  37.8969480  58.1295533  26.8029417  38.3451987  57.2911522  27.9810898
  47.2613892  49.6146780  34.8628872  47.5415645  48.9469969  35.4889298
  48.0464499  49.8075875  34.3503536  45.0647360  68.7905774  26.4253898
  44.4921327  69.4095961  25.9724370  45.6380154  69.3405135  26.9593820
  51.1322750  58.0364414  38.6100447  52.0840173  58.1362511  38.6312671
  50.9626200  57.2442682  39.1198531  49.1537129  55.1219997  38.7959848
  48.5587062  55.4025010  38.1006337  48.8686826  55.6113898  39.5676589
  48.2844620  69.0742924  27.5562480  49.2175293  69.0088485  27.7595356
  48.1967833  69.9099191  27.0977013  50.9132637  68.3908794  24.5166428
  50.8346268  68.0568658  25.4102186  51.7342303  68.8830562  24.5157900
  53.6110828  61.2570533  37.7242747  53.5787148  60.3186534  37.9102430
  54.2211451  61.3354570  36.9908572  45.4494159  60.1266586  23.7669951
  46.3953263  59.9972794  23.8358369  45.0708404  59.3881248  24.2439379
  53.7605316  58.0481577  37.7701030  53.2444365  57.2640033  37.5830959
  54.6445265  57.7200293  37.9347549  51.4216043  51.7922592  33.7296843
  51.2240864  51.4837681  34.6140174  52.0315749  52.5184231  33.8594772
  59.4287378  62.3186540  36.8648783  60.1590766  62.0571828  37.4256487
  58.8194323  61.5815262  36.9050851  57.5102675  60.4594403  37.4623235
  56.7835838  60.3250368  36.8539726  57.0949962  60.7671231  38.2679953
  45.3332851  64.1784332  45.2270608  46.2535861  64.3562931  45.4210654
  45.2982434  63.2340378  45.0750307  43.6337076  58.0516563  23.7024836
  42.7268531  57.7549675  23.7787550  43.9113057  57.7546381  22.8359122
  34.5515016  59.3722926  34.1523882  34.2317800  58.5188234  33.8598256
  34.0048444  59.5871504  34.9081850  38.3294924  62.0885367  37.8693389
  38.5480933  63.0202475  37.8881423  38.7420698  61.7293342  38.6548193
  45.2499141  52.5953452  29.8569077  44.4399870  52.2500537  30.2324323
  45.9383558  52.2860996  30.4456689  47.1789690  51.6731499  31.4793374
  47.7320728  52.0926953  32.1383397  47.4159776  50.7467247  31.5216330
  43.2022789  57.6618573  47.2596138  43.1019516  58.6112930  47.1908229
  42.9844331  57.3336812  46.3872208  42.4035860  54.9103498  23.8436815
  43.2655024  55.2358396  24.1032632  42.5886205  54.1234994  23.3309881
  34.4203276  62.9925838  36.1217004  33.7266748  62.5779790  35.6086958
  35.1676267  63.0346374  35.5250423  50.5568497  53.7832024  30.9872038
  49.9767166  54.4416828  30.6050091  50.2904430  52.9609369  30.5759456
  49.0072063  53.1837082  33.1893358  49.5071842  53.2953617  32.3807677
  49.6507671  52.8798135  33.8294167  43.0654059  61.0915712  46.0761199
  42.5821141  61.8916072  46.2825088  43.1514998  61.1023657  45.1228643
  36.3340019  62.9244091  33.9983019  36.3110707  63.0231779  33.0464902
  36.6440655  63.7709242  34.3200185  38.9927397  64.9820246  38.1129633
  39.9470650  64.9504189  38.0459565  38.7939920  64.5210870  38.9279859
  39.5826779  63.5521362  40.6800431  40.4019668  64.0465441  40.7035268
  39.8563586  62.6353331  40.6517998  49.3393375  55.9432115  30.0428386
  48.4519230  56.2281765  29.8248581  49.7547364  55.7825878  29.1955663
  52.6907911  55.9678636  33.7582726  53.4668301  56.4575088  34.0307342
  51.9656045  56.3936690  34.2154595  55.1280470  56.6806255  34.8156666
  55.7224960  56.4401991  34.1049974  55.2007053  55.9613386  35.4430203
  37.3477625  70.5239866  35.1299831  37.2132093  69.7640267  34.5637829
  36.9309688  71.2480766  34.6628620  48.4836588  65.7076789  24.1376406
  49.1872438  65.9126792  24.7534062  47.7599237  66.2753551  24.4025490
  49.3134399  61.4586651  30.2578677  49.2569600  61.9155202  29.4186309
  49.8662741  60.6977335  30.0801519  53.1239205  57.2476383  31.0828796
  52.8676139  56.8473018  31.9137004  52.4992073  57.9620177  30.9578935
  57.4351542  59.9872456  33.5900087  56.8751100  60.0565645  34.3631649
  56.8295046  59.8113440  32.8699584  40.5046751  71.4209183  35.3418274
  40.3879135  72.3654615  35.2396964  39.6839197  71.1182744  35.7304073
  50.3923286  66.1459319  26.1874866  51.2268890  65.7140517  26.0052341
  50.2307629  65.9741332  27.1151761  50.0469178  62.6491432  27.5531206
  49.9917982  62.4835703  26.6119650  49.4215233  63.3567465  27.7093395
  34.8361693  57.8859496  41.3792628  35.4820557  57.3758450  41.8679853
  34.6278844  58.6228178  41.9536053  47.3615085  64.9540344  46.8784768
  48.2306245  65.1280996  46.5171403  46.8821837  65.7734761  46.7560498
  43.3565303  52.1499541  27.1316524  43.3443973  53.0941381  27.2884795
  44.2488725  51.9669686  26.8375985  41.5301265  72.0737445  38.5574202
  42.4328512  72.1061055  38.8740697  41.3038635  71.1437896  38.5720538
  43.2854867  70.8268431  35.2184281  42.3350498  70.8270293  35.1048653
  43.5887353  70.0801166  34.7020315  47.1717423  48.7442318  31.3862461
  46.4049819  48.1900804  31.5319143  47.5828128  48.8164186  32.2476613
  39.1759184  55.0327113  45.4767642  40.0390645  54.6763918  45.6870967
  38.6024595  54.6941008  46.1643046  59.0207561  76.6628970  36.2830043
  59.6585971  76.5435717  35.5793383  58.9028404  77.6109814  36.3417995
  55.8297267  76.6156398  36.2191568  55.4915779  76.4997463  35.3312103
  56.6987035  76.2147563  36.1992574  51.6884083  78.4691874  32.2088459
  51.1248948  78.3781811  31.4404747  51.5736478  77.6491779  32.6890951
  56.3117050  77.7691250  42.1777773  56.3005691  77.3744048  41.3058277
  56.4737690  77.0357322  42.7711545  49.2348515  79.9643066  35.0472679
  50.0269807  79.6233891  34.6318979  49.4745165  80.0738041  35.9674833
  57.2683642  82.1362842  27.5202924  56.6171621  82.7216922  27.1336938
  58.0628004  82.6669037  27.5797961  51.1939269  79.2251979  27.9190058
  51.9670145  78.6780966  27.7802934  51.5464668  80.0896228  28.1304519
  53.0324311  80.5528361  41.1256957  52.7414177  81.4573992  41.0103624
  53.6681296  80.5944889  41.8401027  53.9580518  77.9305210  37.7158317
  54.5544090  77.7061232  37.0015280  54.0155490  77.1889955  38.3183765
  53.5305547  75.3844645  25.5508508  53.7831067  74.8626167  24.7891971
  52.5930106  75.2210791  25.6535192  58.5748829  74.3880424  33.3583251
  59.3611919  73.9699847  33.0073668  58.8387534  75.2926516  33.5264900
  58.7458907  79.8253274  28.0571908  58.1104740  79.8987900  28.7692813
  58.4156313  80.4146873  27.3790987  63.9757256  74.3255657  34.2616230
  64.7082428  73.7554874  34.4954059  63.2196612  73.9377257  34.7022735
  53.2501835  77.2872751  27.7532883  53.1338093  76.6117655  28.4213967
  53.3604095  76.8005125  26.9365036  55.5933376  76.7482898  31.4579572
  55.2291583  76.2213519  32.1692494  56.4500492  76.3581367  31.2846058
  61.4982677  68.0377231  38.7210838  61.1666002  68.9072642  38.4972053
  60.9028290  67.7213515  39.4004869  55.2338863  71.7772798  26.4540921
  55.4013266  72.6453034  26.8211392  55.0436032  71.9400080  25.5302210
  57.9914196  80.2389777  38.1206751  57.6914919  81.1414816  38.0122558
  57.6465256  79.9721960  38.9727904  51.4426678  76.6903574  34.1543455
  50.5177174  76.5579788  34.3621147  51.6911091  77.4697793  34.6513398
  61.3911340  72.7572317  35.8004188  60.4828217  72.6887726  35.5062949
  61.3398936  73.2344262  36.6286014  55.2128084  74.2330456  27.4387588
  55.0927709  74.6787506  28.2773068  54.5180672  74.5815773  26.8801126
  48.8035489  76.3336847  34.9887245  48.9327870  76.5871326  35.9026656
  48.1232940  76.9264555  34.6691900  52.9734976  87.0034097  31.0877719
  52.8959006  87.9541922  31.1666199  52.3696620  86.6579970  31.7452645
  55.4652206  74.1761963  43.7439086  54.6885540  74.7355883  43.7341950
  56.1042769  74.6618746  44.2653956  63.2572987  70.9588755  37.5782062
  62.6147367  71.2521289  36.9321857  62.7527915  70.8441676  38.3835259
  60.9113150  74.7051929  28.2667922  61.8231006  74.9379315  28.0915619
  60.4022797  75.2888973  27.7043000  53.7198578  76.9847416  43.3057053
  54.4613263  77.5232460  43.0291876  53.0135564  77.6113705  43.4628604
  59.1953918  79.1276557  41.9029214  59.6037274  78.6858967  41.1583847
  58.4731179  78.5529184  42.1563407  55.5484988  74.0649163  39.2762771
  56.3946183  74.4888577  39.4197420  55.4883626  73.4082788  39.9701334
  59.5182732  79.6877747  35.6581503  58.8891595  79.8523461  34.9557571
  59.1308395  80.1019357  36.4292467  63.3971964  80.6232185  33.0125867
  62.7123003  81.0031086  32.4622900  63.4815814  81.2327512  33.7457815
  58.6984433  71.7253532  40.9343945  58.4545365  72.4795592  40.3978220
  58.9744364  72.1038879  41.7691192  60.6522896  78.2692144  39.6121210
  60.8639791  78.9123904  38.9355591  60.6052644  77.4354461  39.1443140
  58.2549125  70.8809965  36.5157782  57.3933604  71.1791218  36.8074520
  58.2811560  71.0980364  35.5838815  55.0710694  79.4252155  32.9231588
  55.5349040  79.7039858  32.1336211  54.8067492  78.5235600  32.7404679
  51.9634775  78.9723637  35.8611351  52.5336133  79.4010905  35.2228836
  52.5542887  78.6906221  36.5595537  54.0079580  75.5475308  29.7321153
  54.7103624  75.9996351  30.1995080  53.6760209  74.9059126  30.3601046
  52.4559942  74.1387064  44.1072363  51.8258603  74.8203345  44.3407759
  52.3496030  74.0270146  43.1625501  47.7504914  73.8058860  35.0338287
  46.9603968  74.0616389  34.5578397  48.2416162  74.6207198  35.1390327
  61.7668724  81.1464099  37.7843568  62.5886168  80.7444287  37.5026249
  61.7631127  81.0432334  38.7359683  49.7019660  74.1703440  31.9921764
  48.9050823  74.2822134  32.5105259  49.4745252  74.5090092  31.1262654
  55.5325327  80.6948143  39.9404278  55.5969760  81.1568550  40.7762450
  54.8236251  80.0645508  40.0686588  46.0342617  74.0589351  37.4653278
  46.2850656  74.9436361  37.7310854  46.5702166  73.8793952  36.6928369
  69.8574717  77.4902848  34.1328539  69.1038425  76.9210246  33.9772544
  69.9922258  77.4565512  35.0799174  55.2473345  82.3616250  29.8083258
  55.1119020  83.2067786  30.2368106  55.7883158  82.5635528  29.0449192
  51.7340685  68.4407830  46.4697614  51.3407630  67.8874029  47.1445258
  52.5506825  68.7518409  46.8604131  48.7002742  79.8791688  30.3811184
  49.2127263  80.6734939  30.5316748  49.3525455  79.1817979  30.3144785
  50.5097627  82.9957445  32.4633937  50.6864255  83.9175409  32.2754921
  51.3054461  82.6815864  32.8928317  54.6508646  69.8565709  44.0617870
  55.3918359  70.4572862  43.9822333  54.8826568  69.1143347  43.5035913
  49.7949984  75.0422076  42.3396100  49.6803499  74.1407334  42.6403199
  48.9394501  75.2885773  41.9880916  56.8741821  82.9839817  43.9383601
  56.4305676  82.1976195  43.6204505  57.5359035  83.1718967  43.2727491
  51.6328943  84.5135618  38.4644279  52.1836368  84.3852682  37.6921273
  50.7940419  84.8130507  38.1139172  58.9723059  83.2642617  41.9665002
  58.9541535  84.0851498  41.4745271  59.8942980  83.1396692  42.1915143
  55.4296114  80.7786746  42.8088510  55.9624450  80.0175034  42.5787818
  54.9010195  80.4860398  43.5512665  58.5965809  65.8846812  38.3382152
  58.2530078  66.7748454  38.2621263  58.9644771  65.6948470  37.4751737
  46.6651659  78.2080343  31.1570754  47.5026881  78.6177351  30.9404462
  46.8429927  77.2679785  31.1270948  58.5616091  75.8755423  26.8454587
  58.0462715  76.6460028  27.0842974  58.2893400  75.2020559  27.4687649
  56.1463202  70.7205124  31.9039825  55.2904799  70.3311974  31.7245464
  56.5590154  70.7997085  31.0439611  57.6762349  68.2551467  36.3031385
  57.1727145  68.2181602  35.4899190  57.9692956  69.1644210  36.3628042
  53.9205235  68.3390197  35.3097567  54.7858232  68.1433006  34.9503456
  53.9882744  68.1100549  36.2366924  63.5350365  78.6287778  28.7807761
  62.7579808  78.2898937  28.3362923  64.2141846  78.6340401  28.1062726
  58.3502395  73.7482515  28.6714368  58.0452530  74.0628664  29.5224511
  59.3032837  73.8263935  28.7141701  56.7948826  79.9072739  30.3207322
  56.2670188  79.1725498  30.0080560  56.2936329  80.6847415  30.0747291
  61.7741672  78.1021759  35.4374369  61.1165347  78.7921021  35.5254497
  62.5782072  78.4918191  35.7808355  51.5267554  70.5692405  32.6813934
  52.1011306  70.3467586  31.9487127  52.1138536  70.6381099  33.4342535
  60.5847131  76.4566132  33.4878310  61.0979013  77.0896124  33.9900020
  61.2348355  75.8567327  33.1221670  51.8537141  72.5996866  26.7009819
  51.0174453  72.9371552  27.0219094  51.7141911  72.4645846  25.7636956
  53.8290222  67.4433654  31.4089003  53.1754634  67.1282671  30.7845618
  53.7870696  66.8209394  32.1348826  54.9401427  77.7252949  23.3242295
  54.0328488  77.4942202  23.5233444  55.4372459  76.9290568  23.5116277
  57.8469505  86.4350456  26.2438981  57.1731204  86.7382153  26.8523939
  58.2335327  87.2379536  25.8944438  57.0627962  73.9315587  35.7336651
  56.1450523  74.1530534  35.5758339  57.4788106  74.0061898  34.8748358
  57.8463010  75.3307003  30.8639331  58.5934829  75.8428400  30.5546453
  58.1154599  75.0091056  31.7243725  56.1189660  77.8265544  27.8466285
  55.2100879  77.5424577  27.9438755  56.1484744  78.2464622  26.9869592
  61.3508927  81.4372133  31.6157453  60.8971254  80.5963043  31.6722643
  60.7202894  82.0733532  31.9532233  60.2941847  72.3664119  32.8458120
  59.5564604  71.8541505  33.1768363  60.5468620  71.9264501  32.0341397
  59.7941867  83.2748630  32.5507271  60.0864841  83.8353687  31.8319637
  60.3040487  83.5677191  33.3060430  60.3953474  65.1440371  33.4399890
  60.7012351  64.2837735  33.1525805  61.1206079  65.7357991  33.2398884
  46.6877830  75.5471058  31.8281488  46.4902230  74.9540419  31.1032554
  46.1324494  75.2423268  32.5457426  54.6674554  75.4394164  33.9476081
  54.7223164  74.4868001  33.8718557  53.8565756  75.5953603  34.4317379
  55.8165748  79.3674287  25.1854364  55.3785178  78.6510146  24.7260001
  56.5576189  79.5950402  24.6239455  52.6066914  74.0571224  31.7066460
  51.7934779  74.3565395  32.1131652  53.1025908  73.6626913  32.4240942
  54.7575492  84.0528981  33.6400724  54.7151671  84.2789827  32.7109256
  55.6738191  83.8192356  33.7886525  58.2041126  74.5213049  40.5381353
  58.5590513  74.7484522  41.3975819  58.8513257  74.8531425  39.9158609
  63.9338863  77.6431484  31.2430682  63.7956761  77.8333080  30.3151872
  63.5775081  78.4050867  31.6998734  52.0980989  71.6289580  37.3227695
  52.7380368  71.4878339  36.6250658  51.2658519  71.3424093  36.9466297
  63.9608242  79.7108011  36.2541954  64.3944749  79.6183301  37.1025008
  64.6739823  79.6865512  35.6161970  52.8741293  80.9292010  33.4362687
  53.6681891  80.4342330  33.2345262  52.1632985  80.4009873  33.0730393
  57.6936137  83.3110106  37.7875055  57.7473159  83.8801042  38.5552770
  56.8250918  83.4811991  37.4229092  49.1824056  75.0735092  29.5122440
  48.2521644  75.0119547  29.7292402  49.2781528  74.5511045  28.7159081
  49.1009605  71.5989905  32.1000681  49.3616422  72.5135238  31.9909842
  49.9226777  71.1314347  32.2497294  50.5734530  73.0127662  39.2699506
  51.2457584  72.8045024  38.6212155  49.7464317  72.8149748  38.8304738
  64.8223792  79.7531712  38.7874839  65.0159682  80.6577523  39.0334114
  64.7224410  79.2939131  39.6213424  56.4760102  69.6389603  41.2865167
  55.8288017  70.3379552  41.1929643  57.2461118  70.0725747  41.6541415
  59.8838900  79.9038455  44.3615720  59.7324407  79.6749007  43.4445804
  59.8743580  80.8609056  44.3747065  56.6524237  77.4770368  39.3461986
  57.5816297  77.6281527  39.1730954  56.2315267  77.5654388  38.4910633
  55.4512569  81.5021032  37.1160524  55.3123654  81.1339816  37.9886462
  54.6627165  82.0168671  36.9444482  56.0460721  86.6030128  28.4586061
  56.2212476  86.1318172  29.2731683  55.3593509  87.2295895  28.6867321
  57.0017784  80.8802635  34.5049362  56.6667616  80.8403405  35.4007012
  56.5021729  80.2147351  34.0319772  50.9762028  76.2870265  40.0301943
  50.8381826  75.5550504  40.6313482  51.8866951  76.1979165  39.7486131
  59.9376975  78.2258669  24.7786422  59.3206146  77.5005497  24.6819474
  59.4693464  78.9868029  24.4353496  53.6044328  75.9990224  39.5185623
  54.3143947  75.3583416  39.4772241  53.5613637  76.2503119  40.4411803
  61.5931107  82.9357577  42.4392202  61.5343653  82.2516798  41.7722785
  61.9950625  83.6776567  41.9872828  52.3173262  72.9855442  41.3381262
  51.7810619  72.5346180  41.9902858  51.7289971  73.1201351  40.5951726
  50.6121806  89.7519491  35.2325921  50.8518404  90.3838015  35.9104939
  49.7691002  89.4007531  35.5191280  51.7275521  72.4444093  23.9007726
  50.8504988  72.3232894  23.5369972  52.2033274  71.6530172  23.6486614
  61.5948514  80.8997161  40.6706182  60.7075293  80.5623083  40.7932580
  62.1647065  80.1680193  40.9074947  43.2477661  77.2321253  33.9949233
  43.9348701  76.9182983  33.4070248  43.0925790  78.1362618  33.7216484
  48.0512384  72.1211450  38.4234257  47.9670572  71.5137119  37.6884667
  47.2295090  72.6120468  38.4243753  55.1249668  85.5598614  37.6367425
  55.0519839  86.3653585  38.1486729  54.6827061  85.7590580  36.8115446
  54.9139447  84.7970384  31.1470246  54.1306969  85.3392064  31.2408471
  55.6132193  85.3144363  31.5464487  58.2236097  70.6065013  33.7904452
  58.7204797  69.8534976  33.4705522  57.4523079  70.6429330  33.2247661
  66.0765855  76.3105379  35.4322743  66.0655731  77.1930094  35.0616676
  65.2083234  75.9576930  35.2377280  57.5848351  85.4585448  39.7925583
  58.2976323  86.0932913  39.7201485  57.0938380  85.5549314  38.9765585
  59.3065878  79.3636700  31.3642875  58.3722157  79.4838163  31.1947579
  59.4842547  78.4609167  31.1002885  54.8071066  72.7482396  33.5176136
  54.4368854  72.1953437  34.2057042  55.3030159  72.1440530  32.9651136
  62.6938429  75.2054020  31.8992909  63.1598882  76.0382011  31.8253212
  63.1445930  74.7399001  32.6038168  52.6360265  83.2079891  40.6131154
  53.3369724  83.8416374  40.7660548  52.1655380  83.5494623  39.8526793
  60.7614661  81.5497841  28.8979061  61.0374504  81.4354436  29.8072935
  59.8919159  81.1515326  28.8591234  60.6655092  67.5734607  35.9383811
  59.7518172  67.8038834  36.1066017  61.0948194  67.6573051  36.7897843
  60.4361551  75.7624499  38.4383705  59.7833001  76.0100406  37.7836157
  60.8141931  74.9488637  38.1046182  57.3968725  85.7984192  32.5411875
  57.5791119  84.9805848  33.0039627  58.2201711  86.0151884  32.1036765
  57.7310890  84.7252377  29.8026923  58.2598657  84.2144832  29.1897085
  57.9939110  84.4094907  30.6672456  56.4849124  76.5044310  44.9249742
  55.8089761  76.4038439  45.5952117  57.3076758  76.3483523  45.3885739
  48.2327983  82.7416246  37.5462257  48.8181420  81.9959934  37.6790161
  48.0352821  83.0520203  38.4298921  51.0866638  85.7767494  32.5624699
  50.4177013  86.2613621  32.0788739  50.9479508  86.0236714  33.4768078
  42.8245638  75.3121846  36.2666700  42.8629737  74.7785437  37.0603818
  42.3185930  74.7857052  35.6477677  55.2271907  87.8111237  39.1607358
  55.7790215  87.9742859  39.9256443  55.5678100  88.4015675  38.4887383
  50.2036400  70.1586387  39.7629242  50.2677726  71.0201218  39.3506640
  50.1403520  69.5460389  39.0301601  49.6788672  72.2309520  43.4102277
  50.3060711  71.8486597  44.0239801  48.8216591  72.0123721  43.7757969
  60.0782781  82.6372495  45.0156012  60.6222685  83.2502453  44.5210967
  59.4969626  83.1952073  45.5323025  46.4554215  74.0385949  29.3420631
  46.7507656  73.1296627  29.2887685  45.5542251  74.0173688  29.0201634
  58.3640294  85.7593213  36.1471040  58.2391433  84.9582953  35.6381985
  59.0219385  86.2539406  35.6585010  49.9848462  72.1141945  35.3248180
  49.2635048  72.7277913  35.1855653  50.7741718  72.6499710  35.2464826
  60.4275202  83.5602233  37.7750590  59.4805538  83.4407584  37.7028917
  60.7757975  82.6724731  37.8576851  52.7874776  69.4496372  41.5988832
  53.3109177  69.6958668  42.3615141  52.5687109  70.2816406  41.1791969
  48.1842057  71.7200046  29.4659957  47.8554763  70.8397425  29.2835063
  48.5381427  71.6647715  30.3536346  57.4321636  83.3554949  33.9754942
  57.2846598  82.4271656  34.1562512  58.2575129  83.3775040  33.4912017
  51.2983880  72.0073016  29.8335434  51.6379952  72.5358937  29.1114043
  51.7456000  72.3453422  30.6094001  61.0355757  84.1783508  35.0619815
  61.9602305  83.9726369  34.9244266  60.8671061  83.9299909  35.9709156
  53.9927321  70.3910067  39.2838502  53.6524141  69.5917880  39.6859182
  53.2866327  70.6911778  38.7115336  54.6443793  67.4759379  37.7365825
  55.4669862  67.0019857  37.6144716  54.8881856  68.2549863  38.2364512
  53.2852027  70.5047638  28.0328727  54.0060390  70.8828890  27.5292444
  52.6617331  71.2236514  28.1363705  57.4283150  71.2092787  28.9687059
  57.6446764  72.0917425  28.6675888  56.9477217  70.8179000  28.2392701
  52.1682371  74.1678500  35.5457804  52.0226952  74.4818803  36.4382085
  51.6907575  74.7863400  34.9928703  54.0278754  71.1581048  35.5938694
  54.0140323  70.2622141  35.2570991  54.7451182  71.1651712  36.2276980
  55.8804885  71.5918388  37.6391821  55.6222663  72.5135459  37.6376151
  55.3489925  71.1948823  38.3292285  60.8251074  84.6969175  30.4181906
  60.9987951  84.1315598  29.6655759  61.3179965  85.4970070  30.2361396
  46.6428033  76.7083844  38.4845465  46.0981502  77.4843652  38.6165739
  47.5207383  77.0554649  38.3264587  53.4315650  70.0395428  30.8626264
  53.5531561  69.1112074  31.0617151  53.1417692  70.0534114  29.9504579
  56.3006840  67.7250339  33.9992983  56.3228537  67.7889672  33.0444963
  56.7174900  66.8854847  34.1933490  66.6790465  77.4605598  32.0372206
  67.1221611  76.7112923  31.6391329  65.8016975  77.4515734  31.6545938
  61.8126246  84.0135940  27.5178805  62.5077151  84.6342632  27.7366119
  62.1549396  83.1631291  27.7931183  47.4294055  75.8353741  41.3775622
  46.6875791  75.9836376  41.9640252  47.1086800  76.0962006  40.5142371
  63.7117669  81.4635645  29.0466135  64.2368993  81.8022918  28.3215455
  63.6240022  80.5282660  28.8629270  55.3737718  85.3769719  41.1756012
  55.6824844  85.1318866  42.0478712  56.1713200  85.5816357  40.6874882
  55.3958330  87.5307628  33.4061389  54.9563320  87.0384007  34.0994245
  56.1466447  86.9880596  33.1653464  47.8750669  83.7219169  33.4086017
  48.7008689  83.4222941  33.0284660  47.5244721  82.9526792  33.8575805
  52.8432202  83.0745637  35.4783690  52.2212211  82.4116342  35.1785918
  53.5137069  83.1006769  34.7957338  46.0759274  81.6405496  34.3674950
  45.2391182  81.2127670  34.1858951  46.0482919  81.8337939  35.3045741
  52.9156730  71.5527425  45.0716196  52.9644885  72.4289548  44.6893966
  53.4579244  71.0104819  44.4987839  63.4011575  82.0968549  44.3517333
  62.6107119  82.0792688  43.8121833  63.1644930  82.6356842  45.1066370
  63.5209450  78.9461015  41.6650062  63.5707455  78.7811023  42.6065585
  63.4123374  78.0788274  41.2747943  52.4045709  81.6249561  28.9542151
  52.5533829  82.3085025  28.3008824  53.2112153  81.6054651  29.4691607
  60.8113213  74.9291943  42.9809369  61.7123076  74.7898408  42.6893366
  60.8861187  75.0946398  43.9207546  55.1456018  72.3058798  41.8262555
  54.2759327  72.5992364  41.5545143  55.3815498  72.8899243  42.5469819
  65.0227647  81.3657957  41.9092083  64.7312456  81.7287937  42.7455544
  64.4099778  80.6524965  41.7305415  66.2223330  78.9310836  34.4294654
  67.0570221  79.3700640  34.5932214  66.3582458  78.4549490  33.6102899
  63.2714835  76.4890571  40.3772141  63.7468957  76.6818218  39.5690993
  62.3480401  76.5449757  40.1315525  50.1598342  77.6514738  29.9603220
  49.9144384  76.7477068  30.1583430  50.3294257  77.6531889  29.0182698
  57.8495052  68.5238415  39.3427975  58.3676996  69.2599442  39.0174464
  57.4950185  68.8302408  40.1774734  49.4293990  73.3843096  27.4589381
  48.7363235  73.4587451  26.8029417  49.1845741  72.6203440  27.9810898
  58.1007646  64.9438697  34.8628872  58.3809400  64.2761886  35.4889298
  58.8858253  65.1367793  34.3503536  55.9041115  84.1197691  26.4253898
  55.3315082  84.7387878  25.9724370  56.4773908  84.6697053  26.9593820
  61.9716504  73.3656331  38.6100447  62.9233927  73.4654429  38.6312671
  61.8019955  72.5734600  39.1198531  59.9930884  70.4511915  38.7959848
  59.3980816  70.7316927  38.1006337  59.7080581  70.9405815  39.5676589
  59.1238374  84.4034841  27.5562480  60.0569048  84.3380403  27.7595356
  59.0361587  85.2391108  27.0977013  61.7526391  83.7200712  24.5166428
  61.6740023  83.3860575  25.4102186  62.5736058  84.2122480  24.5157900
  64.4504582  76.5862451  37.7242747  64.4180902  75.6478452  37.9102430
  65.0605206  76.6646488  36.9908572  56.2887913  75.4558504  23.7669951
  57.2347018  75.3264712  23.8358369  55.9102158  74.7173166  24.2439379
  64.5999071  73.3773494  37.7701030  64.0838119  72.5931951  37.5830959
  65.4839019  73.0492211  37.9347549  62.2609798  67.1214510  33.7296843
  62.0634619  66.8129598  34.6140174  62.8709503  67.8476149  33.8594772
  70.2681132  77.6478458  36.8648783  70.9984521  77.3863746  37.4256487
  69.6588078  76.9107180  36.9050851  68.3496429  75.7886320  37.4623235
  67.6229593  75.6542285  36.8539726  67.9343716  76.0963149  38.2679953
  56.1726606  79.5076250  45.2270608  57.0929615  79.6854849  45.4210654
  56.1376189  78.5632295  45.0750307  54.4730830  73.3808480  23.7024836
  53.5662286  73.0841593  23.7787550  54.7506811  73.0838298  22.8359122
  45.3908771  74.7014844  34.1523882  45.0711555  73.8480152  33.8598256
  44.8442199  74.9163422  34.9081850  49.1688678  77.4177285  37.8693389
  49.3874688  78.3494393  37.8881423  49.5814452  77.0585259  38.6548193
  56.0892896  67.9245370  29.8569077  55.2793624  67.5792455  30.2324323
  56.7777313  67.6152914  30.4456689  58.0183444  67.0023417  31.4793374
  58.5714483  67.4218870  32.1383397  58.2553531  66.0759165  31.5216330
  54.0416543  72.9910491  47.2596138  53.9413270  73.9404848  47.1908229
  53.8238086  72.6628729  46.3872208  53.2429615  70.2395416  23.8436815
  54.1048779  70.5650314  24.1032632  53.4279959  69.4526912  23.3309881
  45.2597031  78.3217755  36.1217004  44.5660502  77.9071708  35.6086958
  46.0070022  78.3638292  35.5250423  61.3962251  69.1123942  30.9872038
  60.8160920  69.7708746  30.6050091  61.1298184  68.2901287  30.5759456
  59.8465818  68.5129000  33.1893358  60.3465596  68.6245534  32.3807677
  60.4901426  68.2090053  33.8294167  53.9047814  76.4207629  46.0761199
  53.4214895  77.2207990  46.2825088  53.9908753  76.4315574  45.1228643
  47.1733773  78.2536009  33.9983019  47.1504461  78.3523696  33.0464902
  47.4834410  79.1001160  34.3200185  49.8321151  80.3112164  38.1129633
  50.7864405  80.2796106  38.0459565  49.6333675  79.8502788  38.9279859
  50.4220533  78.8813280  40.6800431  51.2413422  79.3757359  40.7035268
  50.6957341  77.9645248  40.6517998  60.1787129  71.2724032  30.0428386
  59.2912984  71.5573683  29.8248581  60.5941118  71.1117796  29.1955663
  63.5301666  71.2970553  33.7582726  64.3062056  71.7867006  34.0307342
  62.8049800  71.7228608  34.2154595  65.9674224  72.0098173  34.8156666
  66.5618715  71.7693909  34.1049974  66.0400808  71.2905303  35.4430203
  48.1871380  85.8531784  35.1299831  48.0525848  85.0932184  34.5637829
  47.7703442  86.5772683  34.6628620  59.3230343  81.0368707  24.1376406
  60.0266193  81.2418710  24.7534062  58.5992992  81.6045469  24.4025490
  60.1528153  76.7878568  30.2578677  60.0963355  77.2447120  29.4186309
  60.7056496  76.0269253  30.0801519  63.9632959  72.5768300  31.0828796
  63.7069893  72.1764936  31.9137004  63.3385827  73.2912094  30.9578935
  68.2745297  75.3164374  33.5900087  67.7144855  75.3857563  34.3631649
  67.6688800  75.1405358  32.8699584  51.3440506  86.7501101  35.3418274
  51.2272890  87.6946533  35.2396964  50.5232952  86.4474662  35.7304073
  61.2317040  81.4751236  26.1874866  62.0662644  81.0432435  26.0052341
  61.0701383  81.3033250  27.1151761  60.8862932  77.9783350  27.5531206
  60.8311736  77.8127621  26.6119650  60.2608988  78.6859383  27.7093395
  45.6755447  73.2151414  41.3792628  46.3214311  72.7050368  41.8679853
  45.4672599  73.9520096  41.9536053  58.2008840  80.2832261  46.8784768
  59.0699999  80.4572914  46.5171403  57.7215591  81.1026678  46.7560498
  54.1959058  67.4791459  27.1316524  54.1837728  68.4233299  27.2884795
  55.0882480  67.2961604  26.8375985  52.3695020  87.4029363  38.5574202
  53.2722267  87.4352973  38.8740697  52.1432390  86.4729813  38.5720538
  54.1248622  86.1560349  35.2184281  53.1744253  86.1562211  35.1048653
  54.4281108  85.4093084  34.7020315  58.0111177  64.0734235  31.3862461
  57.2443573  63.5192722  31.5319143  58.4221882  64.1456104  32.2476613
  50.0152938  70.3619031  45.4767642  50.8784400  70.0055836  45.6870967
  49.4418349  70.0232926  46.1643046  69.8601315  91.9920887  36.2830043
  70.4979725  91.8727635  35.5793383  69.7422158  92.9401731  36.3417995
  66.6691022  91.9448316  36.2191568  66.3309533  91.8289380  35.3312103
  67.5380790  91.5439481  36.1992574  62.5277837  93.7983792  32.2088459
  61.9642702  93.7073729  31.4404747  62.4130232  92.9783696  32.6890951
  67.1510805  93.0983167  42.1777773  67.1399445  92.7035966  41.3058277
  67.3131444  92.3649240  42.7711545  60.0742269  95.2934984  35.0472679
  60.8663561  94.9525808  34.6318979  60.3138919  95.4029959  35.9674833
  68.1077396  97.4654760  27.5202924  67.4565376  98.0508840  27.1336938
  68.9021759  97.9960955  27.5797961  62.0333023  94.5543897  27.9190058
  62.8063899  94.0072884  27.7802934  62.3858422  95.4188146  28.1304519
  63.8718066  95.8820279  41.1256957  63.5807932  96.7865910  41.0103624
  64.5075050  95.9236807  41.8401027  64.7974273  93.2597128  37.7158317
  65.3937845  93.0353150  37.0015280  64.8549244  92.5181873  38.3183765
  64.3699301  90.7136563  25.5508508  64.6224822  90.1918084  24.7891971
  63.4323860  90.5502708  25.6535192  69.4142584  89.7172341  33.3583251
  70.2005673  89.2991764  33.0073668  69.6781288  90.6218433  33.5264900
  69.5852661  95.1545192  28.0571908  68.9498494  95.2279818  28.7692813
  69.2550068  95.7438790  27.3790987  74.8151011  89.6547574  34.2616230
  75.5476183  89.0846791  34.4954059  74.0590367  89.2669175  34.7022735
  64.0895590  92.6164669  27.7532883  63.9731848  91.9409572  28.4213967
  64.1997850  92.1297043  26.9365036  66.4327131  92.0774816  31.4579572
  66.0685338  91.5505437  32.1692494  67.2894247  91.6873285  31.2846058
  72.3376431  83.3669149  38.7210838  72.0059756  84.2364560  38.4972053
  71.7422045  83.0505433  39.4004869  66.0732618  87.1064716  26.4540921
  66.2407020  87.9744952  26.8211392  65.8829787  87.2691997  25.5302210
  68.8307951  95.5681695  38.1206751  68.5308674  96.4706733  38.0122558
  68.4859010  95.3013878  38.9727904  62.2820432  92.0195491  34.1543455
  61.3570929  91.8871706  34.3621147  62.5304846  92.7989711  34.6513398
  72.2305095  88.0864235  35.8004188  71.3221972  88.0179643  35.5062949
  72.1792690  88.5636180  36.6286014  66.0521839  89.5622373  27.4387588
  65.9321464  90.0079424  28.2773068  65.3574427  89.9107691  26.8801126
  59.6429243  91.6628765  34.9887245  59.7721625  91.9163244  35.9026656
  58.9626695  92.2556473  34.6691900  63.8128731 102.3326015  31.0877719
  63.7352760 103.2833840  31.1666199  63.2090374 101.9871887  31.7452645
  66.3045960  89.5053880  43.7439086  65.5279294  90.0647801  43.7341950
  66.9436523  89.9910663  44.2653956  74.0966741  86.2880673  37.5782062
  73.4541121  86.5813206  36.9321857  73.5921670  86.1733594  38.3835259
  71.7506905  90.0343846  28.2667922  72.6624761  90.2671233  28.0915619
  71.2416552  90.6180891  27.7043000  64.5592333  92.3139334  43.3057053
  65.3007017  92.8524378  43.0291876  63.8529318  92.9405622  43.4628604
  70.0347672  94.4568474  41.9029214  70.4431028  94.0150885  41.1583847
  69.3124934  93.8821102  42.1563407  66.3878742  89.3941081  39.2762771
  67.2339938  89.8180495  39.4197420  66.3277380  88.7374705  39.9701334
  70.3576487  95.0169665  35.6581503  69.7285349  95.1815379  34.9557571
  69.9702149  95.4311274  36.4292467  74.2365719  95.9524103  33.0125867
  73.5516757  96.3323004  32.4622900  74.3209568  96.5619429  33.7457815
  69.5378188  87.0545449  40.9343945  69.2939120  87.8087510  40.3978220
  69.8138118  87.4330797  41.7691192  71.4916650  93.5984062  39.6121210
  71.7033546  94.2415822  38.9355591  71.4446399  92.7646378  39.1443140
  69.0942879  86.2101882  36.5157782  68.2327358  86.5083136  36.8074520
  69.1205314  86.4272281  35.5838815  65.9104449  94.7544073  32.9231588
  66.3742794  95.0331776  32.1336211  65.6461247  93.8527517  32.7404679
  62.8028530  94.3015554  35.8611351  63.3729887  94.7302823  35.2228836
  63.3936642  94.0198139  36.5595537  64.8473335  90.8767225  29.7321153
  65.5497378  91.3288269  30.1995080  64.5153963  90.2351044  30.3601046
  63.2953696  89.4678982  44.1072363  62.6652357  90.1495263  44.3407759
  63.1889784  89.3562064  43.1625501  58.5898669  89.1350778  35.0338287
  57.7997723  89.3908306  34.5578397  59.0809916  89.9499116  35.1390327
  72.6062478  96.4756017  37.7843568  73.4279922  96.0736204  37.5026249
  72.6024881  96.3724251  38.7359683  60.5413414  89.4995357  31.9921764
  59.7444578  89.6114051  32.5105259  60.3139006  89.8382009  31.1262654
  66.3719082  96.0240060  39.9404278  66.4363514  96.4860468  40.7762450
  65.6630006  95.3937425  40.0686588  56.8736372  89.3881268  37.4653278
  57.1244410  90.2728278  37.7310854  57.4095920  89.2085870  36.6928369
  80.6968471  92.8194766  34.1328539  79.9432180  92.2502164  33.9772544
  80.8316013  92.7857430  35.0799174  66.0867100  97.6908168  29.8083258
  65.9512774  98.5359704  30.2368106  66.6276912  97.8927446  29.0449192
  62.5734439  83.7699748  46.4697614  62.1801385  83.2165946  47.1445258
  63.3900579  84.0810326  46.8604131  59.5396497  95.2083606  30.3811184
  60.0521017  96.0026856  30.5316748  60.1919210  94.5109896  30.3144785
  61.3491382  98.3249362  32.4633937  61.5258010  99.2467327  32.2754921
  62.1448215  98.0107781  32.8928317  65.4902400  85.1857627  44.0617870
  66.2312114  85.7864780  43.9822333  65.7220323  84.4435265  43.5035913
  60.6343738  90.3713994  42.3396100  60.5197253  89.4699251  42.6403199
  59.7788256  90.6177691  41.9880916  67.7135576  98.3131734  43.9383601
  67.2699430  97.5268113  43.6204505  68.3752789  98.5010885  43.2727491
  62.4722697  99.8427536  38.4644279  63.0230122  99.7144599  37.6921273
  61.6334173 100.1422425  38.1139172  69.8116814  98.5934534  41.9665002
  69.7935289  99.4143415  41.4745271  70.7336734  98.4688610  42.1915143
  66.2689868  96.1078664  42.8088510  66.8018205  95.3466952  42.5787818
  65.7403949  95.8152316  43.5512665  69.4359563  81.2138730  38.3382152
  69.0923832  82.1040371  38.2621263  69.8038526  81.0240387  37.4751737
  57.5045414  93.5372260  31.1570754  58.3420636  93.9469269  30.9404462
  57.6823681  92.5971702  31.1270948  69.4009846  91.2047341  26.8454587
  68.8856469  91.9751946  27.0842974  69.1287154  90.5312477  27.4687649
  66.9856957  86.0497042  31.9039825  66.1298553  85.6603892  31.7245464
  67.3983909  86.1289002  31.0439611  68.5156103  83.5843385  36.3031385
  68.0120899  83.5473520  35.4899190  68.8086710  84.4936128  36.3628042
  64.7598989  83.6682115  35.3097567  65.6251986  83.4724923  34.9503456
  64.8276498  83.4392466  36.2366924  74.3744120  93.9579696  28.7807761
  73.5973563  93.6190855  28.3362923  75.0535601  93.9632319  28.1062726
  69.1896149  89.0774433  28.6714368  68.8846285  89.3920582  29.5224511
  70.1426591  89.1555853  28.7141701  67.6342581  95.2364656  30.3207322
  67.1063942  94.5017416  30.0080560  67.1330084  96.0139333  30.0747291
  72.6135427  93.4313677  35.4374369  71.9559101  94.1212938  35.5254497
  73.4175826  93.8210109  35.7808355  62.3661308  85.8984323  32.6813934
  62.9405060  85.6759504  31.9487127  62.9532291  85.9673017  33.4342535
  71.4240886  91.7858049  33.4878310  71.9372767  92.4188041  33.9900020
  72.0742110  91.1859245  33.1221670  62.6930896  87.9288784  26.7009819
  61.8568208  88.2663470  27.0219094  62.5535665  87.7937763  25.7636956
  64.6683976  82.7725571  31.4089003  64.0148389  82.4574589  30.7845618
  64.6264450  82.1501312  32.1348826  65.7795181  93.0544867  23.3242295
  64.8722243  92.8234120  23.5233444  66.2766213  92.2582486  23.5116277
  68.6863260 101.7642374  26.2438981  68.0124959 102.0674071  26.8523939
  69.0729082 102.5671454  25.8944438  67.9021717  89.2607505  35.7336651
  66.9844278  89.4822452  35.5758339  68.3181860  89.3353815  34.8748358
  68.6856764  90.6598921  30.8639331  69.4328583  91.1720318  30.5546453
  68.9548354  90.3382973  31.7243725  66.9583414  93.1557461  27.8466285
  66.0494634  92.8716494  27.9438755  66.9878498  93.5756540  26.9869592
  72.1902682  96.7664051  31.6157453  71.7365009  95.9254961  31.6722643
  71.5596649  97.4025449  31.9532233  71.1335601  87.6956037  32.8458120
  70.3958358  87.1833423  33.1768363  71.3862375  87.2556419  32.0341397
  70.6335621  98.6040548  32.5507271  70.9258595  99.1645605  31.8319637
  71.1434242  98.8969109  33.3060430  71.2347229  80.4732289  33.4399890
  71.5406106  79.6129652  33.1525805  71.9599834  81.0649909  33.2398884
  57.5271585  90.8762976  31.8281488  57.3295985  90.2832336  31.1032554
  56.9718249  90.5715186  32.5457426  65.5068309  90.7686082  33.9476081
  65.5616918  89.8159918  33.8718557  64.6959511  90.9245521  34.4317379
  66.6559502  94.6966205  25.1854364  66.2178932  93.9802064  24.7260001
  67.3969943  94.9242320  24.6239455  63.4460668  89.3863142  31.7066460
  62.6328534  89.6857312  32.1131652  63.9419663  88.9918831  32.4240942
  65.5969246  99.3820899  33.6400724  65.5545425  99.6081745  32.7109256
  66.5131945  99.1484273  33.7886525  69.0434880  89.8504966  40.5381353
  69.3984268  90.0776439  41.3975819  69.6907011  90.1823343  39.9158609
  74.7732617  92.9723402  31.2430682  74.6350516  93.1624998  30.3151872
  74.4168836  93.7342785  31.6998734  62.9374743  86.9581497  37.3227695
  63.5774123  86.8170256  36.6250658  62.1052274  86.6716011  36.9466297
  74.8001997  95.0399929  36.2541954  75.2338503  94.9475218  37.1025008
  75.5133577  95.0157430  35.6161970  63.7135047  96.2583928  33.4362687
  64.5075646  95.7634248  33.2345262  63.0026739  95.7301791  33.0730393
  68.5329892  98.6402023  37.7875055  68.5866914  99.2092960  38.5552770
  67.6644673  98.8103908  37.4229092  60.0217811  90.4027009  29.5122440
  59.0915399  90.3411465  29.7292402  60.1175283  89.8802962  28.7159081
  59.9403360  86.9281822  32.1000681  60.2010177  87.8427156  31.9909842
  60.7620532  86.4606265  32.2497294  61.4128285  88.3419579  39.2699506
  62.0851338  88.1336942  38.6212155  60.5858071  88.1441665  38.8304738
  75.6617546  95.0823630  38.7874839  75.8553436  95.9869440  39.0334114
  75.5618164  94.6231049  39.6213424  67.3153857  84.9681520  41.2865167
  66.6681772  85.6671470  41.1929643  68.0854872  85.4017664  41.6541415
  70.7232655  95.2330373  44.3615720  70.5718161  95.0040924  43.4445804
  70.7137334  96.1900974  44.3747065  67.4917991  92.8062285  39.3461986
  68.4210051  92.9573445  39.1730954  67.0709021  92.8946306  38.4910633
  66.2906323  96.8312950  37.1160524  66.1517409  96.4631734  37.9886462
  65.5020919  97.3460589  36.9444482  66.8854475 101.9322046  28.4586061
  67.0606231 101.4610089  29.2731683  66.1987263 102.5587812  28.6867321
  67.8411538  96.2094552  34.5049362  67.5061371  96.1695322  35.4007012
  67.3415484  95.5439268  34.0319772  61.8155782  91.6162182  40.0301943
  61.6775580  90.8842421  40.6313482  62.7260706  91.5271083  39.7486131
  70.7770730  93.5550587  24.7786422  70.1599901  92.8297415  24.6819474
  70.3087218  94.3159947  24.4353496  64.4438083  91.3282142  39.5185623
  65.1537701  90.6875334  39.4772241  64.4007391  91.5795037  40.4411803
  72.4324862  98.2649495  42.4392202  72.3737408  97.5808715  41.7722785
  72.8344380  99.0068485  41.9872828  63.1567017  88.3147360  41.3381262
  62.6204374  87.8638098  41.9902858  62.5683725  88.4493268  40.5951726
  61.4515560 105.0811409  35.2325921  61.6912159 105.7129933  35.9104939
  60.6084757 104.7299449  35.5191280  62.5669276  87.7736011  23.9007726
  61.6898742  87.6524812  23.5369972  63.0427029  86.9822089  23.6486614
  72.4342269  96.2289079  40.6706182  71.5469048  95.8915001  40.7932580
  73.0040820  95.4972110  40.9074947  54.0871416  92.5613171  33.9949233
  54.7742456  92.2474901  33.4070248  53.9319545  93.4654535  33.7216484
  58.8906138  87.4503367  38.4234257  58.8064327  86.8429037  37.6884667
  58.0688844  87.9412386  38.4243753  65.9643422 100.8890531  37.6367425
  65.8913594 101.6945503  38.1486729  65.5220815 101.0882497  36.8115446
  65.7533202 100.1262301  31.1470246  64.9700724 100.6683982  31.2408471
  66.4525947 100.6436281  31.5464487  69.0629852  85.9356931  33.7904452
  69.5598551  85.1826893  33.4705522  68.2916833  85.9721248  33.2247661
  76.9159609  91.6397296  35.4322743  76.9049486  92.5222012  35.0616676
  76.0476989  91.2868847  35.2377280  68.4242106 100.7877365  39.7925583
  69.1370078 101.4224830  39.7201485  67.9332134 100.8841231  38.9765585
  70.1459633  94.6928618  31.3642875  69.2115911  94.8130081  31.1947579
  70.3236301  93.7901085  31.1002885  65.6464821  88.0774314  33.5176136
  65.2762608  87.5245354  34.2057042  66.1423913  87.4732447  32.9651136
  73.5332184  90.5345937  31.8992909  73.9992636  91.3673929  31.8253212
  73.9839684  90.0690919  32.6038168  63.4754019  98.5371809  40.6131154
  64.1763479  99.1708292  40.7660548  63.0049134  98.8786540  39.8526793
  71.6008415  96.8789759  28.8979061  71.8768259  96.7646353  29.8072935
  70.7312914  96.4807244  28.8591234  71.5048847  82.9026524  35.9383811
  70.5911927  83.1330751  36.1066017  71.9341948  82.9864968  36.7897843
  71.2755305  91.0916416  38.4383705  70.6226755  91.3392324  37.7836157
  71.6535685  90.2780555  38.1046182  68.2362479 101.1276110  32.5411875
  68.4184874 100.3097765  33.0039627  69.0595465 101.3443802  32.1036765
  68.5704645 100.0544295  29.8026923  69.0992411  99.5436749  29.1897085
  68.8332864  99.7386825  30.6672456  67.3242878  91.8336227  44.9249742
  66.6483515  91.7330357  45.5952117  68.1470512  91.6775441  45.3885739
  59.0721737  98.0708164  37.5462257  59.6575174  97.3251852  37.6790161
  58.8746576  98.3812121  38.4298921  61.9260393 101.1059411  32.5624699
  61.2570768 101.5905539  32.0788739  61.7873262 101.3528632  33.4768078
  53.6639392  90.6413764  36.2666700  53.7023492  90.1077355  37.0603818
  53.1579685  90.1148970  35.6477677  66.0665661 103.1403155  39.1607358
  66.6183969 103.3034776  39.9256443  66.4071855 103.7307593  38.4887383
  61.0430154  85.4878305  39.7629242  61.1071481  86.3493136  39.3506640
  60.9797275  84.8752306  39.0301601  60.5182427  87.5601437  43.4102277
  61.1454466  87.1778514  44.0239801  59.6610346  87.3415639  43.7757969
  70.9176535  97.9664412  45.0156012  71.4616439  98.5794371  44.5210967
  70.3363380  98.5243991  45.5323025  57.2947970  89.3677866  29.3420631
  57.5901411  88.4588545  29.2887685  56.3936005  89.3465606  29.0201634
  69.2034048 101.0885130  36.1471040  69.0785188 100.2874870  35.6381985
  69.8613140 101.5831324  35.6585010  60.8242217  87.4433863  35.3248180
  60.1028802  88.0569831  35.1855653  61.6135472  87.9791628  35.2464826
  71.2668957  98.8894150  37.7750590  70.3199292  98.7699502  37.7028917
  71.6151730  98.0016648  37.8576851  63.6268530  84.7788289  41.5988832
  64.1502932  85.0250586  42.3615141  63.4080863  85.6108324  41.1791969
  59.0235811  87.0491964  29.4659957  58.6948517  86.1689343  29.2835063
  59.3775182  86.9939633  30.3536346  68.2715390  98.6846867  33.9754942
  68.1240353  97.7563574  34.1562512  69.0968884  98.7066957  33.4912017
  62.1377634  87.3364934  29.8335434  62.4773707  87.8650855  29.1114043
  62.5849755  87.6745340  30.6094001  71.8749512  99.5075425  35.0619815
  72.7996059  99.3018287  34.9244266  71.7064815  99.2591827  35.9709156
  64.8321075  85.7201984  39.2838502  64.4917896  84.9209798  39.6859182
  64.1260081  86.0203695  38.7115336  65.4837547  82.8051297  37.7365825
  66.3063616  82.3311775  37.6144716  65.7275611  83.5841781  38.2364512
  64.1245782  85.8339555  28.0328727  64.8454144  86.2120808  27.5292444
  63.5011086  86.5528432  28.1363705  68.2676904  86.5384704  28.9687059
  68.4840519  87.4209342  28.6675888  67.7870972  86.1470918  28.2392701
  63.0076126  89.4970418  35.5457804  62.8620706  89.8110721  36.4382085
  62.5301329  90.1155318  34.9928703  64.8672509  86.4872966  35.5938694
  64.8534077  85.5914059  35.2570991  65.5844937  86.4943629  36.2276980
  66.7198639  86.9210306  37.6391821  66.4616417  87.8427376  37.6376151
  66.1883680  86.5240740  38.3292285  71.6644828 100.0261093  30.4181906
  71.8381706  99.4607515  29.6655759  72.1573719 100.8261988  30.2361396
  57.4821788  92.0375762  38.4845465  56.9375256  92.8135570  38.6165739
  58.3601138  92.3846566  38.3264587  64.2709405  85.3687346  30.8626264
  64.3925316  84.4403992  31.0617151  63.9811447  85.3826032  29.9504579
  67.1400595  83.0542256  33.9992983  67.1622292  83.1181589  33.0444963
  67.5568654  82.2146765  34.1933490  77.5184219  92.7897516  32.0372206
  77.9615365  92.0404841  31.6391329  76.6410730  92.7807652  31.6545938
  72.6520001  99.3427857  27.5178805  73.3470905  99.9634550  27.7366119
  72.9943151  98.4923208  27.7931183  58.2687810  91.1645658  41.3775622
  57.5269546  91.3128294  41.9640252  57.9480554  91.4253924  40.5142371
  74.5511424  96.7927563  29.0466135  75.0762748  97.1314836  28.3215455
  74.4633776  95.8574578  28.8629270  66.2131472 100.7061636  41.1756012
  66.5218599 100.4610783  42.0478712  67.0106954 100.9108275  40.6874882
  66.2352084 102.8599546  33.4061389  65.7957075 102.3675925  34.0994245
  66.9860201 102.3172514  33.1653464  58.7144423  99.0511087  33.4086017
  59.5402443  98.7514859  33.0284660  58.3638475  98.2818709  33.8575805
  63.6825957  98.4037555  35.4783690  63.0605966  97.7408260  35.1785918
  64.3530824  98.4298687  34.7957338  56.9153029  96.9697413  34.3674950
  56.0784937  96.5419588  34.1858951  56.8876674  97.1629857  35.3045741
  63.7550484  86.8819343  45.0716196  63.8038640  87.7581466  44.6893966
  64.2972998  86.3396736  44.4987839  74.2405330  97.4260466  44.3517333
  73.4500874  97.4084605  43.8121833  74.0038684  97.9648760  45.1066370
  74.3603205  94.2752933  41.6650062  74.4101210  94.1102940  42.6065585
  74.2517128  93.4080192  41.2747943  63.2439464  96.9541478  28.9542151
  63.3927584  97.6376943  28.3008824  64.0505907  96.9346569  29.4691607
  71.6506967  90.2583861  42.9809369  72.5516830  90.1190326  42.6893366
  71.7254942  90.4238316  43.9207546  65.9849773  87.6350716  41.8262555
  65.1153082  87.9284282  41.5545143  66.2209253  88.2191161  42.5469819
  75.8621402  96.6949874  41.9092083  75.5706210  97.0579855  42.7455544
  75.2493533  95.9816883  41.7305415  77.0617084  94.2602754  34.4294654
  77.8963975  94.6992558  34.5932214  77.1976213  93.7841407  33.6102899
  74.1108590  91.8182489  40.3772141  74.5862712  92.0110135  39.5690993
  73.1874155  91.8741675  40.1315525  60.9992097  92.9806656  29.9603220
  60.7538138  92.0768986  30.1583430  61.1688011  92.9823807  29.0182698
  68.6888806  83.8530333  39.3427975  69.2070750  84.5891359  39.0174464
  68.3343939  84.1594326  40.1774734  60.2687744  88.7135014  27.4589381
  59.5756989  88.7879369  26.8029417  60.0239496  87.9495357  27.9810898
  68.9401401  80.2730615  34.8628872  69.2203154  79.6053804  35.4889298
  69.7252008  80.4659711  34.3503536  66.7434869  99.4489609  26.4253898
  66.1708836 100.0679796  25.9724370  67.3167663  99.9988971  26.9593820
  72.8110259  88.6948249  38.6100447  73.7627682  88.7946347  38.6312671
  72.6413709  87.9026518  39.1198531  70.8324638  85.7803832  38.7959848
  70.2374571  86.0608845  38.1006337  70.5474335  86.2697733  39.5676589
  69.9632129  99.7326759  27.5562480  70.8962802  99.6672321  27.7595356
  69.8755342 100.5683026  27.0977013  72.5920146  99.0492629  24.5166428
  72.5133777  98.7152493  25.4102186  73.4129812  99.5414397  24.5157900
  75.2898337  91.9154369  37.7242747  75.2574657  90.9770369  37.9102430
  75.8998960  91.9938405  36.9908572  67.1281668  90.7850422  23.7669951
  68.0740772  90.6556630  23.8358369  66.7495913  90.0465084  24.2439379
  75.4392825  88.7065412  37.7701030  74.9231874  87.9223869  37.5830959
  76.3232774  88.3784129  37.9347549  73.1003552  82.4506428  33.7296843
  72.9028373  82.1421516  34.6140174  73.7103258  83.1768067  33.8594772
  81.1074887  92.9770376  36.8648783  81.8378275  92.7155664  37.4256487
  80.4981832  92.2399097  36.9050851  79.1890184  91.1178238  37.4623235
  78.4623347  90.9834203  36.8539726  78.7737471  91.4255067  38.2679953
  67.0120360  94.8368168  45.2270608  67.9323370  95.0146767  45.4210654
  66.9769943  93.8924213  45.0750307  65.3124585  88.7100398  23.7024836
  64.4056040  88.4133511  23.7787550  65.5900566  88.4130216  22.8359122
  56.2302525  90.0306761  34.1523882  55.9105309  89.1772070  33.8598256
  55.6835953  90.2455340  34.9081850  60.0082433  92.7469202  37.8693389
  60.2268442  93.6786310  37.8881423  60.4208206  92.3877177  38.6548193
  66.9286650  83.2537288  29.8569077  66.1187379  82.9084373  30.2324323
  67.6171067  82.9444832  30.4456689  68.8577199  82.3315335  31.4793374
  69.4108237  82.7510788  32.1383397  69.0947285  81.4051083  31.5216330
  64.8810298  88.3202408  47.2596138  64.7807025  89.2696765  47.1908229
  64.6631840  87.9920647  46.3872208  64.0823369  85.5687333  23.8436815
  64.9442533  85.8942232  24.1032632  64.2673714  84.7818829  23.3309881
  56.0990785  93.6509673  36.1217004  55.4054257  93.2363626  35.6086958
  56.8463776  93.6930209  35.5250423  72.2356006  84.4415860  30.9872038
  71.6554675  85.1000664  30.6050091  71.9691939  83.6193204  30.5759456
  70.6859572  83.8420917  33.1893358  71.1859351  83.9537452  32.3807677
  71.3295180  83.5381970  33.8294167  64.7441568  91.7499547  46.0761199
  64.2608650  92.5499907  46.2825088  64.8302507  91.7607492  45.1228643
  58.0127528  93.5827927  33.9983019  57.9898216  93.6815614  33.0464902
  58.3228164  94.4293078  34.3200185  60.6714906  95.6404082  38.1129633
  61.6258159  95.6088024  38.0459565  60.4727429  95.1794706  38.9279859
  61.2614288  94.2105198  40.6800431  62.0807177  94.7049276  40.7035268
  61.5351095  93.2937166  40.6517998  71.0180884  86.6015950  30.0428386
  70.1306739  86.8865601  29.8248581  71.4334873  86.4409714  29.1955663
  74.3695420  86.6262471  33.7582726  75.1455810  87.1158924  34.0307342
  73.6443554  87.0520525  34.2154595  76.8067979  87.3390090  34.8156666
  77.4012469  87.0985826  34.1049974  76.8794562  86.6197221  35.4430203
  59.0265134 101.1823701  35.1299831  58.8919602 100.4224102  34.5637829
  58.6097197 101.9064601  34.6628620  70.1624097  96.3660625  24.1376406
  70.8659947  96.5710627  24.7534062  69.4386746  96.9337387  24.4025490
  70.9921908  92.1170486  30.2578677  70.9357109  92.5739037  29.4186309
  71.5450250  91.3561171  30.0801519  74.8026714  87.9060218  31.0828796
  74.5463648  87.5056854  31.9137004  74.1779582  88.6204012  30.9578935
  79.1139051  90.6456291  33.5900087  78.5538609  90.7149480  34.3631649
  78.5082555  90.4697276  32.8699584  62.1834260 102.0793018  35.3418274
  62.0666644 103.0238451  35.2396964  61.3626706 101.7766580  35.7304073
  72.0710795  96.8043154  26.1874866  72.9056399  96.3724352  26.0052341
  71.9095138  96.6325168  27.1151761  71.7256687  93.3075267  27.5531206
  71.6705491  93.1419539  26.6119650  71.1002742  94.0151300  27.7093395
  56.5149202  88.5443332  41.3792628  57.1608065  88.0342286  41.8679853
  56.3066353  89.2812013  41.9536053  69.0402594  95.6124179  46.8784768
  69.9093754  95.7864831  46.5171403  68.5609346  96.4318596  46.7560498
  65.0352812  82.8083376  27.1316524  65.0231482  83.7525216  27.2884795
  65.9276234  82.6253522  26.8375985  63.2088774 102.7321280  38.5574202
  64.1116021 102.7644890  38.8740697  62.9826144 101.8021731  38.5720538
  64.9642376 101.4852267  35.2184281  64.0138007 101.4854128  35.1048653
  65.2674862 100.7385001  34.7020315  68.8504932  79.4026153  31.3862461
  68.0837328  78.8484640  31.5319143  69.2615637  79.4748022  32.2476613
  60.8546693  85.6910949  45.4767642  61.7178154  85.3347754  45.6870967
  60.2812104  85.3524844  46.1643046  80.6995070 107.3212805  36.2830043
  81.3373480 107.2019552  35.5793383  80.5815913 108.2693649  36.3417995
  77.5084776 107.2740233  36.2191568  77.1703288 107.1581298  35.3312103
  78.3774544 106.8731398  36.1992574  73.3671592 109.1275710  32.2088459
  72.8036457 109.0365647  31.4404747  73.2523987 108.3075614  32.6890951
  77.9904559 108.4275085  42.1777773  77.9793200 108.0327883  41.3058277
  78.1525199 107.6941158  42.7711545  70.9136024 110.6226901  35.0472679
  71.7057316 110.2817726  34.6318979  71.1532674 110.7321876  35.9674833
  78.9471151 112.7946677  27.5202924  78.2959130 113.3800758  27.1336938
  79.7415513 113.3252872  27.5797961  72.8726778 109.8835814  27.9190058
  73.6457654 109.3364802  27.7802934  73.2252177 110.7480064  28.1304519
  74.7111820 111.2112197  41.1256957  74.4201686 112.1157828  41.0103624
  75.3468805 111.2528724  41.8401027  75.6368027 108.5889045  37.7158317
  76.2331599 108.3645068  37.0015280  75.6942999 107.8473791  38.3183765
  75.2093055 106.0428481  25.5508508  75.4618576 105.5210002  24.7891971
  74.2717615 105.8794626  25.6535192  80.2536338 105.0464259  33.3583251
  81.0399428 104.6283682  33.0073668  80.5175043 105.9510351  33.5264900
  80.4246416 110.4837109  28.0571908  79.7892249 110.5571736  28.7692813
  80.0943822 111.0730708  27.3790987  85.6544765 104.9839492  34.2616230
  86.3869937 104.4138709  34.4954059  84.8984121 104.5961093  34.7022735
  74.9289344 107.9456587  27.7532883  74.8125602 107.2701490  28.4213967
  75.0391604 107.4588960  26.9365036  77.2720885 107.4066734  31.4579572
  76.9079092 106.8797355  32.1692494  78.1288001 107.0165203  31.2846058
  83.1770186  98.6961066  38.7210838  82.8453511  99.5656477  38.4972053
  82.5815799  98.3797350  39.4004869  76.9126372 102.4356633  26.4540921
  77.0800774 103.3036870  26.8211392  76.7223541 102.5983915  25.5302210
  79.6701705 110.8973612  38.1206751  79.3702428 111.7998651  38.0122558
  79.3252765 110.6305795  38.9727904  73.1214187 107.3487409  34.1543455
  72.1964683 107.2163623  34.3621147  73.3698600 108.1281628  34.6513398
  83.0698849 103.4156152  35.8004188  82.1615726 103.3471561  35.5062949
  83.0186445 103.8928097  36.6286014  76.8915593 104.8914291  27.4387588
  76.7715218 105.3371342  28.2773068  76.1968181 105.2399609  26.8801126
  70.4822998 106.9920683  34.9887245  70.6115379 107.2455162  35.9026656
  69.8020449 107.5848391  34.6691900  74.6522485 117.6617933  31.0877719
  74.5746515 118.6125758  31.1666199  74.0484129 117.3163805  31.7452645
  77.1439715 104.8345798  43.7439086  76.3673049 105.3939718  43.7341950
  77.7830278 105.3202581  44.2653956  84.9360496 101.6172591  37.5782062
  84.2934876 101.9105124  36.9321857  84.4315424 101.5025511  38.3835259
  82.5900659 105.3635764  28.2667922  83.5018515 105.5963151  28.0915619
  82.0810306 105.9472808  27.7043000  75.3986087 107.6431251  43.3057053
  76.1400772 108.1816295  43.0291876  74.6923073 108.2697540  43.4628604
  80.8741427 109.7860392  41.9029214  81.2824783 109.3442802  41.1583847
  80.1518688 109.2113019  42.1563407  77.2272497 104.7232999  39.2762771
  78.0733692 105.1472412  39.4197420  77.1671135 104.0666623  39.9701334
  81.1970241 110.3461582  35.6581503  80.5679104 110.5107297  34.9557571
  80.8095904 110.7603192  36.4292467  85.0759473 111.2816020  33.0125867
  84.3910512 111.6614922  32.4622900  85.1603323 111.8911347  33.7457815
  80.3771942 102.3837367  40.9343945  80.1332874 103.1379428  40.3978220
  80.6531873 102.7622715  41.7691192  82.3310405 108.9275979  39.6121210
  82.5427300 109.5707739  38.9355591  82.2840153 108.0938296  39.1443140
  79.9336634 101.5393800  36.5157782  79.0721113 101.8375054  36.8074520
  79.9599069 101.7564199  35.5838815  76.7498203 110.0835991  32.9231588
  77.2136549 110.3623694  32.1336211  76.4855001 109.1819435  32.7404679
  73.6422284 109.6307472  35.8611351  74.2123641 110.0594740  35.2228836
  74.2330396 109.3490057  36.5595537  75.6867089 106.2059143  29.7321153
  76.3891133 106.6580187  30.1995080  75.3547718 105.5642962  30.3601046
  74.1347451 104.7970900  44.1072363  73.5046112 105.4787180  44.3407759
  74.0283539 104.6853981  43.1625501  69.4292423 104.4642696  35.0338287
  68.6391477 104.7200224  34.5578397  69.9203671 105.2791033  35.1390327
  83.4456233 111.8047935  37.7843568  84.2673677 111.4028122  37.5026249
  83.4418636 111.7016169  38.7359683  71.3807169 104.8287275  31.9921764
  70.5838332 104.9405969  32.5105259  71.1532761 105.1673927  31.1262654
  77.2112836 111.3531978  39.9404278  77.2757269 111.8152385  40.7762450
  76.5023760 110.7229343  40.0686588  67.7130126 104.7173186  37.4653278
  67.9638165 105.6020196  37.7310854  68.2489675 104.5377788  36.6928369
  91.5362226 108.1486683  34.1328539  90.7825934 107.5794081  33.9772544
  91.6709767 108.1149348  35.0799174  76.9260854 113.0200086  29.8083258
  76.7906529 113.8651621  30.2368106  77.4670667 113.2219363  29.0449192
  73.4128194  99.0991665  46.4697614  73.0195139  98.5457864  47.1445258
  74.2294334  99.4102244  46.8604131  70.3790251 110.5375524  30.3811184
  70.8914772 111.3318774  30.5316748  71.0312964 109.8401814  30.3144785
  72.1885136 113.6541280  32.4633937  72.3651764 114.5759245  32.2754921
  72.9841970 113.3399699  32.8928317  76.3296155 100.5149545  44.0617870
  77.0705868 101.1156698  43.9822333  76.5614077  99.7727182  43.5035913
  71.4737493 105.7005912  42.3396100  71.3591008 104.7991169  42.6403199
  70.6182010 105.9469609  41.9880916  78.5529330 113.6423652  43.9383601
  78.1093185 112.8560031  43.6204505  79.2146544 113.8302803  43.2727491
  73.3116452 115.1719454  38.4644279  73.8623877 115.0436517  37.6921273
  72.4727927 115.4714343  38.1139172  80.6510568 113.9226452  41.9665002
  80.6329044 114.7435333  41.4745271  81.5730489 113.7980527  42.1915143
  77.1083623 111.4370581  42.8088510  77.6411959 110.6758870  42.5787818
  76.5797704 111.1444233  43.5512665  80.2753318  96.5430647  38.3382152
  79.9317587  97.4332289  38.2621263  80.6432280  96.3532305  37.4751737
  68.3439168 108.8664178  31.1570754  69.1814390 109.2761186  30.9404462
  68.5217436 107.9263620  31.1270948  80.2403600 106.5339259  26.8454587
  79.7250224 107.3043863  27.0842974  79.9680909 105.8604395  27.4687649
  77.8250711 101.3788959  31.9039825  76.9692308 100.9895810  31.7245464
  78.2377663 101.4580920  31.0439611  79.3549858  98.9135303  36.3031385
  78.8514654  98.8765438  35.4899190  79.6480465  99.8228045  36.3628042
  75.5992744  98.9974032  35.3097567  76.4645741  98.8016841  34.9503456
  75.6670253  98.7684384  36.2366924  85.2137874 109.2871613  28.7807761
  84.4367317 108.9482773  28.3362923  85.8929355 109.2924236  28.1062726
  80.0289903 104.4066351  28.6714368  79.7240039 104.7212500  29.5224511
  80.9820346 104.4847771  28.7141701  78.4736335 110.5656574  30.3207322
  77.9457697 109.8309334  30.0080560  77.9723838 111.3431250  30.0747291
  83.4529181 108.7605594  35.4374369  82.7952856 109.4504856  35.5254497
  84.2569581 109.1502026  35.7808355  73.2055063 101.2276240  32.6813934
  73.7798815 101.0051422  31.9487127  73.7926045 101.2964935  33.4342535
  82.2634640 107.1149967  33.4878310  82.7766522 107.7479959  33.9900020
  82.9135864 106.5151163  33.1221670  73.5324650 103.2580701  26.7009819
  72.6961962 103.5955388  27.0219094  73.3929420 103.1229681  25.7636956
  75.5077731  98.1017489  31.4089003  74.8542143  97.7866506  30.7845618
  75.4658205  97.4793230  32.1348826  76.6188936 108.3836784  23.3242295
  75.7115997 108.1526038  23.5233444  77.1159967 107.5874403  23.5116277
  78.7415471 104.5899423  35.7336651  77.8238032 104.8114370  35.5758339
  79.1575615 104.6645733  34.8748358  79.5250519 105.9890838  30.8639331
  80.2722338 106.5012236  30.5546453  79.7942108 105.6674891  31.7243725
  77.7977169 108.4849379  27.8466285  76.8888388 108.2008412  27.9438755
  77.8272253 108.9048458  26.9869592  83.0296436 112.0955969  31.6157453
  82.5758763 111.2546878  31.6722643  82.3990403 112.7317367  31.9532233
  81.9729356 103.0247955  32.8458120  81.2352113 102.5125341  33.1768363
  82.2256129 102.5848336  32.0341397  81.4729376 113.9332465  32.5507271
  81.7652350 114.4937522  31.8319637  81.9827996 114.2261026  33.3060430
  82.0740983  95.8024207  33.4399890  82.3799860  94.9421570  33.1525805
  82.7993588  96.3941827  33.2398884  68.3665339 106.2054893  31.8281488
  68.1689739 105.6124254  31.1032554  67.8112003 105.9007103  32.5457426
  76.3462063 106.0978000  33.9476081  76.4010673 105.1451836  33.8718557
  75.5353265 106.2537439  34.4317379  77.4953257 110.0258123  25.1854364
  77.0572687 109.3093982  24.7260001  78.2363698 110.2534238  24.6239455
  74.2854423 104.7155059  31.7066460  73.4722288 105.0149230  32.1131652
  74.7813417 104.3210748  32.4240942  76.4363001 114.7112816  33.6400724
  76.3939180 114.9373663  32.7109256  77.3525700 114.4776191  33.7886525
  79.8828635 105.1796884  40.5381353  80.2378022 105.4068357  41.3975819
  80.5300766 105.5115261  39.9158609  85.6126372 108.3015320  31.2430682
  85.4744270 108.4916916  30.3151872  85.2562590 109.0634703  31.6998734
  73.7768498 102.2873415  37.3227695  74.4167877 102.1462174  36.6250658
  72.9446028 102.0007928  36.9466297  85.6395751 110.3691847  36.2541954
  86.0732258 110.2767136  37.1025008  86.3527332 110.3449347  35.6161970
  74.5528802 111.5875845  33.4362687  75.3469400 111.0926166  33.2345262
  73.8420494 111.0593709  33.0730393  79.3723646 113.9693941  37.7875055
  79.4260668 114.5384877  38.5552770  78.5038427 114.1395826  37.4229092
  70.8611565 105.7318927  29.5122440  69.9309153 105.6703383  29.7292402
  70.9569037 105.2094880  28.7159081  70.7797114 102.2573740  32.1000681
  71.0403931 103.1719073  31.9909842  71.6014286 101.7898183  32.2497294
  72.2522039 103.6711497  39.2699506  72.9245093 103.4628859  38.6212155
  71.4251826 103.4733583  38.8304738  86.5011301 110.4115547  38.7874839
  86.6947191 111.3161358  39.0334114  86.4011919 109.9522967  39.6213424
  78.1547611 100.2973438  41.2865167  77.5075526 100.9963388  41.1929643
  78.9248627 100.7309582  41.6541415  81.5626409 110.5622290  44.3615720
  81.4111916 110.3332842  43.4445804  81.5531089 111.5192892  44.3747065
  78.3311746 108.1354203  39.3461986  79.2603806 108.2865363  39.1730954
  77.9102776 108.2238224  38.4910633  77.1300078 112.1604867  37.1160524
  76.9911163 111.7923652  37.9886462  76.3414674 112.6752507  36.9444482
  77.7248230 117.2613964  28.4586061  77.8999985 116.7902007  29.2731683
  77.0381018 117.8879730  28.6867321  78.6805293 111.5386470  34.5049362
  78.3455125 111.4987240  35.4007012  78.1809238 110.8731186  34.0319772
  72.6549537 106.9454100  40.0301943  72.5169335 106.2134339  40.6313482
  73.5654460 106.8563000  39.7486131  81.6164484 108.8842504  24.7786422
  80.9993655 108.1589333  24.6819474  81.1480973 109.6451865  24.4353496
  75.2831837 106.6574059  39.5185623  75.9931456 106.0167252  39.4772241
  75.2401146 106.9086954  40.4411803  83.2718616 113.5941413  42.4392202
  83.2131162 112.9100633  41.7722785  83.6738134 114.3360403  41.9872828
  73.9960771 103.6439277  41.3381262  73.4598128 103.1930016  41.9902858
  73.4077480 103.7785186  40.5951726  72.2909315 120.4103327  35.2325921
  72.5305913 121.0421851  35.9104939  71.4478511 120.0591367  35.5191280
  73.4063030 103.1027929  23.9007726  72.5292497 102.9816730  23.5369972
  73.8820783 102.3114007  23.6486614  83.2736023 111.5580997  40.6706182
  82.3862802 111.2206918  40.7932580  83.8434574 110.8264028  40.9074947
  64.9265170 107.8905088  33.9949233  65.6136210 107.5766818  33.4070248
  64.7713299 108.7946453  33.7216484  69.7299893 102.7795285  38.4234257
  69.6458081 102.1720955  37.6884667  68.9082599 103.2704303  38.4243753
  76.8037177 116.2182449  37.6367425  76.7307348 117.0237421  38.1486729
  76.3614570 116.4174415  36.8115446  76.5926956 115.4554219  31.1470246
  75.8094478 115.9975899  31.2408471  77.2919701 115.9728199  31.5464487
  79.9023606 101.2648849  33.7904452  80.3992306 100.5118811  33.4705522
  79.1310588 101.3013165  33.2247661  87.7553364 106.9689214  35.4322743
  87.7443240 107.8513930  35.0616676  86.8870743 106.6160765  35.2377280
  79.2635860 116.1169283  39.7925583  79.9763832 116.7516748  39.7201485
  78.7725889 116.2133149  38.9765585  80.9853387 110.0220536  31.3642875
  80.0509666 110.1421998  31.1947579  81.1630056 109.1193003  31.1002885
  76.4858575 103.4066232  33.5176136  76.1156363 102.8537272  34.2057042
  76.9817668 102.8024365  32.9651136  84.3725938 105.8637855  31.8992909
  84.8386391 106.6965847  31.8253212  84.8233439 105.3982837  32.6038168
  74.3147774 113.8663727  40.6131154  75.0157233 114.5000210  40.7660548
  73.8442889 114.2078458  39.8526793  82.4402170 112.2081676  28.8979061
  82.7162013 112.0938271  29.8072935  81.5706668 111.8099161  28.8591234
  82.3442601  98.2318442  35.9383811  81.4305681  98.4622669  36.1066017
  82.7735703  98.3156886  36.7897843  82.1149060 106.4208334  38.4383705
  81.4620510 106.6684241  37.7836157  82.4929440 105.6072472  38.1046182
  79.0756234 116.4568027  32.5411875  79.2578628 115.6389683  33.0039627
  79.8989220 116.6735719  32.1036765  79.4098399 115.3836212  29.8026923
  79.9386166 114.8728667  29.1897085  79.6726619 115.0678743  30.6672456
  78.1636633 107.1628145  44.9249742  77.4877270 107.0622274  45.5952117
  78.9864267 107.0067359  45.3885739  69.9115492 113.4000082  37.5462257
  70.4968929 112.6543770  37.6790161  69.7140330 113.7104038  38.4298921
  72.7654147 116.4351329  32.5624699  72.0964522 116.9197457  32.0788739
  72.6267017 116.6820549  33.4768078  64.5033147 105.9705682  36.2666700
  64.5417246 105.4369273  37.0603818  63.9973439 105.4440887  35.6477677
  76.9059416 118.4695073  39.1607358  77.4577724 118.6326694  39.9256443
  77.2465609 119.0599510  38.4887383  71.8823909 100.8170222  39.7629242
  71.9465235 101.6785053  39.3506640  71.8191029 100.2044224  39.0301601
  71.3576181 102.8893355  43.4102277  71.9848220 102.5070432  44.0239801
  70.5004100 102.6707557  43.7757969  81.7570290 113.2956330  45.0156012
  82.3010194 113.9086288  44.5210967  81.1757135 113.8535908  45.5323025
  68.1341724 104.6969784  29.3420631  68.4295165 103.7880462  29.2887685
  67.2329760 104.6757523  29.0201634  80.0427803 116.4177048  36.1471040
  79.9178942 115.6166788  35.6381985  80.7006894 116.9123241  35.6585010
  71.6635971 102.7725781  35.3248180  70.9422557 103.3861748  35.1855653
  72.4529227 103.3083545  35.2464826  82.1062711 114.2186068  37.7750590
  81.1593047 114.0991419  37.7028917  82.4545484 113.3308566  37.8576851
  74.4662285 100.1080207  41.5988832  74.9896686 100.3542504  42.3615141
  74.2474618 100.9400242  41.1791969  69.8629566 102.3783882  29.4659957
  69.5342272 101.4981261  29.2835063  70.2168936 102.3231550  30.3536346
  79.1109145 114.0138784  33.9754942  78.9634107 113.0855492  34.1562512
  79.9362638 114.0358875  33.4912017  72.9771389 102.6656851  29.8335434
  73.3167461 103.1942773  29.1114043  73.4243509 103.0037258  30.6094001
  82.7143266 114.8367343  35.0619815  83.6389814 114.6310204  34.9244266
  82.5458570 114.5883744  35.9709156  75.6714830 101.0493902  39.2838502
  75.3311650 100.2501715  39.6859182  74.9653836 101.3495613  38.7115336
  76.3231302  98.1343215  37.7365825  77.1457371  97.6603693  37.6144716
  76.5669365  98.9133698  38.2364512  74.9639536 101.1631473  28.0328727
  75.6847899 101.5412726  27.5292444  74.3404840 101.8820350  28.1363705
  79.1070659 101.8676622  28.9687059  79.3234273 102.7501260  28.6675888
  78.6264726 101.4762835  28.2392701  73.8469880 104.8262335  35.5457804
  73.7014461 105.1402638  36.4382085  73.3695084 105.4447236  34.9928703
  75.7066263 101.8164883  35.5938694  75.6927832 100.9205977  35.2570991
  76.4238691 101.8235547  36.2276980  77.5592394 102.2502223  37.6391821
  77.3010172 103.1719294  37.6376151  77.0277434 101.8532658  38.3292285
  82.5038583 115.3553011  30.4181906  82.6775460 114.7899433  29.6655759
  82.9967474 116.1553905  30.2361396  68.3215542 107.3667680  38.4845465
  67.7769011 108.1427488  38.6165739  69.1994892 107.7138484  38.3264587
  75.1103159 100.6979263  30.8626264  75.2319070  99.7695910  31.0617151
  74.8205201 100.7117949  29.9504579  77.9794349  98.3834174  33.9992983
  78.0016046  98.4473507  33.0444963  78.3962408  97.5438683  34.1933490
  88.3577974 108.1189433  32.0372206  88.8009120 107.3696759  31.6391329
  87.4804484 108.1099570  31.6545938  83.4913755 114.6719775  27.5178805
  84.1864660 115.2926468  27.7366119  83.8336905 113.8215126  27.7931183
  69.1081564 106.4937576  41.3775622  68.3663300 106.6420211  41.9640252
  68.7874309 106.7545841  40.5142371  85.3905178 112.1219480  29.0466135
  85.9156502 112.4606753  28.3215455  85.3027531 111.1866496  28.8629270
  77.0525227 116.0353554  41.1756012  77.3612353 115.7902701  42.0478712
  77.8500709 116.2400193  40.6874882  77.0745839 118.1891464  33.4061389
  76.6350829 117.6967842  34.0994245  77.8253956 117.6464431  33.1653464
  69.5538178 114.3803005  33.4086017  70.3796198 114.0806776  33.0284660
  69.2032230 113.6110627  33.8575805  74.5219711 113.7329473  35.4783690
  73.8999720 113.0700178  35.1785918  75.1924578 113.7590605  34.7957338
  67.7546783 112.2989331  34.3674950  66.9178691 111.8711505  34.1858951
  67.7270428 112.4921774  35.3045741  74.5944239 102.2111261  45.0716196
  74.6432394 103.0873384  44.6893966  75.1366753 101.6688654  44.4987839
  85.0799084 112.7552384  44.3517333  84.2894628 112.7376523  43.8121833
  84.8432439 113.2940678  45.1066370  85.1996959 109.6044850  41.6650062
  85.2494964 109.4394858  42.6065585  85.0910883 108.7372109  41.2747943
  74.0833218 112.2833396  28.9542151  74.2321338 112.9668861  28.3008824
  74.8899661 112.2638486  29.4691607  82.4900722 105.5875778  42.9809369
  83.3910584 105.4482243  42.6893366  82.5648696 105.7530233  43.9207546
  76.8243527 102.9642633  41.8262555  75.9546836 103.2576199  41.5545143
  77.0603007 103.5483078  42.5469819  86.7015156 112.0241792  41.9092083
  86.4099964 112.3871773  42.7455544  86.0887287 111.3108800  41.7305415
  87.9010838 109.5894672  34.4294654  88.7357730 110.0284476  34.5932214
  88.0369967 109.1133325  33.6102899  84.9502344 107.1474407  40.3772141
  85.4256466 107.3402053  39.5690993  84.0267910 107.2033592  40.1315525
  71.8385851 108.3098574  29.9603220  71.5931893 107.4060904  30.1583430
  72.0081766 108.3115724  29.0182698  79.5282561  99.1822250  39.3427975
  80.0464505  99.9183277  39.0174464  79.1737694  99.4886243  40.1774734
  71.1081499 104.0426931  27.4589381  70.4150743 104.1171286  26.8029417
  70.8633250 103.2787275  27.9810898  79.7795155  95.6022533  34.8628872
  80.0596909  94.9345722  35.4889298  80.5645762  95.7951628  34.3503536
  77.5828624 114.7781527  26.4253898  77.0102591 115.3971714  25.9724370
  78.1561417 115.3280888  26.9593820  83.6504013 104.0240167  38.6100447
  84.6021436 104.1238264  38.6312671  83.4807464 103.2318435  39.1198531
  81.6718393 101.1095750  38.7959848  81.0768325 101.3900763  38.1006337
  81.3868090 101.5989651  39.5676589  80.8025883 115.0618677  27.5562480
  81.7356557 114.9964238  27.7595356  80.7149096 115.8974944  27.0977013
  86.1292091 107.2446286  37.7242747  86.0968411 106.3062287  37.9102430
  86.7392715 107.3230323  36.9908572  77.9675422 106.1142339  23.7669951
  78.9134527 105.9848547  23.8358369  77.5889667 105.3757001  24.2439379
  86.2786580 104.0357330  37.7701030  85.7625628 103.2515786  37.5830959
  87.1626528 103.7076046  37.9347549  83.9397307  97.7798345  33.7296843
  83.7422128  97.4713434  34.6140174  84.5497012  98.5059984  33.8594772
  91.9468641 108.3062293  36.8648783  92.6772030 108.0447581  37.4256487
  91.3375587 107.5691015  36.9050851  90.0283938 106.4470156  37.4623235
  89.3017102 106.3126121  36.8539726  89.6131225 106.7546984  38.2679953
  77.8514115 110.1660085  45.2270608  78.7717124 110.3438684  45.4210654
  77.8163698 109.2216131  45.0750307  76.1518339 104.0392316  23.7024836
  75.2449795 103.7425428  23.7787550  76.4294320 103.7422134  22.8359122
  67.0696280 105.3598679  34.1523882  66.7499064 104.5063987  33.8598256
  66.5229708 105.5747257  34.9081850  70.8476187 108.0761120  37.8693389
  71.0662197 109.0078228  37.8881423  71.2601961 107.7169095  38.6548193
  77.7680405  98.5829205  29.8569077  76.9581133  98.2376290  30.2324323
  78.4564822  98.2736749  30.4456689  79.6970953  97.6607252  31.4793374
  80.2501992  98.0802706  32.1383397  79.9341040  96.7343000  31.5216330
  75.7204052 103.6494326  47.2596138  75.6200779 104.5988683  47.1908229
  75.5025595 103.3212565  46.3872208  74.9217124 100.8979251  23.8436815
  75.7836288 101.2234149  24.1032632  75.1067468 100.1110747  23.3309881
  66.9384540 108.9801591  36.1217004  66.2448011 108.5655543  35.6086958
  67.6857531 109.0222127  35.5250423  83.0749760  99.7707777  30.9872038
  82.4948429 100.4292581  30.6050091  82.8085693  98.9485122  30.5759456
  81.5253327  99.1712835  33.1893358  82.0253105  99.2829370  32.3807677
  82.1688935  98.8673888  33.8294167  75.5835323 107.0791465  46.0761199
  75.1002404 107.8791825  46.2825088  75.6696262 107.0899410  45.1228643
  68.8521282 108.9119844  33.9983019  68.8291970 109.0107532  33.0464902
  69.1621919 109.7584995  34.3200185  71.5108660 110.9695999  38.1129633
  72.4651914 110.9379942  38.0459565  71.3121184 110.5086623  38.9279859
  72.1008042 109.5397116  40.6800431  72.9200931 110.0341194  40.7035268
  72.3744850 108.6229084  40.6517998  81.8574638 101.9307868  30.0428386
  80.9700493 102.2157518  29.8248581  82.2728627 101.7701631  29.1955663
  85.2089174 101.9554389  33.7582726  85.9849565 102.4450841  34.0307342
  84.4837309 102.3812443  34.2154595  87.6461733 102.6682008  34.8156666
  88.2406224 102.4277744  34.1049974  87.7188317 101.9489139  35.4430203
  69.8658889 116.5115619  35.1299831  69.7313357 115.7516020  34.5637829
  69.4490951 117.2356519  34.6628620  81.0017852 111.6952542  24.1376406
  81.7053702 111.9002545  24.7534062  80.2780501 112.2629304  24.4025490
  81.8315662 107.4462404  30.2578677  81.7750863 107.9030955  29.4186309
  82.3844005 106.6853088  30.0801519  85.6420468 103.2352136  31.0828796
  85.3857402 102.8348771  31.9137004  85.0173336 103.9495930  30.9578935
  89.9532806 105.9748209  33.5900087  89.3932364 106.0441398  34.3631649
  89.3476309 105.7989193  32.8699584  73.0228015 117.4084936  35.3418274
  72.9060399 118.3530368  35.2396964  72.2020461 117.1058498  35.7304073
  82.9104549 112.1335072  26.1874866  83.7450153 111.7016270  26.0052341
  82.7488892 111.9617085  27.1151761  82.5650441 108.6367185  27.5531206
  82.5099245 108.4711456  26.6119650  81.9396497 109.3443218  27.7093395
  67.3542956 103.8735249  41.3792628  68.0001820 103.3634203  41.8679853
  67.1460107 104.6103931  41.9536053  79.8796349 110.9416097  46.8784768
  80.7487508 111.1156749  46.5171403  79.4003100 111.7610514  46.7560498
  75.8746567  98.1375294  27.1316524  75.8625237  99.0817134  27.2884795
  76.7669989  97.9545439  26.8375985  74.0482529 118.0613198  38.5574202
  74.9509776 118.0936808  38.8740697  73.8219899 117.1313649  38.5720538
  75.8036131 116.8144184  35.2184281  74.8531762 116.8146046  35.1048653
  76.1068617 116.0676919  34.7020315  79.6898686  94.7318071  31.3862461
  78.9231082  94.1776557  31.5319143  80.1009391  94.8039939  32.2476613
  71.6940447 101.0202866  45.4767642  72.5571909 100.6639671  45.6870967
  71.1205858 100.6816761  46.1643046  91.5388824 122.6504723  36.2830043
  92.1767234 122.5311470  35.5793383  91.4209667 123.5985567  36.3417995
  88.3478531 122.6032151  36.2191568  88.0097042 122.4873216  35.3312103
  89.2168299 122.2023316  36.1992574  88.8298314 123.7567003  42.1777773
  88.8186954 123.3619801  41.3058277  88.9918953 123.0233075  42.7711545
  81.7529778 125.9518819  35.0472679  82.5451070 125.6109644  34.6318979
  81.9926428 126.0613794  35.9674833  85.5505575 126.5404114  41.1256957
  85.2595441 127.4449745  41.0103624  86.1862559 126.5820642  41.8401027
  86.4761782 123.9180963  37.7158317  87.0725354 123.6936985  37.0015280
  86.5336753 123.1765708  38.3183765  91.0930093 120.3756177  33.3583251
  91.8793182 119.9575600  33.0073668  91.3568797 121.2802269  33.5264900
  94.0163940 114.0252984  38.7210838  93.6847265 114.8948395  38.4972053
  93.4209554 113.7089268  39.4004869  90.5095460 126.2265530  38.1206751
  90.2096183 127.1290569  38.0122558  90.1646519 125.9597713  38.9727904
  83.9607941 122.6779327  34.1543455  83.0358438 122.5455541  34.3621147
  84.2092354 123.4573546  34.6513398  93.9092604 118.7448070  35.8004188
  93.0009481 118.6763479  35.5062949  93.8580199 119.2220015  36.6286014
  81.3216752 122.3212600  34.9887245  81.4509133 122.5747079  35.9026656
  80.6414204 122.9140308  34.6691900  87.9833469 120.1637716  43.7439086
  87.2066803 120.7231636  43.7341950  88.6224032 120.6494499  44.2653956
  95.7754250 116.9464509  37.5782062  95.1328630 117.2397042  36.9321857
  95.2709179 116.8317429  38.3835259  86.2379842 122.9723169  43.3057053
  86.9794526 123.5108213  43.0291876  85.5316827 123.5989458  43.4628604
  91.7135181 125.1152310  41.9029214  92.1218537 124.6734720  41.1583847
  90.9912443 124.5404937  42.1563407  88.0666251 120.0524916  39.2762771
  88.9127447 120.4764330  39.4197420  88.0064889 119.3958541  39.9701334
  91.2165697 117.7129285  40.9343945  90.9726629 118.4671345  40.3978220
  91.4925627 118.0914632  41.7691192  93.1704159 124.2567897  39.6121210
  93.3821055 124.8999657  38.9355591  93.1233908 123.4230214  39.1443140
  90.7730388 116.8685718  36.5157782  89.9114867 117.1666971  36.8074520
  90.7992823 117.0856117  35.5838815  84.4816039 124.9599390  35.8611351
  85.0517396 125.3886658  35.2228836  85.0724151 124.6781974  36.5595537
  84.9741205 120.1262817  44.1072363  84.3439866 120.8079098  44.3407759
  84.8677293 120.0145899  43.1625501  80.2686178 119.7934613  35.0338287
  79.4785232 120.0492142  34.5578397  80.7597425 120.6082951  35.1390327
  82.2200923 120.1579193  31.9921764  81.4232087 120.2697887  32.5105259
  81.9926515 120.4965845  31.1262654  88.0506591 126.6823896  39.9404278
  88.1151023 127.1444303  40.7762450  87.3417515 126.0521261  40.0686588
  78.5523881 120.0465104  37.4653278  78.8031919 120.9312114  37.7310854
  79.0883429 119.8669705  36.6928369  84.2521948 114.4283583  46.4697614
  83.8588894 113.8749782  47.1445258  85.0688088 114.7394162  46.8604131
  87.1689909 115.8441462  44.0617870  87.9099623 116.4448615  43.9822333
  87.4007832 115.1019100  43.5035913  82.3131247 121.0297829  42.3396100
  82.1984762 120.1283087  42.6403199  81.4575765 121.2761526  41.9880916
  84.1510206 130.5011371  38.4644279  84.7017631 130.3728435  37.6921273
  83.3121682 130.8006260  38.1139172  87.9477377 126.7662499  42.8088510
  88.4805714 126.0050787  42.5787818  87.4191458 126.4736151  43.5512665
  91.1147072 111.8722565  38.3382152  90.7711341 112.7624207  38.2621263
  91.4826035 111.6824223  37.4751737  79.1832923 124.1956096  31.1570754
  80.0208145 124.6053104  30.9404462  79.3611190 123.2555538  31.1270948
  88.6644466 116.7080877  31.9039825  87.8086062 116.3187727  31.7245464
  89.0771418 116.7872838  31.0439611  90.1943612 114.2427220  36.3031385
  89.6908408 114.2057355  35.4899190  90.4874219 115.1519963  36.3628042
  86.4386498 114.3265950  35.3097567  87.3039495 114.1308759  34.9503456
  86.5064007 114.0976302  36.2366924  84.0448817 116.5568158  32.6813934
  84.6192569 116.3343339  31.9487127  84.6319800 116.6256852  33.4342535
  86.3471485 113.4309407  31.4089003  85.6935897 113.1158424  30.7845618
  86.3051959 112.8085147  32.1348826  89.5809226 119.9191340  35.7336651
  88.6631787 120.1406287  35.5758339  89.9969369 119.9937651  34.8748358
  92.9134738 111.1316124  33.4399890  93.2193615 110.2713488  33.1525805
  93.6387343 111.7233745  33.2398884  79.2059094 121.5346811  31.8281488
  79.0083494 120.9416172  31.1032554  78.6505758 121.2299021  32.5457426
  87.1855817 121.4269917  33.9476081  87.2404427 120.4743754  33.8718557
  86.3747020 121.5829356  34.4317379  85.1248177 120.0446977  31.7066460
  84.3116043 120.3441148  32.1131652  85.6207172 119.6502666  32.4240942
  90.7222389 120.5088802  40.5381353  91.0771777 120.7360275  41.3975819
  91.3694520 120.8407178  39.9158609  84.6162252 117.6165333  37.3227695
  85.2561631 117.4754092  36.6250658  83.7839783 117.3299846  36.9466297
  81.6190869 117.5865658  32.1000681  81.8797686 118.5010991  31.9909842
  82.4408041 117.1190100  32.2497294  83.0915794 119.0003415  39.2699506
  83.7638847 118.7920777  38.6212155  82.2645580 118.8025501  38.8304738
  88.9941366 115.6265356  41.2865167  88.3469281 116.3255305  41.1929643
  89.7642381 116.0601500  41.6541415  89.1705500 123.4646121  39.3461986
  90.0997560 123.6157280  39.1730954  88.7496530 123.5530141  38.4910633
  87.9693832 127.4896785  37.1160524  87.8304918 127.1215569  37.9886462
  87.1808428 128.0044424  36.9444482  83.4943291 122.2746018  40.0301943
  83.3563089 121.5426257  40.6313482  84.4048215 122.1854918  39.7486131
  86.1225592 121.9865977  39.5185623  86.8325210 121.3459169  39.4772241
  86.0794900 122.2378872  40.4411803  84.8354526 118.9731195  41.3381262
  84.2991883 118.5221933  41.9902858  84.2471234 119.1077104  40.5951726
  75.7658925 123.2197006  33.9949233  76.4529965 122.9058736  33.4070248
  75.6107054 124.1238371  33.7216484  80.5693647 118.1087203  38.4234257
  80.4851836 117.5012872  37.6884667  79.7476353 118.5996221  38.4243753
  90.7417361 116.5940766  33.7904452  91.2386060 115.8410729  33.4705522
  89.9704342 116.6305083  33.2247661  87.3252330 118.7358149  33.5176136
  86.9550117 118.1829190  34.2057042  87.8211422 118.1316283  32.9651136
  85.1541528 129.1955644  40.6131154  85.8550988 129.8292127  40.7660548
  84.6836643 129.5370376  39.8526793  93.1836356 113.5610360  35.9383811
  92.2699435 113.7914587  36.1066017  93.6129457 113.6448804  36.7897843
  92.9542814 121.7500252  38.4383705  92.3014264 121.9976159  37.7836157
  93.3323194 120.9364390  38.1046182  89.0030387 122.4920063  44.9249742
  88.3271024 122.3914192  45.5952117  89.8258021 122.3359276  45.3885739
  80.7509246 128.7291999  37.5462257  81.3362683 127.9835687  37.6790161
  80.5534085 129.0395956  38.4298921  75.3426901 121.2997599  36.2666700
  75.3811001 120.7661190  37.0603818  74.8367194 120.7732805  35.6477677
  82.7217663 116.1462140  39.7629242  82.7858990 117.0076971  39.3506640
  82.6584784 115.5336142  39.0301601  82.1969936 118.2185273  43.4102277
  82.8241975 117.8362350  44.0239801  81.3397855 117.9999474  43.7757969
  78.9735479 120.0261702  29.3420631  79.2688920 119.1172380  29.2887685
  78.0723514 120.0049441  29.0201634  82.5029726 118.1017698  35.3248180
  81.7816311 118.7153666  35.1855653  83.2922981 118.6375463  35.2464826
  85.3056039 115.4372125  41.5988832  85.8290441 115.6834421  42.3615141
  85.0868372 116.2692160  41.1791969  80.7023320 117.7075799  29.4659957
  80.3736026 116.8273178  29.2835063  81.0562691 117.6523468  30.3536346
  83.8165143 117.9948769  29.8335434  84.1561216 118.5234690  29.1114043
  84.2637264 118.3329175  30.6094001  86.5108584 116.3785820  39.2838502
  86.1705405 115.5793633  39.6859182  85.8047590 116.6787531  38.7115336
  87.1625056 113.4635132  37.7365825  87.9851125 112.9895610  37.6144716
  87.4063120 114.2425616  38.2364512  84.6863635 120.1554253  35.5457804
  84.5408215 120.4694556  36.4382085  84.2088838 120.7739153  34.9928703
  86.5460018 117.1456801  35.5938694  86.5321586 116.2497894  35.2570991
  87.2632446 117.1527465  36.2276980  88.3986148 117.5794141  37.6391821
  88.1403926 118.5011212  37.6376151  87.8671189 117.1824576  38.3292285
  79.1609297 122.6959597  38.4845465  78.6162765 123.4719405  38.6165739
  80.0388647 123.0430402  38.3264587  85.9496914 116.0271181  30.8626264
  86.0712825 115.0987827  31.0617151  85.6598956 116.0409867  29.9504579
  88.8188104 113.7126092  33.9992983  88.8409801 113.7765425  33.0444963
  89.2356163 112.8730600  34.1933490  79.9475319 121.8229494  41.3775622
  79.2057055 121.9712129  41.9640252  79.6268063 122.0837759  40.5142371
  78.5940538 127.6281249  34.3674950  77.7572446 127.2003423  34.1858951
  78.5664183 127.8213692  35.3045741  85.4337993 117.5403179  45.0716196
  85.4826149 118.4165301  44.6893966  85.9760507 116.9980572  44.4987839
  93.3294476 120.9167696  42.9809369  94.2304339 120.7774161  42.6893366
  93.4042451 121.0822151  43.9207546  87.6637282 118.2934551  41.8262555
  86.7940591 118.5868117  41.5545143  87.8996762 118.8774996  42.5469819
  95.7896099 122.4766324  40.3772141  96.2650221 122.6693971  39.5690993
  94.8661664 122.5325510  40.1315525  90.3676315 114.5114168  39.3427975
  90.8858259 115.2475195  39.0174464  90.0131448 114.8178161  40.1774734
  90.6188910 110.9314450  34.8628872  90.8990663 110.2637639  35.4889298
  91.4039516 111.1243546  34.3503536  94.4897768 119.3532084  38.6100447
  95.4415191 119.4530182  38.6312671  94.3201218 118.5610353  39.1198531
  92.5112147 116.4387668  38.7959848  91.9162079 116.7192680  38.1006337
  92.2261844 116.9281569  39.5676589  97.1180334 119.3649247  37.7701030
  96.6019383 118.5807704  37.5830959  98.0020283 119.0367964  37.9347549
  94.7791061 113.1090263  33.7296843  94.5815882 112.8005351  34.6140174
  95.3890767 113.8351902  33.8594772  88.6907869 125.4952003  45.2270608
  89.6110879 125.6730602  45.4210654  88.6557452 124.5508049  45.0750307
  77.9090034 120.6890597  34.1523882  77.5892818 119.8355905  33.8598256
  77.3623462 120.9039175  34.9081850  81.6869942 123.4053038  37.8693389
  81.9055951 124.3370146  37.8881423  82.0995715 123.0461012  38.6548193
  88.6074159 113.9121123  29.8569077  87.7974888 113.5668208  30.2324323
  89.2958576 113.6028667  30.4456689  90.5364708 112.9899170  31.4793374
  91.0895746 113.4094623  32.1383397  90.7734794 112.0634918  31.5216330
  86.5597807 118.9786244  47.2596138  86.4594534 119.9280601  47.1908229
  86.3419349 118.6504482  46.3872208  77.7778294 124.3093508  36.1217004
  77.0841766 123.8947461  35.6086958  78.5251285 124.3514045  35.5250423
  92.3647081 114.5004753  33.1893358  92.8646860 114.6121287  32.3807677
  93.0082689 114.1965806  33.8294167  86.4229077 122.4083382  46.0761199
  85.9396159 123.2083743  46.2825088  86.5090016 122.4191327  45.1228643
  79.6915037 124.2411762  33.9983019  79.6685725 124.3399449  33.0464902
  80.0015673 125.0876913  34.3200185  82.3502414 126.2987917  38.1129633
  83.3045668 126.2671859  38.0459565  82.1514938 125.8378541  38.9279859
  82.9401797 124.8689033  40.6800431  83.7594686 125.3633112  40.7035268
  83.2138604 123.9521001  40.6517998  96.0482929 117.2846306  33.7582726
  96.8243319 117.7742759  34.0307342  95.3231063 117.7104361  34.2154595
  78.1936711 119.2027167  41.3792628  78.8395574 118.6926121  41.8679853
  77.9853862 119.9395849  41.9536053  90.5292441 110.0609988  31.3862461
  89.7624837 109.5068475  31.5319143  90.9403146 110.1331857  32.2476613
  82.5334202 116.3494784  45.4767642  83.3965663 115.9931589  45.6870967
  81.9599613 116.0108679  46.1643046  24.3560559  14.0026186  30.6628907
  23.9124413  13.2162565  30.3449812  25.0177773  14.1905337  29.9972798
  26.4541797  14.2828986  28.6910308  26.4360273  15.1037867  28.1990578
  27.3761717  14.1583061  28.9160450  27.3657638  10.9224824  31.0861027
  27.2143145  10.6935376  30.1691110  27.3562318  11.8795426  31.0992372
  29.0749845  13.9543947  29.1637509  29.0162391  13.2703167  28.4968092
  29.4769363  14.6962937  28.7118134  27.5601519  13.6558864  31.7401319
  28.1041423  14.2688823  31.2456274  26.9788364  14.2138443  32.2568332
  30.8830313  13.1154918  31.0762640  30.0925857  13.0979057  30.5367139
  30.6463668  13.6543212  31.8311677  32.5046385  12.3844326  28.6337390
  32.2131193  12.7474307  29.4700851  31.8918516  11.6711334  28.4550722
  25.6827577  11.3018631  33.6030075  26.5518737  11.4759283  33.2416710
  25.2034329  12.1213048  33.4805804  37.3420053  23.0107257  23.0075350
  37.9798463  22.8914004  22.3038690  37.2240896  23.9588101  23.0663302
  34.1509759  22.9634685  22.9436875  33.8128271  22.8475750  22.0557409
  35.0199528  22.5625850  22.9237881  34.6329542  24.1169537  28.9023080
  34.6218183  23.7222335  28.0303584  34.7950182  23.3835609  29.4956851
  27.5561007  26.3121353  21.7717986  28.3482299  25.9712178  21.3564285
  27.7957657  26.4216328  22.6920139  31.3536804  26.9006649  27.8502264
  31.0626670  27.8052279  27.7348930  31.9893788  26.9423176  28.5646334
  32.2793010  24.2783497  24.4403624  32.8756583  24.0539520  23.7260587
  32.3367982  23.5368243  25.0429072  42.2969749  20.6733944  20.9861536
  43.0294921  20.1033161  21.2199366  41.5409104  20.2855545  21.4268042
  39.8195169  14.3855518  25.4456145  39.4878494  15.2550929  25.2217360
  39.2240782  14.0691802  26.1250175  36.3126689  26.5868064  24.8452058
  36.0127412  27.4893103  24.7367865  35.9677748  26.3200247  25.6973211
  39.7123832  19.1050604  22.5249495  38.8040710  19.0366013  22.2308256
  39.6611428  19.5822549  23.3531321  31.2947468  33.3512385  17.8123025
  31.2171498  34.3020210  17.8911506  30.6909112  33.0058257  18.4697952
  33.7864698  20.5240250  30.4684392  33.0098032  21.0834170  30.4587257
  34.4255261  21.0097033  30.9899262  41.5785479  17.3067043  24.3027369
  40.9359859  17.5999576  23.6567164  41.0740407  17.1919963  25.1080566
  32.0411070  23.3325703  30.0302359  32.7825755  23.8710747  29.7537183
  31.3348056  23.9591992  30.1873911  37.5166410  25.4754844  28.6274521
  37.9249766  25.0337254  27.8829153  36.7943672  24.9007471  28.8808714
  33.8697480  20.4127451  26.0008078  34.7158675  20.8366864  26.1442727
  33.8096118  19.7561075  26.6946641  37.8395225  26.0356034  22.3826810
  37.2104087  26.2001749  21.6802878  37.4520887  26.4497644  23.1537774
  41.7184457  26.9710472  19.7371173  41.0335495  27.3509374  19.1868207
  41.8028306  27.5805799  20.4703121  37.0196926  18.0731819  27.6589251
  36.7757857  18.8273879  27.1223527  37.2956856  18.4517166  28.4936498
  38.9735388  24.6170431  26.3366517  39.1852284  25.2602191  25.6600898
  38.9265137  23.7832748  25.8688447  33.3923187  25.7730442  19.6476895
  33.8561532  26.0518145  18.8581517  33.1279985  24.8713887  19.4649985
  30.2847268  25.3201924  22.5856658  30.8548625  25.7489192  21.9474143
  30.8755380  25.0384509  23.2840844  30.7772434  20.4865351  30.8317669
  30.1471095  21.1681632  31.0653066  30.6708522  20.3748433  29.8870808
  40.0881216  27.4942387  24.5088874  40.9098660  27.0922574  24.2271556
  40.0843619  27.3910621  25.4604990  33.8537820  27.0426430  26.6649585
  33.9182252  27.5046837  27.5007757  33.1448744  26.4123795  26.7931895
  48.1787209  23.8381135  20.8573846  47.4250918  23.2688533  20.7017850
  48.3134750  23.8043800  21.8044480  30.0553177  14.7886117  33.1942920
  29.6620123  14.2352316  33.8690565  30.8719317  15.0996696  33.5849438
  28.8310119  29.3435732  19.1879243  29.0076748  30.2653696  19.0000227
  29.6266953  29.0294151  19.6173623  32.9721138  16.2043996  30.7863177
  33.7130851  16.8051150  30.7067639  33.2039061  15.4621634  30.2281219
  28.1162476  21.3900364  29.0641407  28.0015991  20.4885621  29.3648506
  27.2606994  21.6364060  28.7126223  35.1954314  29.3318104  30.6628907
  34.7518168  28.5454483  30.3449812  35.8571527  29.5197254  29.9972798
  29.9541435  30.8613906  25.1889586  30.5048860  30.7330969  24.4166580
  29.1152911  31.1608795  24.8384479  37.2935552  29.6120904  28.6910308
  37.2754027  30.4329785  28.1990578  38.2155472  29.4874979  28.9160450
  33.7508606  27.1265033  29.5333817  34.2836943  26.3653322  29.3033125
  33.2222687  26.8338685  30.2757971  40.0954165  24.4500046  22.1619675
  39.4377839  25.1399308  22.2499804  40.8994564  24.8396478  22.5053662
  38.9059623  22.8044419  20.2123617  39.4191505  23.4374411  20.7145327
  39.5560847  22.2045615  19.8466977  35.3840454  20.2793875  22.4581957
  34.4663016  20.5008822  22.3003646  35.8000598  20.3540185  21.5993665
  39.6721420  27.7850420  18.3402760  39.2183747  26.9441330  18.3967950
  39.0415386  28.4211819  18.6777540  38.1154359  29.6226917  19.2752578
  38.4077333  30.1831974  18.5564943  38.6252979  29.9155478  20.0305737
  33.0787984  30.4007268  20.3646031  33.0364163  30.6268115  19.4354563
  33.9950683  30.1670643  20.5131832  36.5253618  20.8691336  27.2626660
  36.8803006  21.0962809  28.1221126  37.1725749  21.2009713  26.6403915
  42.2551355  23.9909772  17.9675989  42.1169253  24.1811368  17.0397178
  41.8987574  24.7529155  18.4244040  42.2820734  26.0586299  22.9787261
  42.7157241  25.9661588  23.8270315  42.9952315  26.0343799  22.3407277
  31.1953785  27.2770297  20.1607994  31.9894383  26.7820617  19.9590569
  30.4845477  26.7488160  19.7975699  36.0148629  29.6588393  24.5120361
  36.0685652  30.2279329  25.2798077  35.1463411  29.8290278  24.1474398
  28.8947023  19.3605949  25.9944812  29.5670076  19.1523311  25.3457461
  28.0676809  19.1628035  25.5550045  43.1436284  26.1009999  25.5120146
  43.3372174  27.0055810  25.7579421  43.0436902  25.6417418  26.3458731
  34.7972595  15.9867890  28.0110473  34.1500510  16.6857840  27.9174950
  35.5673610  16.4204034  28.3786722  38.2051393  26.2516742  31.0861027
  38.0536899  26.0227294  30.1691110  38.1956072  27.2087344  31.0992372
  34.9736729  23.8248655  26.0707293  35.9028789  23.9759814  25.8976260
  34.5527759  23.9132676  25.2155940  33.7725061  27.8499319  23.8405831
  33.6336147  27.4818104  24.7131769  32.9839657  28.3646959  23.6689789
  34.3673213  32.9508416  15.1831367  34.5424969  32.4796459  15.9976990
  33.6806001  33.5774182  15.4112628  35.3230276  27.2280922  21.2294668
  34.9880109  27.1881692  22.1252318  34.8234222  26.5625638  20.7565079
  29.2974520  22.6348552  26.7547250  29.1594318  21.9028791  27.3558789
  30.2079443  22.5457452  26.4731437  31.9256821  22.3468511  26.2430929
  32.6356439  21.7061704  26.2017548  31.8826129  22.5981406  27.1657110
  39.9143599  29.2835865  29.1637509  39.8556145  28.5995085  28.4968092
  40.3163118  30.0254855  28.7118134  30.6385755  19.3333729  28.0626569
  30.1023112  18.8824468  28.7148165  30.0502463  19.4679638  27.3197033
  28.9334298  36.0997779  21.9571227  29.1730896  36.7316303  22.6350246
  28.0903495  35.7485819  22.2436587  39.9161007  27.2475449  27.3951488
  39.0287785  26.9101370  27.5177887  40.4859558  26.5158480  27.6320254
  33.4462160  31.9076901  24.3612731  33.3732331  32.7131872  24.8732036
  33.0039553  32.1068867  23.5360753  33.2351940  31.1448671  17.8715553
  32.4519462  31.6870351  17.9653777  33.9344685  31.6622651  18.2709794
  44.3978347  22.6583666  22.1568050  44.3868223  23.5408381  21.7861983
  43.5295727  22.3055217  21.9622587  35.9060844  31.8063735  26.5170890
  36.6188816  32.4411200  26.4446792  35.4150872  31.9027601  25.7010892
  37.6278370  25.7114988  18.0888182  36.6934649  25.8316450  17.9192886
  37.8055039  24.8087454  17.8248192  41.0150922  21.5532307  18.6238216
  41.4811374  22.3860299  18.5498519  41.4658422  21.0877289  19.3283474
  30.9572757  29.5558178  27.3376461  31.6582217  30.1894661  27.4905855
  30.4867872  29.8972910  26.5772100  38.7574043  22.1102786  25.1629011
  38.1045493  22.3578693  24.5081464  39.1354423  21.2966924  24.8291489
  35.7181217  32.1462479  19.2657182  35.9003611  31.3284135  19.7284934
  36.5414203  32.3630171  18.8282072  36.0523382  31.0730664  16.5272230
  36.5811149  30.5623119  15.9142392  36.3151602  30.7573194  17.3917763
  34.8061616  22.8522597  31.6495048  34.1302253  22.7516726  32.3197424
  35.6289250  22.6961811  32.1131046  26.5540475  29.0894533  24.2707564
  27.1393912  28.3438221  24.4035468  26.3565314  29.3998490  25.1544227
  29.4079130  32.1245781  19.2870006  28.7389506  32.6091909  18.8034046
  29.2692000  32.3715001  20.2013384  33.5484399  34.1589524  25.8852664
  34.1002707  34.3221146  26.6501750  33.8890592  34.7493962  25.2132689
  28.0001165  18.5787807  30.1347583  28.6273203  18.1964884  30.7485108
  27.1429084  18.3602009  30.5003276  38.3995273  28.9850782  31.7401319
  38.9435177  29.5980740  31.2456274  37.8182118  29.5430360  32.2568332
  36.6852786  32.1071500  22.8716346  36.5603926  31.3061240  22.3627292
  37.3431877  32.6017693  22.3830316  38.7487695  29.9080520  24.4995897
  37.8018030  29.7885871  24.4274223  39.0970468  29.0203018  24.5822158
  31.1087268  15.7974659  28.3234138  31.6321670  16.0436955  29.0860448
  30.8899601  16.6294694  27.9037276  35.7534128  29.7033236  20.7000249
  35.6059090  28.7749944  20.8807819  36.5787621  29.7253327  20.2157324
  39.3568250  30.5261795  21.7865122  40.2814797  30.3204656  21.6489573
  39.1883553  30.2778196  22.6954463  32.3139813  16.7388354  26.0083809
  31.9736633  15.9396167  26.4104489  31.6078819  17.0390065  25.4360642
  34.2017377  17.9396675  24.3637128  33.9435155  18.8613746  24.3621458
  33.6702418  17.5427110  25.0537592  39.1463566  31.0447462  17.1427213
  39.3200443  30.4793885  16.3901065  39.6392457  31.8448357  16.9606703
  24.9640526  23.0562131  25.2090772  24.4193994  23.8321939  25.3411046
  25.8419876  23.4032936  25.0509893  45.0002957  23.8083885  18.7617513
  45.4434103  23.0591211  18.3636636  44.1229467  23.7994022  18.3791245
  40.1338738  30.3614227  14.2424111  40.8289643  30.9820919  14.4611426
  40.4761889  29.5109578  14.5176489  25.7506548  22.1832028  28.1020929
  25.0088284  22.3314663  28.6885559  25.4299292  22.4440293  27.2387678
  42.0330162  27.8113932  15.7711442  42.5581486  28.1501205  15.0460762
  41.9452514  26.8760948  15.5874577  33.6950210  31.7248006  27.9001319
  34.0037337  31.4797153  28.7724018  34.4925692  31.9294644  27.4120189
  33.7170822  33.8785916  20.1306695  33.2775813  33.3862294  20.8239552
  34.4678939  33.3358883  19.8898770  26.1963161  30.0697456  20.1331323
  27.0221181  29.7701228  19.7529967  25.8457213  29.3005079  20.5821112
  31.1644694  29.4223925  22.2028997  30.5424704  28.7594630  21.9031225
  31.8349561  29.4485057  21.5202645  31.2369222  17.9005713  31.7961503
  31.2857377  18.7767836  31.4139273  31.7791736  17.3583106  31.2233146
  41.7224068  28.4446836  31.0762640  40.9319611  28.4270975  30.5367139
  41.4857422  28.9835130  31.8311677  41.8421943  25.2939302  28.3895369
  41.8919948  25.1289310  29.3310891  41.7335866  24.4266561  27.9993249
  39.1325705  21.2770230  29.7054675  40.0335568  21.1376695  29.4138673
  39.2073680  21.4424685  30.6452853  33.4668510  18.6537085  28.5507862
  32.5971820  18.9470651  28.2790450  33.7027991  19.2377530  29.2715125
  43.3440139  27.7136244  28.6337390  43.0524948  28.0766224  29.4700851
  42.7312271  27.0003252  28.4550722  44.5435822  25.2789124  21.1539960
  45.3782713  25.7178928  21.3177521  44.6794951  24.8027777  20.3348206
  41.5927328  22.8368858  27.1017448  42.0681449  23.0296505  26.2936299
  40.6692893  22.8928044  26.8560832  36.1707544  14.8716702  26.0673282
  36.6889488  15.6077729  25.7419771  35.8162677  15.1780695  26.9020041
  40.2928997  19.7134619  25.3345754  41.2446420  19.8132716  25.3557978
  40.1232447  18.9212887  25.8443838  38.3143376  16.7990202  25.5205155
  37.7193308  17.0795215  24.8251643  38.0293073  17.2884103  26.2921896
  42.7717075  22.9340738  24.4488053  42.7393395  21.9956739  24.6347737
  43.3817698  23.0124775  23.7153878  42.9211563  19.7251782  24.4946336
  42.4050612  18.9410238  24.3076265  43.8051512  19.3970498  24.6592856
  48.5893624  23.9956745  23.5894090  49.3197013  23.7342033  24.1501793
  47.9800570  23.2585467  23.6296158  46.6708921  22.1364608  24.1868541
  45.9442085  22.0020573  23.5785033  46.2556208  22.4441436  24.9925259
  34.4939098  25.8554537  31.9515914  35.4142107  26.0333136  32.1455961
  34.4588681  24.9110583  31.7995614  27.4901170  23.7655572  24.5938695
  27.7087180  24.6972680  24.6126729  27.9026944  23.4063546  25.3793499
  32.3629036  19.3388778  33.9841444  32.2625763  20.2883135  33.9153536
  32.1450578  19.0107017  33.1117515  32.2260306  22.7685917  32.8006506
  31.7427388  23.5686277  33.0070395  32.3121245  22.7793862  31.8473950
  28.1533643  26.6590451  24.8374940  29.1076897  26.6274394  24.7704871
  27.9546167  26.1981075  25.6525166  28.7433025  25.2291567  27.4045738
  29.5625914  25.7235646  27.4280575  29.0169833  24.3123536  27.3763305
  41.8514158  17.6448841  20.4828032  42.6274548  18.1345293  20.7552649
  41.1262292  18.0706895  20.9399902  44.2886716  18.3576460  21.5401973
  44.8831207  18.1172196  20.8295281  44.3613300  17.6383590  22.1675509
  26.5083872  32.2010071  21.8545138  26.3738340  31.4410472  21.2883136
  26.0915934  32.9250971  21.3873927  46.5957789  21.6642661  20.3145394
  46.0357347  21.7335850  21.0876956  45.9901293  21.4883645  19.5944890
  29.6652998  33.0979388  22.0663580  29.5485382  34.0424820  21.9642271
  28.8445444  32.7952949  22.4549380  23.9967940  19.5629701  28.1037935
  24.6426803  19.0528655  28.5925160  23.7885091  20.2998383  28.6781360
  36.5221332  26.6310549  33.6030075  37.3912492  26.8051201  33.2416710
  36.0428083  27.4504966  33.4805804  30.6907512  33.7507650  25.2819509
  31.5934759  33.7831260  25.5986004  30.4644882  32.8208101  25.2965845
  32.4461114  32.5038636  21.9429587  31.4956745  32.5040498  21.8293960
  32.7493600  31.7571371  21.4265622  28.3365431  16.7097318  32.2012949
  29.1996892  16.3534123  32.4116273  27.7630841  16.3711213  32.8888353
  48.1813808  38.3399175  23.0075350  48.8192218  38.2205922  22.3038690
  48.0634650  39.2880019  23.0663302  44.9903514  38.2926603  22.9436875
  44.6522025  38.1767667  22.0557409  45.8593282  37.8917768  22.9237881
  40.8490330  40.1462079  18.9333765  40.2855195  40.0552016  18.1650053
  40.7342725  39.3261984  19.4136258  45.4723297  39.4461455  28.9023080
  45.4611938  39.0514253  28.0303584  45.6343936  38.7127527  29.4956851
  38.3954762  41.6413271  21.7717986  39.1876053  41.3004095  21.3564285
  38.6351412  41.7508246  22.6920139  46.4289888  43.8133047  14.2448230
  45.7777868  44.3987127  13.8582244  47.2234251  44.3439242  14.3043268
  40.3545515  40.9022184  14.6435365  41.1276391  40.3551171  14.5048241
  40.7070914  41.7666433  14.8549826  42.1930558  42.2298566  27.8502264
  41.9020424  43.1344197  27.7348930  42.8287542  42.2715094  28.5646334
  43.1186765  39.6075415  24.4403624  43.7150337  39.3831437  23.7260587
  43.1761736  38.8660160  25.0429072  42.6911793  37.0614850  12.2753815
  42.9437314  36.5396371  11.5137278  41.7536352  36.8980996  12.3780498
  47.7355076  36.0650629  20.0828558  48.5218165  35.6470052  19.7318975
  47.9993780  36.9696721  20.2510206  47.9065153  41.5023479  14.7817215
  47.2710986  41.5758105  15.4938119  47.5762560  42.0917078  14.1036294
  53.1363503  36.0025862  20.9861536  53.8688675  35.4325079  21.2199366
  52.3802859  35.6147462  21.4268042  42.4108082  38.9642956  14.4778190
  42.2944340  38.2887860  15.1459274  42.5210342  38.4775330  13.6610343
  44.7539623  38.4253103  18.1824879  44.3897830  37.8983724  18.8937800
  45.6106739  38.0351572  18.0091364  50.6588924  29.7147436  25.4456145
  50.3272248  30.5842847  25.2217360  50.0634537  29.3983720  26.1250175
  44.3945110  33.4543003  13.1786227  44.5619512  34.3223239  13.5456698
  44.2042279  33.6170285  12.2547517  47.1520443  41.9159982  24.8452058
  46.8521166  42.8185021  24.7367865  46.8071503  41.6492165  25.6973211
  40.6032925  38.3673779  20.8788762  39.6783421  38.2349993  21.0866454
  40.8517338  39.1467998  21.3758705  50.5517587  34.4342522  22.5249495
  49.6434464  34.3657930  22.2308256  50.5005183  34.9114467  23.3531321
  44.3734331  35.9100660  14.1632894  44.2533956  36.3557711  15.0018374
  43.6786919  36.2585978  13.6046432  37.9641736  38.0107052  21.7132551
  38.0934117  38.2641531  22.6271963  37.2839187  38.6034760  21.3937206
  42.1341223  48.6804302  17.8123025  42.0565253  49.6312127  17.8911506
  41.5302866  48.3350175  18.4697952  44.6258453  35.8532168  30.4684392
  43.8491787  36.4126088  30.4587257  45.2649016  36.3388951  30.9899262
  52.4179233  32.6358960  24.3027369  51.7753614  32.9291494  23.6567164
  51.9134162  32.5211881  25.1080566  50.0719397  36.3822134  14.9913228
  50.9837253  36.6149520  14.8160926  49.5629044  36.9659178  14.4288307
  42.8804825  38.6617621  30.0302359  43.6219509  39.2002665  29.7537183
  42.1741810  39.2883910  30.1873911  48.3560165  40.8046761  28.6274521
  48.7643521  40.3629172  27.8829153  47.6337426  40.2299389  28.8808714
  44.7091235  35.7419368  26.0008078  45.5552430  36.1658782  26.1442727
  44.6489872  35.0852993  26.6946641  48.6788979  41.3647952  22.3826810
  48.0497842  41.5293666  21.6802878  48.2914641  41.7789562  23.1537774
  52.5578211  42.3002390  19.7371173  51.8729249  42.6801291  19.1868207
  52.6422060  42.9097717  20.4703121  47.8590680  33.4023737  27.6589251
  47.6151612  34.1565797  27.1223527  48.1350611  33.7809084  28.4936498
  49.8129143  39.9462349  26.3366517  50.0246038  40.5894109  25.6600898
  49.7658891  39.1124665  25.8688447  47.4155372  32.5580170  23.2403089
  46.5539851  32.8561423  23.5319827  47.4417806  32.7750568  22.3084122
  44.2316941  41.1022360  19.6476895  44.6955287  41.3810063  18.8581517
  43.9673739  40.2005805  19.4649985  41.1241022  40.6493842  22.5856658
  41.6942379  41.0781110  21.9474143  41.7149134  40.3676426  23.2840844
  43.1685827  37.2245513  16.4566460  43.8709871  37.6766556  16.9240386
  42.8366456  36.5829331  17.0846353  41.6166189  35.8157269  30.8317669
  40.9864849  36.4973550  31.0653066  41.5102277  35.7040351  29.8870808
  36.9111161  35.4829065  21.7583593  36.1210215  35.7386594  21.2823704
  37.4022409  36.2977403  21.8635634  50.9274971  42.8234304  24.5088874
  51.7492414  42.4214492  24.2271556  50.9237374  42.7202539  25.4604990
  38.8625907  35.8473644  18.7167070  38.0657070  35.9592339  19.2350566
  38.6351499  36.1860297  17.8507961  44.6931574  42.3718348  26.6649585
  44.7576007  42.8338755  27.5007757  43.9842498  41.7415713  26.7931895
  35.1948864  35.7359556  24.1898584  35.4456903  36.6206566  24.4556160
  35.7308413  35.5564157  23.4173676  59.0180964  39.1673053  20.8573846
  58.2644672  38.5980451  20.7017850  59.1528505  39.1335717  21.8044480
  44.4079592  44.0386455  16.5328565  44.2725267  44.8837991  16.9613413
  44.9489404  44.2405733  15.7694499  40.8946931  30.1178035  33.1942920
  40.5013877  29.5644234  33.8690565  41.7113072  30.4288613  33.5849438
  37.8608989  41.5561893  17.1056490  38.3733510  42.3505143  17.2562055
  38.5131702  40.8588184  17.0390092  39.6703874  44.6727649  19.1879243
  39.8470502  45.5945614  19.0000227  40.4660707  44.3586069  19.6173623
  43.8114892  31.5335914  30.7863177  44.5524606  32.1343067  30.7067639
  44.0432815  30.7913552  30.2281219  38.9556230  36.7192281  29.0641407
  38.8409746  35.8177539  29.3648506  38.1000748  36.9655978  28.7126223
  46.0348068  44.6610022  30.6628907  45.5911922  43.8746400  30.3449812
  46.6965282  44.8489172  29.9972798  40.7935189  46.1905823  25.1889586
  41.3442614  46.0622887  24.4166580  39.9546665  46.4900712  24.8384479
  48.1329306  44.9412822  28.6910308  48.1147782  45.7621703  28.1990578
  49.0549226  44.8166897  28.9160450  44.5902360  42.4556951  29.5333817
  45.1230697  41.6945239  29.3033125  44.0616442  42.1630603  30.2757971
  47.7572055  27.5617017  25.0627459  47.4136325  28.4518659  24.9866569
  48.1251018  27.3718675  24.1997044  35.8257906  39.8850547  17.8816061
  36.6633128  40.2947556  17.6649768  36.0036174  38.9449990  17.8516255
  47.7222338  37.5525628  13.5699894  47.2068962  38.3230233  13.8088281
  47.4499647  36.8790764  14.1932955  45.3069449  32.3975329  18.6285132
  44.4511045  32.0082179  18.4490771  45.7196401  32.4767290  17.7684918
  46.8368596  29.9321672  23.0276692  46.3333391  29.8951807  22.2144497
  47.1299203  30.8414415  23.0873349  43.0811482  30.0160402  22.0342874
  43.9464478  29.8203211  21.6748763  43.1488991  29.7870754  22.9612230
  52.6956612  40.3057983  15.5053067  51.9186055  39.9669142  15.0608229
  53.3748093  40.3110606  14.8308032  47.5108641  35.4252720  15.3959675
  47.2058777  35.7398869  16.2469818  48.4639083  35.5034140  15.4387008
  45.9555073  41.5842944  17.0452629  45.4276435  40.8495703  16.7325866
  45.4542576  42.3617620  16.7992597  50.9347919  39.7791964  22.1619675
  50.2771594  40.4691225  22.2499804  51.7388318  40.1688396  22.5053662
  40.6873801  32.2462610  19.4059240  41.2617553  32.0237791  18.6732433
  41.2744783  32.3151304  20.1587842  49.7453378  38.1336337  20.2123617
  50.2585260  38.7666329  20.7145327  50.3954602  37.5337532  19.8466977
  41.0143388  34.2767071  13.4255126  40.1780700  34.6141757  13.7464400
  40.8748157  34.1416051  12.4882263  42.9896468  29.1203859  18.1334310
  42.3360881  28.8052876  17.5090925  42.9476943  28.4979599  18.8594133
  44.1007673  39.4023154  10.0487602  43.1934735  39.1712407  10.2478751
  44.5978705  38.6060773  10.2361583  47.0075752  48.1120661  12.9684288
  46.3337451  48.4152358  13.5769246  47.3941574  48.9149741  12.6189745
  46.2234209  35.6085792  22.4581957  45.3056770  35.8300739  22.3003646
  46.6394352  35.6832103  21.5993665  47.0069257  37.0077208  17.5884638
  47.7541076  37.5198605  17.2791760  47.2760846  36.6861261  18.4489031
  45.2795907  39.5035749  14.5711592  44.3707126  39.2194781  14.6684062
  45.3090991  39.9234827  13.7114899  50.5115174  43.1142338  18.3402760
  50.0577501  42.2733248  18.3967950  49.8809141  43.7503737  18.6777540
  49.4548094  34.0434324  19.5703427  48.7170851  33.5311710  19.9013670
  49.7074867  33.6034706  18.7586704  48.9548113  44.9518835  19.2752578
  49.2471088  45.5123892  18.5564943  49.4646734  45.2447396  20.0305737
  49.5559721  26.8210576  20.1645196  49.8618598  25.9607940  19.8771111
  50.2812326  27.4128196  19.9644190  35.8484077  37.2241263  18.5526794
  35.6508477  36.6310624  17.8277861  35.2930741  36.9193473  19.2702733
  43.8280801  37.1164369  20.6721387  43.8829411  36.1638206  20.5963864
  43.0172003  37.2723808  21.1562686  44.9771995  41.0444492  11.9099671
  44.5391424  40.3280351  11.4505308  45.7182435  41.2720607  11.3484762
  41.7673161  35.7341429  18.4311766  40.9541026  36.0335600  18.8376958
  42.2632155  35.3397118  19.1486248  43.9181739  45.7299186  20.3646031
  43.8757917  45.9560032  19.4354563  44.8344437  45.4962561  20.5131832
  47.3647372  36.1983253  27.2626660  47.7196760  36.4254727  28.1221126
  48.0119504  36.5301630  26.6403915  53.0945109  39.3201689  17.9675989
  52.9563008  39.5103285  17.0397178  52.7381328  40.0821072  18.4244040
  41.2587235  33.3059785  24.0473001  41.8986615  33.1648544  23.3495964
  40.4264766  33.0194298  23.6711603  53.1214489  41.3878216  22.9787261
  53.5550996  41.2953505  23.8270315  53.8346070  41.3635717  22.3407277
  42.0347539  42.6062215  20.1607994  42.8288138  42.1112535  19.9590569
  41.3239232  42.0780078  19.7975699  46.8542384  44.9880310  24.5120361
  46.9079406  45.5571247  25.2798077  45.9857165  45.1582196  24.1474398
  38.3430303  36.7505297  16.2367746  37.4127891  36.6889752  16.4537708
  38.4387775  36.2281249  15.4404388  38.2615852  33.2760110  18.8245988
  38.5222669  34.1905443  18.7155148  39.0833024  32.8084552  18.9742601
  39.7340777  34.6897867  25.9944812  40.4063831  34.4815229  25.3457461
  38.9070564  34.4919953  25.5550045  53.9830039  41.4301917  25.5120146
  54.1765929  42.3347728  25.7579421  53.8830657  40.9709336  26.3458731
  45.6366349  31.3159808  28.0110473  44.9894264  32.0149757  27.9174950
  46.4067365  31.7495952  28.3786722  49.0445147  41.5808660  31.0861027
  48.8930654  41.3519211  30.1691110  49.0349827  42.5379261  31.0992372
  45.8130484  39.1540573  26.0707293  46.7422544  39.3051732  25.8976260
  45.3921514  39.2424593  25.2155940  44.6118815  43.1791237  23.8405831
  44.4729901  42.8110021  24.7131769  43.8233412  43.6938876  23.6689789
  45.2066967  48.2800333  15.1831367  45.3818723  47.8088377  15.9976990
  44.5199755  48.9066100  15.4112628  46.1624031  42.5572840  21.2294668
  45.8273863  42.5173610  22.1252318  45.6627976  41.8917556  20.7565079
  40.1368274  37.9640470  26.7547250  39.9988072  37.2320709  27.3558789
  41.0473198  37.8749370  26.4731437  49.0983222  39.9028874  11.5031728
  48.4812393  39.1775702  11.4064781  48.6299711  40.6638234  11.1598802
  42.7650575  37.6760429  26.2430929  43.4750194  37.0353621  26.2017548
  42.7219883  37.9273324  27.1657110  50.7537354  44.6127782  29.1637509
  50.6949900  43.9287002  28.4968092  51.1556872  45.3546772  28.7118134
  41.4779509  34.6625647  28.0626569  40.9416866  34.2116385  28.7148165
  40.8896218  34.7971556  27.3197033  39.7728053  51.4289696  21.9571227
  40.0124651  52.0608220  22.6350246  38.9297249  51.0777736  22.2436587
  50.7554761  42.5767366  27.3951488  49.8681540  42.2393288  27.5177887
  51.3253312  41.8450398  27.6320254  32.4083908  38.9091458  20.7194540
  33.0954948  38.5953188  20.1315555  32.2532037  39.8132823  20.4461791
  37.2118630  33.7981655  25.1479563  37.1276819  33.1907324  24.4129973
  36.3901337  34.2890673  25.1489060  44.2855914  47.2368819  24.3612731
  44.2126086  48.0423790  24.8732036  43.8433308  47.4360784  23.5360753
  44.0745694  46.4740589  17.8715553  43.2913216  47.0162269  17.9653777
  44.7738439  46.9914568  18.2709794  47.3842344  32.2835218  20.5149758
  47.8811044  31.5305180  20.1950829  46.6129326  32.3199535  19.9492968
  55.2372102  37.9875584  22.1568050  55.2261978  38.8700299  21.7861983
  54.3689481  37.6347134  21.9622587  46.7454598  47.1355653  26.5170890
  47.4582570  47.7703117  26.4446792  46.2544627  47.2319519  25.7010892
  48.4672125  41.0406905  18.0888182  47.5328404  41.1608368  17.9192886
  48.6448793  40.1379372  17.8248192  43.9677313  34.4252601  20.2421443
  43.5975100  33.8723641  20.9302348  44.4636405  33.8210735  19.6896443
  51.8544676  36.8824225  18.6238216  52.3205128  37.7152216  18.5498519
  52.3052177  36.4169206  19.3283474  41.7966512  44.8850096  27.3376461
  42.4975971  45.5186579  27.4905855  41.3261627  45.2264828  26.5772100
  49.9220907  43.2268046  15.6224368  50.1980751  43.1124640  16.5318242
  49.0525406  42.8285531  15.5836541  49.8261339  29.2504812  22.6629117
  48.9124419  29.4809038  22.8311324  50.2554440  29.3343256  23.5143150
  49.5967798  37.4394704  25.1629011  48.9439248  37.6870611  24.5081464
  49.9748177  36.6258842  24.8291489  46.5574971  47.4754397  19.2657182
  46.7397366  46.6576053  19.7284934  47.3807957  47.6922089  18.8282072
  46.8917137  46.4022582  16.5272230  47.4204903  45.8915036  15.9142392
  47.1545356  46.0865112  17.3917763  45.6455371  38.1814515  31.6495048
  44.9696008  38.0808644  32.3197424  46.4683004  38.0253728  32.1131046
  37.3934230  44.4186451  24.2707564  37.9787666  43.6730139  24.4035468
  37.1959068  44.7290408  25.1544227  40.2472885  47.4537699  19.2870006
  39.5783260  47.9383826  18.8034046  40.1085755  47.7006919  20.2013384
  31.9851884  36.9892051  22.9912007  32.0235984  36.4555642  23.7849125
  31.4792177  36.4627257  22.3722984  44.3878153  49.4881442  25.8852664
  44.9396461  49.6513064  26.6501750  44.7284347  50.0785880  25.2132689
  39.3642647  31.8356592  26.4874549  39.4283973  32.6971423  26.0751947
  39.3009767  31.2230594  25.7546908  38.8394919  33.9079724  30.1347583
  39.4666958  33.5256802  30.7485108  37.9822838  33.6893926  30.5003276
  49.2389028  44.3142700  31.7401319  49.7828932  44.9272658  31.2456274
  48.6575873  44.8722278  32.2568332  35.6160462  35.7156154  16.0665938
  35.9113903  34.8066832  16.0132992  34.7148498  35.6943893  15.7446940
  47.5246541  47.4363418  22.8716346  47.3997680  46.6353157  22.3627292
  48.1825632  47.9309611  22.3830316  39.1454709  33.7912150  22.0493487
  38.4241295  34.4048118  21.9100960  39.9347965  34.3269915  21.9710133
  49.5881449  45.2372438  24.4995897  48.6411785  45.1177789  24.4274223
  49.9364222  44.3494936  24.5822158  41.9481022  31.1266577  28.3234138
  42.4715424  31.3728873  29.0860448  41.7293356  31.9586611  27.9037276
  37.3448304  33.3970251  16.1905263  37.0161010  32.5167630  16.0080369
  37.6987674  33.3417920  17.0781652  46.5927882  45.0325154  20.7000249
  46.4452845  44.1041861  20.8807819  47.4181376  45.0545245  20.2157324
  40.4590127  33.6843221  16.5580741  40.7986199  34.2129142  15.8359349
  40.9062247  34.0223627  17.3339307  50.1962004  45.8553713  21.7865122
  51.1208552  45.6496574  21.6489573  50.0277308  45.6070114  22.6954463
  43.1533567  32.0680272  26.0083809  42.8130388  31.2688085  26.4104489
  42.4472574  32.3681983  25.4360642  43.8050039  29.1529584  24.4611132
  44.6276109  28.6790062  24.3390022  44.0488103  29.9320068  24.9609818
  42.4458274  32.1817843  14.7574034  43.1666636  32.5599095  14.2537751
  41.8223578  32.9006719  14.8609012  46.5889397  32.8862992  15.6932366
  46.8053011  33.7687629  15.3921194  46.1083464  32.4949205  14.9638008
  41.3288618  35.8448705  22.2703111  41.1833199  36.1589008  23.1627392
  40.8513822  36.4633605  21.7174009  43.1885001  32.8351253  22.3184000
  43.1746570  31.9392346  21.9816298  43.9057429  32.8421917  22.9522286
  45.0411132  33.2688593  24.3637128  44.7828909  34.1905664  24.3621458
  44.5096172  32.8719028  25.0537592  49.9857320  46.3739380  17.1427213
  50.1594198  45.8085803  16.3901065  50.4786212  47.1740275  16.9606703
  35.8034280  38.3854049  25.2090772  35.2587748  39.1613857  25.3411046
  36.6813630  38.7324854  25.0509893  42.5921897  31.7165633  17.5871570
  42.7137808  30.7882279  17.7862458  42.3023939  31.7304319  16.6749886
  45.4613087  29.4020543  20.7238290  45.4834784  29.4659877  19.7690270
  45.8781146  28.5625052  20.9178796  55.8396712  39.1375803  18.7617513
  56.2827858  38.3883128  18.3636636  54.9623222  39.1285939  18.3791245
  50.9732493  45.6906144  14.2424111  51.6683398  46.3112837  14.4611426
  51.3155643  44.8401496  14.5176489  36.5900302  37.5123945  28.1020929
  35.8482038  37.6606581  28.6885559  36.2693046  37.7732211  27.2387678
  52.8723916  43.1405850  15.7711442  53.3975240  43.4793123  15.0460762
  52.7846269  42.2052865  15.5874577  44.5343965  47.0539924  27.9001319
  44.8431091  46.8089070  28.7724018  45.3319447  47.2586562  27.4120189
  44.5564577  49.2077833  20.1306695  44.1169567  48.7154212  20.8239552
  45.3072694  48.6650801  19.8898770  37.0356916  45.3989374  20.1331323
  37.8614936  45.0993146  19.7529967  36.6850968  44.6296997  20.5821112
  42.0038449  44.7515842  22.2028997  41.3818458  44.0886547  21.9031225
  42.6743316  44.7776974  21.5202645  35.2365521  43.3175701  21.0920257
  34.3997429  42.8897875  20.9104258  35.2089166  43.5108144  22.0291048
  42.0762976  33.2297630  31.7961503  42.1251132  34.1059753  31.4139273
  42.6185491  32.6875023  31.2233146  52.5617822  43.7738754  31.0762640
  51.7713366  43.7562893  30.5367139  52.3251177  44.3127047  31.8311677
  52.6815697  40.6231220  28.3895369  52.7313702  40.4581227  29.3310891
  52.5729620  39.7558479  27.9993249  41.5651956  43.3019766  15.6787457
  41.7140076  43.9855230  15.0254130  42.3718399  43.2824856  16.1936913
  49.9719460  36.6062148  29.7054675  50.8729322  36.4668613  29.4138673
  50.0467434  36.7716603  30.6452853  44.3062265  33.9829003  28.5507862
  43.4365574  34.2762569  28.2790450  44.5421745  34.5669448  29.2715125
  54.1833894  43.0428162  28.6337390  53.8918702  43.4058142  29.4700851
  53.5706025  42.3295170  28.4550722  55.3829576  40.6081041  21.1539960
  56.2176468  41.0470845  21.3177521  55.5188705  40.1319695  20.3348206
  52.4321082  38.1660776  27.1017448  52.9075204  38.3588422  26.2936299
  51.5086648  38.2219962  26.8560832  39.3204589  39.3284943  16.6848526
  39.0750631  38.4247273  16.8828736  39.4900503  39.3302094  15.7428004
  47.0101299  30.2008620  26.0673282  47.5283243  30.9369647  25.7419771
  46.6556431  30.5072613  26.9020041  38.5900236  35.0613301  14.1834688
  37.8969481  35.1357656  13.5274724  38.3451988  34.2973645  14.7056205
  47.2613893  26.6208902  21.5874179  47.5415647  25.9532091  22.2134605
  48.0464500  26.8137998  21.0748842  45.0647361  45.7967896  13.1499205
  44.4921328  46.4158083  12.6969677  45.6380155  46.3467258  13.6839127
  51.1322751  35.0426536  25.3345754  52.0840174  35.1424634  25.3557978
  50.9626202  34.2504805  25.8443838  49.1537131  32.1282119  25.5205155
  48.5587063  32.4087132  24.8251643  48.8686827  32.6176020  26.2921896
  48.2844621  46.0805046  14.2807787  49.2175294  46.0150608  14.4840663
  48.1967834  46.9161313  13.8222320  50.9132638  45.3970917  11.2411735
  50.8346269  45.0630780  12.1347493  51.7342305  45.8892685  11.2403207
  53.6110829  38.2632656  24.4488053  53.5787149  37.3248657  24.6347737
  54.2211453  38.3416693  23.7153878  45.4494160  37.1328709  10.4915257
  46.3953265  37.0034917  10.5603675  45.0708405  36.3943371  10.9684686
  53.7605317  35.0543699  24.4946336  53.2444366  34.2702156  24.3076265
  54.6445266  34.7262416  24.6592856  51.4216044  28.7984715  20.4542149
  51.2240866  28.4899803  21.3385481  52.0315750  29.5246354  20.5840079
  59.4287379  39.3248663  23.5894090  60.1590767  39.0633951  24.1501793
  58.8194324  38.5877385  23.6296158  57.5102676  37.4656525  24.1868541
  56.7835840  37.3312490  23.5785033  57.0949963  37.7733354  24.9925259
  45.3332852  41.1846455  31.9515914  46.2535862  41.3625054  32.1455961
  45.2982435  40.2402500  31.7995614  43.6337077  35.0578685  10.4270143
  42.7268532  34.7611798  10.5032856  43.9113058  34.7608503   9.5604429
  34.5515017  36.3785049  20.8769189  34.2317802  35.5250357  20.5843563
  34.0048446  36.5933627  21.6327156  38.3294925  39.0947490  24.5938695
  38.5480935  40.0264598  24.6126729  38.7420699  38.7355464  25.3793499
  45.2499143  29.6015575  16.5814384  44.4399871  29.2562660  16.9569630
  45.9383560  29.2923119  17.1701995  47.1789691  28.6793622  18.2038681
  47.7320730  29.0989075  18.8628704  47.4159777  27.7529370  18.2461637
  43.2022790  34.6680695  33.9841444  43.1019517  35.6175052  33.9153536
  42.9844332  34.3398934  33.1117515  34.4203277  39.9987960  22.8462311
  33.7266749  39.5841913  22.3332265  35.1676268  40.0408497  22.2495729
  50.5568498  30.7894147  17.7117345  49.9767167  31.4478951  17.3295397
  50.2904431  29.9671492  17.3004762  49.0072064  30.1899205  19.9138665
  49.5071843  30.3015739  19.1052984  49.6507672  29.8860258  20.5539474
  43.0654060  38.0977834  32.8006506  42.5821142  38.8978194  33.0070395
  43.1514999  38.1085779  31.8473950  36.3340020  39.9306214  20.7228325
  36.3110708  40.0293901  19.7710209  36.6440656  40.7771365  21.0445492
  38.9927398  41.9882369  24.8374940  39.9470651  41.9566311  24.7704871
  38.7939921  41.5272993  25.6525166  39.5826780  40.5583485  27.4045738
  40.4019669  41.0527564  27.4280575  39.8563588  39.6415453  27.3763305
  49.3393376  32.9494237  16.7673693  48.4519231  33.2343888  16.5493888
  49.7547365  32.7888001  15.9200970  52.6907912  32.9740758  20.4828032
  53.4668302  33.4637211  20.7552649  51.9656046  33.3998813  20.9399902
  55.1280471  33.6868378  21.5401973  55.7224962  33.4464114  20.8295281
  55.2007055  32.9675508  22.1675509  37.3477627  47.5301989  21.8545138
  37.2132095  46.7702389  21.2883136  36.9309689  48.2542888  21.3873927
  48.4836590  42.7138912  10.8621713  49.1872440  42.9188915  11.4779369
  47.7599238  43.2815674  11.1270797  49.3134400  38.4648773  16.9823983
  49.2569601  38.9217325  16.1431616  49.8662742  37.7039458  16.8046826
  53.1239206  34.2538505  17.8074103  52.8676140  33.8535141  18.6382310
  52.4992074  34.9682299  17.6824242  57.4351544  36.9934578  20.3145394
  56.8751102  37.0627768  21.0876956  56.8295047  36.8175563  19.5944890
  40.5046752  48.4271306  22.0663580  40.3879137  49.3716738  21.9642271
  39.6839199  48.1244867  22.4549380  50.3923287  43.1521441  12.9120173
  51.2268891  42.7202640  12.7297648  50.2307630  42.9803455  13.8397068
  50.0469179  39.6553555  14.2776512  49.9917983  39.4897826  13.3364956
  49.4215234  40.3629587  14.4338702  34.8361694  34.8921619  28.1037935
  35.4820558  34.3820573  28.5925160  34.6278845  35.6290301  28.6781360
  47.3615086  41.9602466  33.6030075  48.2306246  42.1343119  33.2416710
  46.8821838  42.7796883  33.4805804  43.3565305  29.1561664  13.8561831
  43.3443974  30.1003503  14.0130102  44.2488727  28.9731809  13.5621292
  41.5301267  49.0799567  25.2819509  42.4328513  49.1123178  25.5986004
  41.3038637  48.1500018  25.2965845  43.2854869  47.8330554  21.9429587
  42.3350500  47.8332416  21.8293960  43.5887355  47.0863289  21.4265622
  47.1717424  25.7504440  18.1107768  46.4049820  25.1962927  18.2564450
  47.5828129  25.8226309  18.9721919  39.1759185  32.0389236  32.2012949
  40.0390647  31.6826041  32.4116273  38.6024596  31.7003131  32.8888353
  59.0207562  53.6691092  23.0075350  59.6585972  53.5497840  22.3038690
  58.9028405  54.6171936  23.0663302  55.8297268  53.6218520  22.9436875
  55.4915780  53.5059585  22.0557409  56.6987037  53.2209686  22.9237881
  51.6884084  55.4753997  18.9333765  51.1248949  55.3843934  18.1650053
  51.5736479  54.6553901  19.4136258  56.3117051  54.7753372  28.9023080
  56.3005692  54.3806170  28.0303584  56.4737691  54.0419445  29.4956851
  49.2348516  56.9705188  21.7717986  50.0269808  56.6296013  21.3564285
  49.4745166  57.0800164  22.6920139  57.2683643  59.1424965  14.2448230
  56.6171623  59.7279045  13.8582244  58.0628006  59.6731159  14.3043268
  51.1939270  56.2314102  14.6435365  51.9670146  55.6843089  14.5048241
  51.5464669  57.0958351  14.8549826  53.0324313  57.5590484  27.8502264
  52.7414178  58.4636115  27.7348930  53.6681297  57.6007012  28.5646334
  53.9580519  54.9367333  24.4403624  54.5544092  54.7123355  23.7260587
  54.0155491  54.1952078  25.0429072  53.5305548  52.3906768  12.2753815
  53.7831068  51.8688289  11.5137278  52.5930107  52.2272913  12.3780498
  58.5748831  51.3942546  20.0828558  59.3611920  50.9761969  19.7318975
  58.8387535  52.2988638  20.2510206  58.7458908  56.8315397  14.7817215
  58.1104741  56.9050023  15.4938119  58.4156314  57.4208995  14.1036294
  63.9757258  51.3317779  20.9861536  64.7082430  50.7616996  21.2199366
  63.2196613  50.9439380  21.4268042  53.2501837  54.2934874  14.4778190
  53.1338095  53.6179777  15.1459274  53.3604096  53.8067248  13.6610343
  55.5933377  53.7545021  18.1824879  55.2291585  53.2275642  18.8937800
  56.4500493  53.3643490  18.0091364  61.4982678  45.0439354  25.4456145
  61.1666003  45.9134764  25.2217360  60.9028291  44.7275638  26.1250175
  55.2338864  48.7834921  13.1786227  55.4013267  49.6515157  13.5456698
  55.0436033  48.9462202  12.2547517  57.9914198  57.2451900  24.8452058
  57.6914921  58.1476938  24.7367865  57.6465257  56.9784083  25.6973211
  51.4426679  53.6965696  20.8788762  50.5177176  53.5641910  21.0866454
  51.6911092  54.4759916  21.3758705  61.3911341  49.7634440  22.5249495
  60.4828219  49.6949848  22.2308256  61.3398937  50.2406385  23.3531321
  55.2128085  51.2392578  14.1632894  55.0927710  51.6849629  15.0018374
  54.5180674  51.5877896  13.6046432  48.8035490  53.3398970  21.7132551
  48.9327871  53.5933449  22.6271963  48.1232941  53.9326678  21.3937206
  52.9734977  64.0096220  17.8123025  52.8959007  64.9604045  17.8911506
  52.3696621  63.6642092  18.4697952  55.4652207  51.1824085  30.4684392
  54.6885541  51.7418005  30.4587257  56.1042770  51.6680868  30.9899262
  63.2572988  47.9650878  24.3027369  62.6147368  48.2583411  23.6567164
  62.7527916  47.8503798  25.1080566  60.9113151  51.7114051  14.9913228
  61.8231008  51.9441438  14.8160926  60.4022799  52.2951095  14.4288307
  53.7198579  53.9909539  30.0302359  54.4613264  54.5294583  29.7537183
  53.0135565  54.6175827  30.1873911  59.1953919  56.1338679  28.6274521
  59.6037275  55.6921090  27.8829153  58.4731181  55.5591307  28.8808714
  55.5484989  51.0711286  26.0008078  56.3946184  51.4950699  26.1442727
  55.4883627  50.4144910  26.6946641  59.5182734  56.6939870  22.3826810
  58.8891596  56.8585584  21.6802878  59.1308396  57.1081479  23.1537774
  63.3971966  57.6294308  19.7371173  62.7123004  58.0093209  19.1868207
  63.4815815  58.2389634  20.4703121  58.6984434  48.7315654  27.6589251
  58.4545366  49.4857715  27.1223527  58.9744365  49.1101002  28.4936498
  60.6522897  55.2754267  26.3366517  60.8639792  55.9186027  25.6600898
  60.6052646  54.4416583  25.8688447  58.2549126  47.8872087  23.2403089
  57.3933605  48.1853341  23.5319827  58.2811561  48.1042486  22.3084122
  55.0710696  56.4314278  19.6476895  55.5349041  56.7101981  18.8581517
  54.8067494  55.5297722  19.4649985  51.9634777  55.9785759  22.5856658
  52.5336134  56.4073028  21.9474143  52.5542889  55.6968344  23.2840844
  54.0079582  52.5537430  16.4566460  54.7103625  53.0058474  16.9240386
  53.6760210  51.9121249  17.0846353  52.4559943  51.1449187  30.8317669
  51.8258604  51.8265468  31.0653066  52.3496031  51.0332268  29.8870808
  47.7504916  50.8120983  21.7583593  46.9603970  51.0678511  21.2823704
  48.2416163  51.6269321  21.8635634  61.7668725  58.1526222  24.5088874
  62.5886169  57.7506409  24.2271556  61.7631128  58.0494456  25.4604990
  49.7019661  51.1765562  18.7167070  48.9050824  51.2884256  19.2350566
  49.4745253  51.5152214  17.8507961  55.5325329  57.7010265  26.6649585
  55.5969761  58.1630673  27.5007757  54.8236253  57.0707630  26.7931895
  46.0342619  51.0651473  24.1898584  46.2850657  51.9498483  24.4556160
  46.5702167  50.8856075  23.4173676  69.8574718  54.4964971  20.8573846
  69.1038427  53.9272369  20.7017850  69.9922259  54.4627635  21.8044480
  55.2473346  59.3678373  16.5328565  55.1119021  60.2129909  16.9613413
  55.7883159  59.5697650  15.7694499  51.7340686  45.4469953  33.1942920
  51.3407632  44.8936151  33.8690565  52.5506826  45.7580531  33.5849438
  48.7002744  56.8853811  17.1056490  49.2127264  57.6797061  17.2562055
  49.3525457  56.1880101  17.0390092  50.5097628  60.0019567  19.1879243
  50.6864257  60.9237532  19.0000227  51.3054462  59.6877986  19.6173623
  54.6508647  46.8627832  30.7863177  55.3918360  47.4634985  30.7067639
  54.8826570  46.1205470  30.2281219  49.7949985  52.0484199  29.0641407
  49.6803500  51.1469456  29.3648506  48.9394503  52.2947896  28.7126223
  56.8741823  59.9901939  30.6628907  56.4305677  59.2038318  30.3449812
  57.5359036  60.1781090  29.9972798  51.6328944  61.5197741  25.1889586
  52.1836369  61.3914804  24.4166580  50.7940420  61.8192630  24.8384479
  58.9723061  60.2704739  28.6910308  58.9541536  61.0913620  28.1990578
  59.8942981  60.1458814  28.9160450  55.4296115  57.7848869  29.5333817
  55.9624452  57.0237157  29.3033125  54.9010196  57.4922521  30.2757971
  58.5965810  42.8908935  25.0627459  58.2530079  43.7810576  24.9866569
  58.9644772  42.7010592  24.1997044  46.6651660  55.2142465  17.8816061
  47.5026882  55.6239474  17.6649768  46.8429928  54.2741907  17.8516255
  58.5616093  52.8817546  13.5699894  58.0462716  53.6522150  13.8088281
  58.2893401  52.2082682  14.1932955  56.1463204  47.7267247  18.6285132
  55.2904800  47.3374097  18.4490771  56.5590155  47.8059207  17.7684918
  57.6762350  45.2613590  23.0276692  57.1727146  45.2243725  22.2144497
  57.9692957  46.1706333  23.0873349  53.9205236  45.3452320  22.0342874
  54.7858233  45.1495128  21.6748763  53.9882745  45.1162671  22.9612230
  63.5350367  55.6349900  15.5053067  62.7579809  55.2961060  15.0608229
  64.2141848  55.6402524  14.8308032  58.3502396  50.7544638  15.3959675
  58.0452531  51.0690787  16.2469818  59.3032838  50.8326058  15.4387008
  56.7948828  56.9134861  17.0452629  56.2670189  56.1787621  16.7325866
  56.2936330  57.6909538  16.7992597  61.7741674  55.1083882  22.1619675
  61.1165348  55.7983143  22.2499804  62.5782073  55.4980314  22.5053662
  51.5267555  47.5754528  19.4059240  52.1011307  47.3529709  18.6732433
  52.1138538  47.6443222  20.1587842  60.5847132  53.4628254  20.2123617
  61.0979014  54.0958246  20.7145327  61.2348356  52.8629450  19.8466977
  51.8537142  49.6058989  13.4255126  51.0174455  49.9433675  13.7464400
  51.7141912  49.4707968  12.4882263  53.8290223  44.4495776  18.1334310
  53.1754635  44.1344794  17.5090925  53.7870697  43.8271517  18.8594133
  54.9401428  54.7315071  10.0487602  54.0328490  54.5004325  10.2478751
  55.4372460  53.9352691  10.2361583  57.8469507  63.4412579  12.9684288
  57.1731205  63.7444275  13.5769246  58.2335329  64.2441659  12.6189745
  57.0627963  50.9377710  22.4581957  56.1450525  51.1592657  22.3003646
  57.4788107  51.0124020  21.5993665  57.8463011  52.3369126  17.5884638
  58.5934830  52.8490523  17.2791760  58.1154601  52.0153178  18.4489031
  56.1189661  54.8327666  14.5711592  55.2100880  54.5486699  14.6684062
  56.1484745  55.2526745  13.7114899  61.3508929  58.4434256  18.3402760
  60.8971256  57.6025166  18.3967950  60.7202895  59.0795654  18.6777540
  60.2941848  49.3726242  19.5703427  59.5564605  48.8603628  19.9013670
  60.5468622  48.9326623  18.7586704  59.7941868  60.2810753  19.2752578
  60.0864842  60.8415810  18.5564943  60.3040488  60.5739314  20.0305737
  60.3953476  42.1502494  20.1645196  60.7012352  41.2899857  19.8771111
  61.1206080  42.7420114  19.9644190  46.6877832  52.5533180  18.5526794
  46.4902231  51.9602541  17.8277861  46.1324496  52.2485391  19.2702733
  54.6674555  52.4456287  20.6721387  54.7223165  51.4930123  20.5963864
  53.8565757  52.6015726  21.1562686  55.8165749  56.3736410  11.9099671
  55.3785179  55.6572269  11.4505308  56.5576190  56.6012525  11.3484762
  52.6066915  51.0633347  18.4311766  51.7934781  51.3627517  18.8376958
  53.1025909  50.6689035  19.1486248  54.7575493  61.0591104  20.3646031
  54.7151672  61.2851950  19.4354563  55.6738192  60.8254478  20.5131832
  58.2041127  51.5275171  27.2626660  58.5590515  51.7546644  28.1221126
  58.8513258  51.8593548  26.6403915  63.9338864  54.6493607  17.9675989
  63.7956762  54.8395203  17.0397178  63.5775083  55.4112990  18.4244040
  52.0980990  48.6351702  24.0473001  52.7380369  48.4940461  23.3495964
  51.2658520  48.3486216  23.6711603  63.9608243  56.7170134  22.9787261
  64.3944750  56.6245423  23.8270315  64.6739824  56.6927635  22.3407277
  52.8741294  57.9354133  20.1607994  53.6681892  57.4404453  19.9590569
  52.1632986  57.4071996  19.7975699  57.6936138  60.3172228  24.5120361
  57.7473161  60.8863164  25.2798077  56.8250920  60.4874113  24.1474398
  49.1824057  52.0797214  16.2367746  48.2521645  52.0181670  16.4537708
  49.2781529  51.5573167  15.4404388  49.1009606  48.6052027  18.8245988
  49.3616424  49.5197360  18.7155148  49.9226779  48.1376470  18.9742601
  50.5734532  50.0189784  25.9944812  51.2457585  49.8107147  25.3457461
  49.7464318  49.8211870  25.5550045  64.8223793  56.7593835  25.5120146
  65.0159683  57.6639645  25.7579421  64.7224411  56.3001254  26.3458731
  56.4760104  46.6451725  28.0110473  55.8288019  47.3441675  27.9174950
  57.2461119  47.0787869  28.3786722  59.8838902  56.9100577  31.0861027
  59.7324408  56.6811129  30.1691110  59.8743581  57.8671179  31.0992372
  56.6524238  54.4832490  26.0707293  57.5816298  54.6343650  25.8976260
  56.2315268  54.5716511  25.2155940  55.4512570  58.5083155  23.8405831
  55.3123656  58.1401939  24.7131769  54.6627166  59.0230794  23.6689789
  56.0460722  63.6092251  15.1831367  56.2212478  63.1380294  15.9976990
  55.3593510  64.2358017  15.4112628  57.0017785  57.8864757  21.2294668
  56.6667618  57.8465527  22.1252318  56.5021731  57.2209473  20.7565079
  50.9762029  53.2932387  26.7547250  50.8381827  52.5612626  27.3558789
  51.8866952  53.2041287  26.4731437  59.9376977  55.2320792  11.5031728
  59.3206147  54.5067620  11.4064781  59.4693465  55.9930152  11.1598802
  53.6044330  53.0052347  26.2430929  54.3143948  52.3645539  26.2017548
  53.5613638  53.2565242  27.1657110  61.5931108  59.9419700  29.1637509
  61.5343654  59.2578920  28.4968092  61.9950627  60.6838690  28.7118134
  52.3173264  49.9917565  28.0626569  51.7810621  49.5408303  28.7148165
  51.7289972  50.1263473  27.3197033  50.6121807  66.7581614  21.9571227
  50.8518405  67.3900138  22.6350246  49.7691004  66.4069654  22.2436587
  51.7275523  49.4506216  10.6253032  50.8504989  49.3295017  10.2615279
  52.2033276  48.6592294  10.3731921  61.5948516  57.9059284  27.3951488
  60.7075294  57.5685206  27.5177887  62.1647067  57.1742315  27.6320254
  43.2477663  54.2383376  20.7194540  43.9348703  53.9245106  20.1315555
  43.0925791  55.1424740  20.4461791  48.0512385  49.1273572  25.1479563
  47.9670574  48.5199242  24.4129973  47.2295091  49.6182591  25.1489060
  55.1249669  62.5660736  24.3612731  55.0519840  63.3715708  24.8732036
  54.6827062  62.7652702  23.5360753  54.9139449  61.8032506  17.8715553
  54.1306970  62.3454187  17.9653777  55.6132194  62.3206486  18.2709794
  58.2236099  47.6127136  20.5149758  58.7204798  46.8597098  20.1950829
  57.4523080  47.6491452  19.9492968  66.0765856  53.3167501  22.1568050
  66.0655732  54.1992217  21.7861983  65.2083236  52.9639052  21.9622587
  57.5848352  62.4647570  26.5170890  58.2976325  63.0995035  26.4446792
  57.0938381  62.5611436  25.7010892  59.3065879  56.3698823  18.0888182
  58.3722158  56.4900285  17.9192886  59.4842548  55.4671290  17.8248192
  54.8071067  49.7544519  20.2421443  54.4368855  49.2015559  20.9302348
  55.3030160  49.1502652  19.6896443  62.6938431  52.2116142  18.6238216
  63.1598883  53.0444134  18.5498519  63.1445931  51.7461124  19.3283474
  52.6360266  60.2142014  27.3376461  53.3369726  60.8478497  27.4905855
  52.1655381  60.5556745  26.5772100  60.7614662  58.5559964  15.6224368
  61.0374506  58.4416558  16.5318242  59.8919161  58.1577448  15.5836541
  60.6655093  44.5796729  22.6629117  59.7518173  44.8100956  22.8311324
  61.0948195  44.6635173  23.5143150  60.4361552  52.7686621  25.1629011
  59.7833002  53.0162529  24.5081464  60.8141932  51.9550759  24.8291489
  57.3968726  62.8046314  19.2657182  57.5791120  61.9867970  19.7284934
  58.2201712  63.0214007  18.8282072  57.7310891  61.7314500  16.5272230
  58.2598658  61.2206954  15.9142392  57.9939111  61.4157030  17.3917763
  56.4849125  53.5106432  31.6495048  55.8089762  53.4100562  32.3197424
  57.3076759  53.3545646  32.1131046  48.2327984  59.7478369  24.2707564
  48.8181421  59.0022057  24.4035468  48.0352823  60.0582326  25.1544227
  51.0866639  62.7829616  19.2870006  50.4177015  63.2675744  18.8034046
  50.9479509  63.0298837  20.2013384  42.8245639  52.3183969  22.9912007
  42.8629738  51.7847560  23.7849125  42.3185932  51.7919175  22.3722984
  55.2271908  64.8173360  25.8852664  55.7790216  64.9804981  26.6501750
  55.5678101  65.4077798  25.2132689  50.2036401  47.1648510  26.4874549
  50.2677728  48.0263340  26.0751947  50.1403521  46.5522511  25.7546908
  49.6788674  49.2371642  30.1347583  50.3060712  48.8548719  30.7485108
  48.8216593  49.0185844  30.5003276  60.0782782  59.6434617  31.7401319
  60.6222686  60.2564576  31.2456274  59.4969627  60.2014196  32.2568332
  46.4554216  51.0448071  16.0665938  46.7507657  50.1358750  16.0132992
  45.5542252  51.0235811  15.7446940  58.3640295  62.7655335  22.8716346
  58.2391435  61.9645075  22.3627292  59.0219386  63.2601529  22.3830316
  49.9848463  49.1204068  22.0493487  49.2635049  49.7340035  21.9100960
  50.7741719  49.6561833  21.9710133  60.4275204  60.5664355  24.4995897
  59.4805539  60.4469707  24.4274223  60.7757977  59.6786853  24.5822158
  52.7874777  46.4558494  28.3234138  53.3109179  46.7020791  29.0860448
  52.5687110  47.2878529  27.9037276  48.1842058  48.7262169  16.1905263
  47.8554764  47.8459548  16.0080369  48.5381429  48.6709838  17.0781652
  57.4321637  60.3617072  20.7000249  57.2846599  59.4333779  20.8807819
  58.2575130  60.3837162  20.2157324  51.2983881  49.0135139  16.5580741
  51.6379954  49.5421060  15.8359349  51.7456002  49.3515545  17.3339307
  61.0355759  61.1845630  21.7865122  61.9602306  60.9788492  21.6489573
  60.8671062  60.9362031  22.6954463  53.9927322  47.3972189  26.0083809
  53.6524142  46.5980002  26.4104489  53.2866328  47.6973900  25.4360642
  54.6443794  44.4821502  24.4611132  55.4669863  44.0081980  24.3390022
  54.8881857  45.2611986  24.9609818  53.2852028  47.5109760  14.7574034
  54.0060391  47.8891013  14.2537751  52.6617332  48.2298637  14.8609012
  57.4283151  48.2154909  15.6932366  57.6446766  49.0979547  15.3921194
  56.9477218  47.8241123  14.9638008  52.1682373  51.1740622  22.2703111
  52.0226953  51.4880926  23.1627392  51.6907576  51.7925523  21.7174009
  54.0278755  48.1643170  22.3184000  54.0140324  47.2684264  21.9816298
  54.7451184  48.1713834  22.9522286  55.8804886  48.5980511  24.3637128
  55.6222664  49.5197581  24.3621458  55.3489927  48.2010945  25.0537592
  60.8251075  61.7031298  17.1427213  60.9987952  61.1377720  16.3901065
  61.3179966  62.5032193  16.9606703  46.6428035  53.7145967  25.2090772
  46.0981503  54.4905775  25.3411046  47.5207385  54.0616771  25.0509893
  53.4315651  47.0457551  17.5871570  53.5531563  46.1174197  17.7862458
  53.1417694  47.0596237  16.6749886  56.3006842  44.7312461  20.7238290
  56.3228539  44.7951794  19.7690270  56.7174901  43.8916970  20.9178796
  66.6790466  54.4667721  18.7617513  67.1221612  53.7175046  18.3636636
  65.8016976  54.4577857  18.3791245  61.8126247  61.0198062  14.2424111
  62.5077152  61.6404755  14.4611426  62.1549398  60.1693413  14.5176489
  47.4294057  52.8415863  28.1020929  46.6875793  52.9898498  28.6885559
  47.1086801  53.1024129  27.2387678  63.7117671  58.4697768  15.7711442
  64.2368995  58.8085040  15.0460762  63.6240023  57.5344783  15.5874577
  55.3737719  62.3831841  27.9001319  55.6824846  62.1380988  28.7724018
  56.1713201  62.5878480  27.4120189  55.3958331  64.5369751  20.1306695
  54.9563322  64.0446130  20.8239552  56.1466448  63.9942719  19.8898770
  47.8750670  60.7281292  20.1331323  48.7008690  60.4285064  19.7529967
  47.5244722  59.9588914  20.5821112  52.8432203  60.0807760  22.2028997
  52.2212213  59.4178465  21.9031225  53.5137070  60.1068892  21.5202645
  46.0759275  58.6467618  21.0920257  45.2391184  58.2189793  20.9104258
  46.0482921  58.8400062  22.0291048  52.9156731  48.5589548  31.7961503
  52.9644886  49.4351671  31.4139273  53.4579245  48.0166941  31.2233146
  63.4011577  59.1030671  31.0762640  62.6107120  59.0854810  30.5367139
  63.1644931  59.6418965  31.8311677  63.5209452  55.9523138  28.3895369
  63.5707457  55.7873145  29.3310891  63.4123375  55.0850397  27.9993249
  52.4045710  58.6311683  15.6787457  52.5533831  59.3147148  15.0254130
  53.2112154  58.6116773  16.1936913  60.8113214  51.9354066  29.7054675
  61.7123077  51.7960531  29.4138673  60.8861189  52.1008521  30.6452853
  55.1456019  49.3120920  28.5507862  54.2759329  49.6054487  28.2790450
  55.3815500  49.8961365  29.2715125  65.0227648  58.3720079  28.6337390
  64.7312457  58.7350060  29.4700851  64.4099780  57.6587088  28.4550722
  66.2223331  55.9372959  21.1539960  67.0570222  56.3762763  21.3177521
  66.3582460  55.4611612  20.3348206  63.2714837  53.4952694  27.1017448
  63.7468958  53.6880340  26.2936299  62.3480402  53.5511880  26.8560832
  50.1598343  54.6576861  16.6848526  49.9144385  53.7539191  16.8828736
  50.3294258  54.6594011  15.7428004  57.8495053  45.5300537  26.0673282
  58.3676997  46.2661564  25.7419771  57.4950186  45.8364531  26.9020041
  49.4293991  50.3905219  14.1834688  48.7363236  50.4649574  13.5274724
  49.1845743  49.6265562  14.7056205  58.1007647  41.9500820  21.5874179
  58.3809401  41.2824009  22.2134605  58.8858254  42.1429916  21.0748842
  55.9041116  61.1259814  13.1499205  55.3315083  61.7450001  12.6969677
  56.4773910  61.6759176  13.6839127  61.9716506  50.3718454  25.3345754
  62.9233929  50.4716552  25.3557978  61.8019956  49.5796722  25.8443838
  59.9930885  47.4574037  25.5205155  59.3980817  47.7379050  24.8251643
  59.7080582  47.9467938  26.2921896  59.1238376  61.4096964  14.2807787
  60.0569049  61.3442526  14.4840663  59.0361588  62.2453231  13.8222320
  61.7526392  60.7262834  11.2411735  61.6740024  60.3922698  12.1347493
  62.5736059  61.2184602  11.2403207  64.4504583  53.5924574  24.4488053
  64.4180904  52.6540574  24.6347737  65.0605207  53.6708610  23.7153878
  56.2887914  52.4620627  10.4915257  57.2347019  52.3326835  10.5603675
  55.9102159  51.7235289  10.9684686  64.5999072  50.3835617  24.4946336
  64.0838121  49.5994074  24.3076265  65.4839020  50.0554334  24.6592856
  62.2609799  44.1276633  20.4542149  62.0634620  43.8191721  21.3385481
  62.8709504  44.8538272  20.5840079  70.2681133  54.6540580  23.5894090
  70.9984522  54.3925869  24.1501793  69.6588079  53.9169302  23.6296158
  68.3496430  52.7948443  24.1868541  67.6229594  52.6604408  23.5785033
  67.9343717  53.1025272  24.9925259  56.1726607  56.5138373  31.9515914
  57.0929616  56.6916972  32.1455961  56.1376190  55.5694418  31.7995614
  54.4730832  50.3870603  10.4270143  53.5662287  50.0903716  10.5032856
  54.7506813  50.0900421   9.5604429  45.3908772  51.7076966  20.8769189
  45.0711556  50.8542275  20.5843563  44.8442200  51.9225545  21.6327156
  49.1688679  54.4239407  24.5938695  49.3874689  55.3556515  24.6126729
  49.5814453  54.0647382  25.3793499  56.0892897  44.9307493  16.5814384
  55.2793626  44.5854578  16.9569630  56.7777314  44.6215036  17.1701995
  58.0183446  44.0085540  18.2038681  58.5714484  44.4280993  18.8628704
  58.2553532  43.0821288  18.2461637  54.0416545  49.9972613  33.9841444
  53.9413272  50.9466970  33.9153536  53.8238087  49.6690852  33.1117515
  53.2429616  47.2457538  10.5682122  54.1048780  47.5712437  10.8277939
  53.4279960  46.4589034  10.0555188  45.2597032  55.3279878  22.8462311
  44.5660503  54.9133831  22.3332265  46.0070023  55.3700414  22.2495729
  61.3962253  46.1186065  17.7117345  60.8160922  46.7770869  17.3295397
  61.1298185  45.2963409  17.3004762  59.8465819  45.5191122  19.9138665
  60.3465597  45.6307657  19.1052984  60.4901427  45.2152175  20.5539474
  53.9047815  53.4269752  32.8006506  53.4214897  54.2270112  33.0070395
  53.9908754  53.4377697  31.8473950  47.1733774  55.2598132  20.7228325
  47.1504463  55.3585819  19.7710209  47.4834411  56.1063282  21.0445492
  49.8321152  57.3174287  24.8374940  50.7864406  57.2858229  24.7704871
  49.6333676  56.8564910  25.6525166  50.4220534  55.8875403  27.4045738
  51.2413423  56.3819481  27.4280575  50.6957342  54.9707371  27.3763305
  60.1787131  48.2786155  16.7673693  59.2912986  48.5635806  16.5493888
  60.5941120  48.1179918  15.9200970  63.5301667  48.3032676  20.4828032
  64.3062057  48.7929128  20.7552649  62.8049801  48.7290730  20.9399902
  65.9674225  49.0160295  21.5401973  66.5618716  48.7756031  20.8295281
  66.0400809  48.2967426  22.1675509  48.1871381  62.8593906  21.8545138
  48.0525849  62.0994307  21.2883136  47.7703443  63.5834806  21.3873927
  59.3230344  58.0430830  10.8621713  60.0266194  58.2480832  11.4779369
  58.5992993  58.6107592  11.1270797  60.1528154  53.7940691  16.9823983
  60.0963356  54.2509242  16.1431616  60.7056497  53.0331376  16.8046826
  63.9632960  49.5830423  17.8074103  63.7069895  49.1827059  18.6382310
  63.3385828  50.2974217  17.6824242  68.2745298  52.3226496  20.3145394
  67.7144856  52.3919685  21.0876956  67.6688801  52.1467481  19.5944890
  51.3440507  63.7563223  22.0663580  51.2272891  64.7008656  21.9642271
  50.5232953  63.4536785  22.4549380  61.2317041  58.4813359  12.9120173
  62.0662645  58.0494557  12.7297648  61.0701384  58.3095373  13.8397068
  60.8862934  54.9845472  14.2776512  60.8311737  54.8189744  13.3364956
  60.2608989  55.6921505  14.4338702  45.6755449  50.2213537  28.1037935
  46.3214312  49.7112491  28.5925160  45.4672600  50.9582218  28.6781360
  58.2008841  57.2894384  33.6030075  59.0700000  57.4635036  33.2416710
  57.7215592  58.1088801  33.4805804  54.1959059  44.4853581  13.8561831
  54.1837729  45.4295421  14.0130102  55.0882481  44.3023727  13.5621292
  52.3695021  64.4091485  25.2819509  53.2722268  64.4415095  25.5986004
  52.1432391  63.4791936  25.2965845  54.1248623  63.1622472  21.9429587
  53.1744254  63.1624333  21.8293960  54.4281109  62.4155206  21.4265622
  58.0111179  41.0796358  18.1107768  57.2443574  40.5254845  18.2564450
  58.4221884  41.1518227  18.9721919  50.0152940  47.3681154  32.2012949
  50.8784401  47.0117959  32.4116273  49.4418350  47.0295049  32.8888353
  69.8601317  68.9983010  23.0075350  70.4979727  68.8789757  22.3038690
  69.7422159  69.9463854  23.0663302  66.6691023  68.9510438  22.9436875
  66.3309534  68.8351503  22.0557409  67.5380791  68.5501603  22.9237881
  62.5277839  70.8045915  18.9333765  61.9642704  70.7135851  18.1650053
  62.4130234  69.9845819  19.4136258  67.1510806  70.1045290  28.9023080
  67.1399447  69.7098088  28.0303584  67.3131445  69.3711362  29.4956851
  60.0742270  72.2997106  21.7717986  60.8663562  71.9587931  21.3564285
  60.3138921  72.4092081  22.6920139  68.1077397  74.4716882  14.2448230
  67.4565377  75.0570963  13.8582244  68.9021760  75.0023077  14.3043268
  62.0333024  71.5606019  14.6435365  62.8063900  71.0135006  14.5048241
  62.3858423  72.4250269  14.8549826  63.8718067  72.8882402  27.8502264
  63.5807933  73.7928033  27.7348930  64.5075051  72.9298929  28.5646334
  64.7974274  70.2659250  24.4403624  65.3937846  70.0415273  23.7260587
  64.8549245  69.5243996  25.0429072  64.3699302  67.7198686  12.2753815
  64.6224823  67.1980207  11.5137278  63.4323861  67.5564831  12.3780498
  69.4142585  66.7234464  20.0828558  70.2005674  66.3053887  19.7318975
  69.6781289  67.6280556  20.2510206  69.5852662  72.1607314  14.7817215
  68.9498495  72.2341941  15.4938119  69.2550069  72.7500913  14.1036294
  74.8151012  66.6609697  20.9861536  75.5476184  66.0908914  21.2199366
  74.0590368  66.2731298  21.4268042  64.0895591  69.6226791  14.4778190
  63.9731849  68.9471695  15.1459274  64.1997851  69.1359165  13.6610343
  66.4327132  69.0836939  18.1824879  66.0685339  68.5567560  18.8937800
  67.2894248  68.6935408  18.0091364  72.3376433  60.3731271  25.4456145
  72.0059757  61.2426682  25.2217360  71.7422046  60.0567555  26.1250175
  66.0732619  64.1126838  13.1786227  66.2407021  64.9807075  13.5456698
  65.8829788  64.2754120  12.2547517  68.8307952  72.5743817  24.8452058
  68.5308675  73.4768856  24.7367865  68.4859012  72.3076000  25.6973211
  62.2820434  69.0257614  20.8788762  61.3570930  68.8933828  21.0866454
  62.5304847  69.8051833  21.3758705  72.2305096  65.0926357  22.5249495
  71.3221973  65.0241766  22.2308256  72.1792692  65.5698302  23.3531321
  66.0521840  66.5684496  14.1632894  65.9321465  67.0141547  15.0018374
  65.3574428  66.9169813  13.6046432  59.6429245  68.6690888  21.7132551
  59.7721626  68.9225367  22.6271963  58.9626696  69.2618596  21.3937206
  63.8128732  79.3388138  17.8123025  63.7352762  80.2895963  17.8911506
  63.2090375  78.9934010  18.4697952  66.3045962  66.5116003  30.4684392
  65.5279296  67.0709923  30.4587257  66.9436525  66.9972786  30.9899262
  74.0966742  63.2942796  24.3027369  73.4541123  63.5875329  23.6567164
  73.5921671  63.1795716  25.1080566  71.7506906  67.0405969  14.9913228
  72.6624762  67.2733356  14.8160926  71.2416553  67.6243013  14.4288307
  64.5592334  69.3201456  30.0302359  65.3007018  69.8586500  29.7537183
  63.8529319  69.9467745  30.1873911  70.0347674  71.4630597  28.6274521
  70.4431030  71.0213007  27.8829153  69.3124935  70.8883224  28.8808714
  66.3878744  66.4003204  26.0008078  67.2339939  66.8242617  26.1442727
  66.3277381  65.7436828  26.6946641  70.3576488  72.0231787  22.3826810
  69.7285351  72.1877502  21.6802878  69.9702150  72.4373397  23.1537774
  74.2365720  72.9586225  19.7371173  73.5516758  73.3385127  19.1868207
  74.3209569  73.5681552  20.4703121  69.5378189  64.0607572  27.6589251
  69.2939121  64.8149632  27.1223527  69.8138119  64.4392920  28.4936498
  71.4916652  70.6046184  26.3366517  71.7033547  71.2477944  25.6600898
  71.4446400  69.7708501  25.8688447  69.0942881  63.2164005  23.2403089
  68.2327360  63.5145259  23.5319827  69.1205315  63.4334404  22.3084122
  65.9104450  71.7606196  19.6476895  66.3742796  72.0393898  18.8581517
  65.6461248  70.8589640  19.4649985  62.8028531  71.3077677  22.5856658
  63.3729888  71.7364945  21.9474143  63.3936643  71.0260262  23.2840844
  64.8473336  67.8829348  16.4566460  65.5497380  68.3350392  16.9240386
  64.5153965  67.2413167  17.0846353  63.2953698  66.4741104  30.8317669
  62.6652358  67.1557385  31.0653066  63.1889786  66.3624186  29.8870808
  58.5898670  66.1412901  21.7583593  57.7997724  66.3970429  21.2823704
  59.0809918  66.9561238  21.8635634  72.6062480  73.4818140  24.5088874
  73.4279923  73.0798327  24.2271556  72.6024883  73.3786374  25.4604990
  60.5413416  66.5057480  18.7167070  59.7444579  66.6176174  19.2350566
  60.3139008  66.8444132  17.8507961  66.3719083  73.0302183  26.6649585
  66.4363516  73.4922590  27.5007757  65.6630007  72.3999548  26.7931895
  56.8736373  66.3943391  24.1898584  57.1244412  67.2790401  24.4556160
  57.4095922  66.2147993  23.4173676  80.6968473  69.8256888  20.8573846
  79.9432181  69.2564286  20.7017850  80.8316014  69.7919553  21.8044480
  66.0867101  74.6970290  16.5328565  65.9512776  75.5421826  16.9613413
  66.6276913  74.8989568  15.7694499  62.5734440  60.7761870  33.1942920
  62.1801386  60.2228069  33.8690565  63.3900581  61.0872449  33.5849438
  59.5396498  72.2145729  17.1056490  60.0521019  73.0088979  17.2562055
  60.1919211  71.5172019  17.0390092  61.3491383  75.3311485  19.1879243
  61.5258011  76.2529450  19.0000227  62.1448216  75.0169904  19.6173623
  65.4902401  62.1919749  30.7863177  66.2312115  62.7926903  30.7067639
  65.7220324  61.4497387  30.2281219  60.6343739  67.3776117  29.0641407
  60.5197255  66.4761374  29.3648506  59.7788257  67.6239813  28.7126223
  67.7135577  75.3193857  30.6628907  67.2699431  74.5330236  30.3449812
  68.3752791  75.5073008  29.9972798  62.4722698  76.8489659  25.1889586
  63.0230123  76.7206722  24.4166580  61.6334174  77.1484548  24.8384479
  69.8116815  75.5996657  28.6910308  69.7935291  76.4205538  28.1990578
  70.7336735  75.4750732  28.9160450  66.2689869  73.1140786  29.5333817
  66.8018206  72.3529075  29.3033125  65.7403950  72.8214438  30.2757971
  69.4359564  58.2200852  25.0627459  69.0923834  59.1102494  24.9866569
  69.8038527  58.0302510  24.1997044  57.5045415  70.5434383  17.8816061
  58.3420637  70.9531391  17.6649768  57.6823683  69.6033825  17.8516255
  69.4009847  68.2109463  13.5699894  68.8856471  68.9814068  13.8088281
  69.1287156  67.5374600  14.1932955  66.9856958  63.0559164  18.6285132
  66.1298554  62.6666015  18.4490771  67.3983910  63.1351125  17.7684918
  68.5156105  60.5905508  23.0276692  68.0120900  60.5535643  22.2144497
  68.8086712  61.4998250  23.0873349  64.7598991  60.6744237  22.0342874
  65.6251987  60.4787046  21.6748763  64.8276500  60.4454589  22.9612230
  74.3744121  70.9641818  15.5053067  73.5973564  70.6252978  15.0608229
  75.0535602  70.9694441  14.8308032  69.1896150  66.0836556  15.3959675
  68.8846286  66.3982705  16.2469818  70.1426592  66.1617975  15.4387008
  67.6342582  72.2426779  17.0452629  67.1063944  71.5079538  16.7325866
  67.1330085  73.0201455  16.7992597  72.6135428  70.4375799  22.1619675
  71.9559103  71.1275061  22.2499804  73.4175827  70.8272231  22.5053662
  62.3661310  62.9046445  19.4059240  62.9405062  62.6821627  18.6732433
  62.9532292  62.9735140  20.1587842  71.4240887  68.7920172  20.2123617
  71.9372769  69.4250164  20.7145327  72.0742111  68.1921368  19.8466977
  62.6930897  64.9350906  13.4255126  61.8568209  65.2725593  13.7464400
  62.5535666  64.7999886  12.4882263  64.6683977  59.7787694  18.1334310
  64.0148390  59.4636711  17.5090925  64.6264452  59.1563435  18.8594133
  65.7795182  70.0606989  10.0487602  64.8722244  69.8296243  10.2478751
  66.2766214  69.2644608  10.2361583  68.6863261  78.7704496  12.9684288
  68.0124960  79.0736193  13.5769246  69.0729083  79.5733577  12.6189745
  67.9021718  66.2669628  22.4581957  66.9844279  66.4884575  22.3003646
  68.3181861  66.3415938  21.5993665  68.6856766  67.6661043  17.5884638
  69.4328584  68.1782441  17.2791760  68.9548355  67.3445096  18.4489031
  66.9583416  70.1619584  14.5711592  66.0494635  69.8778617  14.6684062
  66.9878500  70.5818663  13.7114899  72.1902683  73.7726174  18.3402760
  71.7365010  72.9317083  18.3967950  71.5596650  74.4087572  18.6777540
  71.1335603  64.7018160  19.5703427  70.3958359  64.1895546  19.9013670
  71.3862376  64.2618541  18.7586704  70.6335622  75.6102670  19.2752578
  70.9258597  76.1707727  18.5564943  71.1434243  75.9031231  20.0305737
  71.2347230  57.4794412  20.1645196  71.5406107  56.6191775  19.8771111
  71.9599835  58.0712032  19.9644190  57.5271586  67.8825098  18.5526794
  57.3295986  67.2894459  17.8277861  56.9718250  67.5777308  19.2702733
  65.5068310  67.7748205  20.6721387  65.5616920  66.8222041  20.5963864
  64.6959512  67.9307644  21.1562686  66.6559504  71.7028328  11.9099671
  66.2178933  70.9864187  11.4505308  67.3969944  71.9304443  11.3484762
  63.4460670  66.3925264  18.4311766  62.6328535  66.6919435  18.8376958
  63.9419664  65.9980953  19.1486248  65.5969248  76.3883021  20.3646031
  65.5545426  76.6143868  19.4354563  66.5131946  76.1546396  20.5131832
  69.0434881  66.8567089  27.2626660  69.3984269  67.0838562  28.1221126
  69.6907013  67.1885466  26.6403915  74.7732618  69.9785525  17.9675989
  74.6350517  70.1687121  17.0397178  74.4168837  70.7404908  18.4244040
  62.9374744  63.9643620  24.0473001  63.5774124  63.8232379  23.3495964
  62.1052275  63.6778133  23.6711603  74.8001998  72.0462052  22.9787261
  75.2338505  71.9537341  23.8270315  75.5133579  72.0219552  22.3407277
  63.7135048  73.2646050  20.1607994  64.5075647  72.7696370  19.9590569
  63.0026741  72.7363913  19.7975699  68.5329893  75.6464146  24.5120361
  68.5866915  76.2155082  25.2798077  67.6644674  75.8166031  24.1474398
  60.0217812  67.4089132  16.2367746  59.0915400  67.3473588  16.4537708
  60.1175284  66.8865085  15.4404388  59.9403361  63.9343945  18.8245988
  60.2010178  64.8489278  18.7155148  60.7620533  63.4668387  18.9742601
  61.4128286  65.3481702  25.9944812  62.0851340  65.1399064  25.3457461
  60.5858073  65.1503788  25.5550045  75.6617547  72.0885752  25.5120146
  75.8553438  72.9931563  25.7579421  75.5618166  71.6293171  26.3458731
  67.3153858  61.9743643  28.0110473  66.6681773  62.6733593  27.9174950
  68.0854874  62.4079787  28.3786722  70.7232656  72.2392495  31.0861027
  70.5718163  72.0103047  30.1691110  70.7137336  73.1963097  31.0992372
  67.4917993  69.8124408  26.0707293  68.4210053  69.9635567  25.8976260
  67.0709023  69.9008429  25.2155940  66.2906324  73.8375072  23.8405831
  66.1517410  73.4693857  24.7131769  65.5020921  74.3522712  23.6689789
  66.8854476  78.9384169  15.1831367  67.0606232  78.4672212  15.9976990
  66.1987264  79.5649935  15.4112628  67.8411539  73.2156675  21.2294668
  67.5061372  73.1757445  22.1252318  67.3415485  72.5501391  20.7565079
  61.8155783  68.6224305  26.7547250  61.6775581  67.8904544  27.3558789
  62.7260707  68.5333205  26.4731437  70.7770731  70.5612709  11.5031728
  70.1599902  69.8359538  11.4064781  70.3087220  71.3222070  11.1598802
  64.4438084  68.3344264  26.2430929  65.1537703  67.6937457  26.2017548
  64.4007392  68.5857159  27.1657110  72.4324863  75.2711618  29.1637509
  72.3737409  74.5870838  28.4968092  72.8344381  76.0130608  28.7118134
  63.1567018  65.3209482  28.0626569  62.6204375  64.8700221  28.7148165
  62.5683727  65.4555391  27.3197033  61.4515562  82.0873532  21.9571227
  61.6912160  82.7192056  22.6350246  60.6084758  81.7361572  22.2436587
  62.5669277  64.7798134  10.6253032  61.6898743  64.6586934  10.2615279
  63.0427030  63.9884212  10.3731921  72.4342270  73.2351202  27.3951488
  71.5469049  72.8977123  27.5177887  73.0040821  72.5034233  27.6320254
  54.0871417  69.5675293  20.7194540  54.7742457  69.2537023  20.1315555
  53.9319546  70.4716658  20.4461791  58.8906139  64.4565490  25.1479563
  58.8064328  63.8491159  24.4129973  58.0688846  64.9474508  25.1489060
  65.9643423  77.8952654  24.3612731  65.8913595  78.7007625  24.8732036
  65.5220817  78.0944620  23.5360753  65.7533203  77.1324424  17.8715553
  64.9700725  77.6746104  17.9653777  66.4525948  77.6498404  18.2709794
  69.0629853  62.9419053  20.5149758  69.5598553  62.1889016  20.1950829
  68.2916835  62.9783370  19.9492968  76.9159611  68.6459419  22.1568050
  76.9049487  69.5284134  21.7861983  76.0476990  68.2930970  21.9622587
  68.4242107  77.7939488  26.5170890  69.1370079  78.4286953  26.4446792
  67.9332136  77.8903354  25.7010892  70.1459634  71.6990741  18.0888182
  69.2115913  71.8192203  17.9192886  70.3236302  70.7963207  17.8248192
  65.6464822  65.0836436  20.2421443  65.2762609  64.5307477  20.9302348
  66.1423914  64.4794570  19.6896443  73.5332185  67.5408060  18.6238216
  73.9992637  68.3736052  18.5498519  73.9839686  67.0753042  19.3283474
  63.4754021  75.5433931  27.3376461  64.1763480  76.1770414  27.4905855
  63.0049136  75.8848663  26.5772100  71.6008416  73.8851881  15.6224368
  71.8768260  73.7708476  16.5318242  70.7312915  73.4869366  15.5836541
  71.5048848  59.9088647  22.6629117  70.5911928  60.1392874  22.8311324
  71.9341949  59.9927091  23.5143150  71.2755306  68.0978539  25.1629011
  70.6226757  68.3454446  24.5081464  71.6535686  67.2842677  24.8291489
  68.2362480  78.1338232  19.2657182  68.4184875  77.3159888  19.7284934
  69.0595466  78.3505924  18.8282072  68.5704646  77.0606417  16.5272230
  69.0992412  76.5498872  15.9142392  68.8332865  76.7448947  17.3917763
  67.3242880  68.8398350  31.6495048  66.6483517  68.7392479  32.3197424
  68.1470513  68.6837564  32.1131046  59.0721739  75.0770287  24.2707564
  59.6575175  74.3313974  24.4035468  58.8746577  75.3874243  25.1544227
  61.9260394  78.1121534  19.2870006  61.2570769  78.5967662  18.8034046
  61.7873263  78.3590754  20.2013384  53.6639393  67.6475887  22.9912007
  53.7023493  67.1139477  23.7849125  53.1579686  67.1211092  22.3722984
  66.0665662  80.1465277  25.8852664  66.6183970  80.3096899  26.6501750
  66.4071856  80.7369715  25.2132689  61.0430156  62.4940427  26.4874549
  61.1071482  63.3555258  26.0751947  60.9797276  61.8814429  25.7546908
  60.5182428  64.5663560  30.1347583  61.1454467  64.1840637  30.7485108
  59.6610347  64.3477762  30.5003276  70.9176537  74.9726535  31.7401319
  71.4616441  75.5856493  31.2456274  70.3363382  75.5306113  32.2568332
  57.2947971  66.3739989  16.0665938  57.5901412  65.4650667  16.0132992
  56.3936007  66.3527728  15.7446940  69.2034050  78.0947253  22.8716346
  69.0785189  77.2936993  22.3627292  69.8613141  78.5893446  22.3830316
  60.8242218  64.4495985  22.0493487  60.1028804  65.0631953  21.9100960
  61.6135474  64.9853750  21.9710133  71.2668958  75.8956273  24.4995897
  70.3199294  75.7761624  24.4274223  71.6151731  75.0078771  24.5822158
  63.6268531  61.7850412  28.3234138  64.1502933  62.0312709  29.0860448
  63.4080865  62.6170447  27.9037276  59.0235812  64.0554087  16.1905263
  58.6948519  63.1751465  16.0080369  59.3775183  64.0001755  17.0781652
  68.2715391  75.6908989  20.7000249  68.1240354  74.7625697  20.8807819
  69.0968885  75.7129080  20.2157324  62.1377636  64.3427056  16.5580741
  62.4773708  64.8712978  15.8359349  62.5849756  64.6807462  17.3339307
  71.8749513  76.5137548  21.7865122  72.7996061  76.3080409  21.6489573
  71.7064817  76.2653949  22.6954463  64.8321076  62.7264107  26.0083809
  64.4917897  61.9271920  26.4104489  64.1260083  63.0265818  25.4360642
  65.4837548  59.8113419  24.4611132  66.3063618  59.3373898  24.3390022
  65.7275612  60.5903903  24.9609818  64.1245783  62.8401678  14.7574034
  64.8454145  63.2182931  14.2537751  63.5011087  63.5590555  14.8609012
  68.2676906  63.5446827  15.6932366  68.4840520  64.4271465  15.3921194
  67.7870973  63.1533040  14.9638008  63.0076127  66.5032540  22.2703111
  62.8620708  66.8172843  23.1627392  62.5301331  67.1217440  21.7174009
  64.8672510  63.4935088  22.3184000  64.8534079  62.5976181  21.9816298
  65.5844938  63.5005752  22.9522286  66.7198641  63.9272428  24.3637128
  66.4616418  64.8489499  24.3621458  66.1883681  63.5302863  25.0537592
  71.6644829  77.0323215  17.1427213  71.8381707  76.4669638  16.3901065
  72.1573721  77.8324110  16.9606703  57.4821789  69.0437885  25.2090772
  56.9375257  69.8197692  25.3411046  58.3601139  69.3908689  25.0509893
  64.2709406  62.3749468  17.5871570  64.3925317  61.4466115  17.7862458
  63.9811448  62.3888154  16.6749886  67.1400596  60.0604379  20.7238290
  67.1622293  60.1243712  19.7690270  67.5568655  59.2208887  20.9178796
  77.5184221  69.7959638  18.7617513  77.9615367  69.0466964  18.3636636
  76.6410731  69.7869775  18.3791245  72.6520002  76.3489980  14.2424111
  73.3470907  76.9696673  14.4611426  72.9943152  75.4985331  14.5176489
  58.2687811  68.1707781  28.1020929  57.5269547  68.3190416  28.6885559
  57.9480555  68.4316046  27.2387678  74.5511425  73.7989685  15.7711442
  75.0762749  74.1376958  15.0460762  74.4633778  72.8636701  15.5874577
  66.2131474  77.7123759  27.9001319  66.5218600  77.4672906  28.7724018
  67.0106956  77.9170397  27.4120189  66.2352086  79.8661669  20.1306695
  65.7957076  79.3738047  20.8239552  66.9860203  79.3234636  19.8898770
  58.7144425  76.0573210  20.1331323  59.5402445  75.7576981  19.7529967
  58.3638477  75.2880832  20.5821112  63.6825958  75.4099678  22.2028997
  63.0605967  74.7470383  21.9031225  64.3530825  75.4360810  21.5202645
  56.9153030  73.9759536  21.0920257  56.0784938  73.5481710  20.9104258
  56.8876675  74.1691979  22.0291048  63.7550485  63.8881466  31.7961503
  63.8038641  64.7643589  31.4139273  64.2973000  63.3458859  31.2233146
  74.2405331  74.4322589  31.0762640  73.4500875  74.4146728  30.5367139
  74.0038686  74.9710883  31.8311677  63.2439465  73.9603601  15.6787457
  63.3927585  74.6439065  15.0254130  64.0505908  73.9408691  16.1936913
  71.6506969  67.2645983  29.7054675  72.5516831  67.1252448  29.4138673
  71.7254943  67.4300438  30.6452853  65.9849774  64.6412838  28.5507862
  65.1153083  64.9346404  28.2790450  66.2209254  65.2253283  29.2715125
  75.8621403  73.7011997  28.6337390  75.5706211  74.0641977  29.4700851
  75.2493534  72.9879005  28.4550722  77.0617085  71.2664877  21.1539960
  77.8963977  71.7054681  21.3177521  77.1976214  70.7903530  20.3348206
  74.1108591  68.8244612  27.1017448  74.5862713  69.0172258  26.2936299
  73.1874157  68.8803797  26.8560832  60.9992098  69.9868779  16.6848526
  60.7538140  69.0831109  16.8828736  61.1688012  69.9885929  15.7428004
  68.6888808  60.8592455  26.0673282  69.2070752  61.5953482  25.7419771
  68.3343940  61.1656448  26.9020041  60.2687745  65.7197136  14.1834688
  59.5756990  65.7941491  13.5274724  60.0239497  64.9557480  14.7056205
  68.9401402  57.2792738  21.5874179  69.2203156  56.6115927  22.2134605
  69.7252009  57.4721833  21.0748842  66.7434870  76.4551732  13.1499205
  66.1708837  77.0741919  12.6969677  67.3167664  77.0051093  13.6839127
  72.8110260  65.7010372  25.3345754  73.7627683  65.8008469  25.3557978
  72.6413711  64.9088640  25.8443838  70.8324640  62.7865955  25.5205155
  70.2374572  63.0670968  24.8251643  70.5474336  63.2759856  26.2921896
  69.9632130  76.7388882  14.2807787  70.8962803  76.6734443  14.4840663
  69.8755343  77.5745149  13.8222320  72.5920147  76.0554752  11.2411735
  72.5133778  75.7214616  12.1347493  73.4129814  76.5476520  11.2403207
  75.2898338  68.9216491  24.4488053  75.2574658  67.9832492  24.6347737
  75.8998962  69.0000528  23.7153878  67.1281669  67.7912544  10.4915257
  68.0740774  67.6618752  10.5603675  66.7495914  67.0527206  10.9684686
  75.4392826  65.7127535  24.4946336  74.9231875  64.9285991  24.3076265
  76.3232775  65.3846251  24.6592856  73.1003553  59.4568550  20.4542149
  72.9028375  59.1483638  21.3385481  73.7103259  60.1830189  20.5840079
  81.1074888  69.9832498  23.5894090  81.8378276  69.7217786  24.1501793
  80.4981833  69.2461220  23.6296158  79.1890185  68.1240361  24.1868541
  78.4623349  67.9896326  23.5785033  78.7737472  68.4317189  24.9925259
  67.0120361  71.8430290  31.9515914  67.9323371  72.0208889  32.1455961
  66.9769944  70.8986336  31.7995614  65.3124586  65.7162521  10.4270143
  64.4056041  65.4195633  10.5032856  65.5900567  65.4192339   9.5604429
  56.2302526  67.0368884  20.8769189  55.9105311  66.1834192  20.5843563
  55.6835955  67.2517462  21.6327156  60.0082434  69.7531325  24.5938695
  60.2268444  70.6848433  24.6126729  60.4208208  69.3939299  25.3793499
  66.9286652  60.2599410  16.5814384  66.1187380  59.9146495  16.9569630
  67.6171069  59.9506954  17.1701995  68.8577200  59.3377457  18.2038681
  69.4108239  59.7572911  18.8628704  69.0947286  58.4113205  18.2461637
  64.8810299  65.3264531  33.9841444  64.7807026  66.2758888  33.9153536
  64.6631841  64.9982770  33.1117515  64.0823371  62.5749456  10.5682122
  64.9442535  62.9004354  10.8277939  64.2673715  61.7880952  10.0555188
  56.0990786  70.6571796  22.8462311  55.4054258  70.2425748  22.3332265
  56.8463777  70.6992332  22.2495729  72.2356007  61.4477982  17.7117345
  71.6554676  62.1062786  17.3295397  71.9691940  60.6255327  17.3004762
  70.6859573  60.8483040  19.9138665  71.1859352  60.9599575  19.1052984
  71.3295181  60.5444093  20.5539474  64.7441569  68.7561670  32.8006506
  64.2608651  69.5562030  33.0070395  64.8302508  68.7669615  31.8473950
  58.0127529  70.5890049  20.7228325  57.9898217  70.6877737  19.7710209
  58.3228165  71.4355200  21.0445492  60.6714907  72.6466204  24.8374940
  61.6258160  72.6150147  24.7704871  60.4727430  72.1856828  25.6525166
  61.2614289  71.2167320  27.4045738  62.0807178  71.7111399  27.4280575
  61.5351097  70.2999289  27.3763305  71.0180885  63.6078073  16.7673693
  70.1306740  63.8927723  16.5493888  71.4334874  63.4471836  15.9200970
  74.3695421  63.6324594  20.4828032  75.1455811  64.1221046  20.7552649
  73.6443555  64.0582648  20.9399902  76.8067980  64.3452213  21.5401973
  77.4012471  64.1047949  20.8295281  76.8794564  63.6259344  22.1675509
  59.0265136  78.1885824  21.8545138  58.8919603  77.4286225  21.2883136
  58.6097198  78.9126724  21.3873927  70.1624099  73.3722747  10.8621713
  70.8659949  73.5772750  11.4779369  69.4386747  73.9399509  11.1270797
  70.9921909  69.1232609  16.9823983  70.9357110  69.5801160  16.1431616
  71.5450251  68.3623293  16.8046826  74.8026715  64.9122341  17.8074103
  74.5463649  64.5118976  18.6382310  74.1779583  65.6266134  17.6824242
  79.1139053  67.6518414  20.3145394  78.5538611  67.7211603  21.0876956
  78.5082556  67.4759398  19.5944890  62.1834261  79.0855141  22.0663580
  62.0666646  80.0300573  21.9642271  61.3626708  78.7828702  22.4549380
  72.0710796  73.8105277  12.9120173  72.9056400  73.3786475  12.7297648
  71.9095139  73.6387290  13.8397068  71.7256688  70.3137390  14.2776512
  71.6705492  70.1481661  13.3364956  71.1002743  71.0213423  14.4338702
  56.5149203  65.5505454  28.1037935  57.1608067  65.0404408  28.5925160
  56.3066354  66.2874136  28.6781360  69.0402595  72.6186302  33.6030075
  69.9093755  72.7926954  33.2416710  68.5609347  73.4380719  33.4805804
  65.0352814  59.8145499  13.8561831  65.0231483  60.7587339  14.0130102
  65.9276235  59.6315644  13.5621292  63.2088776  79.7383403  25.2819509
  64.1116022  79.7707013  25.5986004  62.9826146  78.8083854  25.2965845
  64.9642378  78.4914389  21.9429587  64.0138009  78.4916251  21.8293960
  65.2674864  77.7447124  21.4265622  68.8504933  56.4088276  18.1107768
  68.0837329  55.8546762  18.2564450  69.2615638  56.4810144  18.9721919
  60.8546694  62.6973071  32.2012949  61.7178156  62.3409876  32.4116273
  60.2812105  62.3586966  32.8888353  80.6995071  84.3274928  23.0075350
  81.3373481  84.2081675  22.3038690  80.5815914  85.2755772  23.0663302
  77.5084777  84.2802356  22.9436875  77.1703289  84.1643421  22.0557409
  78.3774546  83.8793521  22.9237881  73.3671593  86.1337832  18.9333765
  72.8036458  86.0427769  18.1650053  73.2523988  85.3137737  19.4136258
  77.9904560  85.4337208  28.9023080  77.9793201  85.0390006  28.0303584
  78.1525200  84.7003280  29.4956851  70.9136025  87.6289024  21.7717986
  71.7057317  87.2879848  21.3564285  71.1532675  87.7383999  22.6920139
  78.9471152  89.8008800  14.2448230  78.2959132  90.3862880  13.8582244
  79.7415515  90.3314995  14.3043268  72.8726779  86.8897937  14.6435365
  73.6457655  86.3426924  14.5048241  73.2252178  87.7542186  14.8549826
  74.7111821  88.2174319  27.8502264  74.4201687  89.1219950  27.7348930
  75.3468806  88.2590847  28.5646334  75.6368028  85.5951168  24.4403624
  76.2331601  85.3707190  23.7260587  75.6943000  84.8535913  25.0429072
  75.2093057  83.0490603  12.2753815  75.4618577  82.5272124  11.5137278
  74.2717616  82.8856749  12.3780498  80.2536340  82.0526382  20.0828558
  81.0399429  81.6345805  19.7318975  80.5175044  82.9572474  20.2510206
  80.4246417  87.4899232  14.7817215  79.7892250  87.5633858  15.4938119
  80.0943823  88.0792831  14.1036294  85.6544767  81.9901615  20.9861536
  86.3869939  81.4200832  21.2199366  84.8984122  81.6023215  21.4268042
  74.9289345  84.9518709  14.4778190  74.8125604  84.2763613  15.1459274
  75.0391605  84.4651083  13.6610343  77.2720886  84.4128856  18.1824879
  76.9079094  83.8859477  18.8937800  78.1288002  84.0227325  18.0091364
  83.1770187  75.7023189  25.4456145  82.8453512  76.5718600  25.2217360
  82.5815800  75.3859473  26.1250175  76.9126373  79.4418756  13.1786227
  77.0800776  80.3098992  13.5456698  76.7223542  79.6046038  12.2547517
  79.6701707  87.9035735  24.8452058  79.3702430  88.8060774  24.7367865
  79.3252766  87.6367918  25.6973211  73.1214188  84.3549532  20.8788762
  72.1964685  84.2225746  21.0866454  73.3698601  85.1343751  21.3758705
  83.0698850  80.4218275  22.5249495  82.1615728  80.3533683  22.2308256
  83.0186446  80.8990220  23.3531321  76.8915594  81.8976413  14.1632894
  76.7715219  82.3433464  15.0018374  76.1968183  82.2461731  13.6046432
  70.4822999  83.9982805  21.7132551  70.6115380  84.2517284  22.6271963
  69.8020450  84.5910513  21.3937206  74.6522486  94.6680055  17.8123025
  74.5746516  95.6187880  17.8911506  74.0484130  94.3225928  18.4697952
  77.1439716  81.8407921  30.4684392  76.3673050  82.4001841  30.4587257
  77.7830279  82.3264704  30.9899262  84.9360497  78.6234713  24.3027369
  84.2934877  78.9167247  23.6567164  84.4315425  78.5087634  25.1080566
  82.5900660  82.3697887  14.9913228  83.5018517  82.6025273  14.8160926
  82.0810307  82.9534931  14.4288307  75.3986088  84.6493374  30.0302359
  76.1400773  85.1878418  29.7537183  74.6923074  85.2759663  30.1873911
  80.8741428  86.7922514  28.6274521  81.2824784  86.3504925  27.8829153
  80.1518690  86.2175142  28.8808714  77.2272498  81.7295121  26.0008078
  78.0733693  82.1534535  26.1442727  77.1671136  81.0728746  26.6946641
  81.1970243  87.3523705  22.3826810  80.5679105  87.5169419  21.6802878
  80.8095905  87.7665315  23.1537774  85.0759475  88.2878143  19.7371173
  84.3910513  88.6677044  19.1868207  85.1603324  88.8973470  20.4703121
  80.3771943  79.3899490  27.6589251  80.1332875  80.1441550  27.1223527
  80.6531874  79.7684837  28.4936498  82.3310406  85.9338102  26.3366517
  82.5427301  86.5769862  25.6600898  82.2840154  85.1000419  25.8688447
  79.9336635  78.5455923  23.2403089  79.0721114  78.8437176  23.5319827
  79.9599070  78.7626322  22.3084122  76.7498205  87.0898113  19.6476895
  77.2136550  87.3685816  18.8581517  76.4855003  86.1881558  19.4649985
  73.6422286  86.6369595  22.5856658  74.2123643  87.0656863  21.9474143
  74.2330398  86.3552179  23.2840844  75.6867091  83.2121266  16.4566460
  76.3891134  83.6642309  16.9240386  75.3547719  82.5705084  17.0846353
  74.1347452  81.8033022  30.8317669  73.5046113  82.4849303  31.0653066
  74.0283540  81.6916104  29.8870808  69.4292425  81.4704818  21.7583593
  68.6391479  81.7262347  21.2823704  69.9203672  82.2853156  21.8635634
  83.4456234  88.8110057  24.5088874  84.2673678  88.4090245  24.2271556
  83.4418637  88.7078292  25.4604990  71.3807170  81.8349397  18.7167070
  70.5838333  81.9468092  19.2350566  71.1532762  82.1736050  17.8507961
  77.2112838  88.3594101  26.6649585  77.2757270  88.8214508  27.5007757
  76.5023762  87.7291466  26.7931895  67.7130128  81.7235309  24.1898584
  67.9638166  82.6082319  24.4556160  68.2489676  81.5439910  23.4173676
  91.5362227  85.1548806  20.8573846  90.7825936  84.5856204  20.7017850
  91.6709768  85.1211470  21.8044480  76.9260855  90.0262208  16.5328565
  76.7906530  90.8713744  16.9613413  77.4670668  90.2281486  15.7694499
  73.4128195  76.1053788  33.1942920  73.0195140  75.5519987  33.8690565
  74.2294335  76.4164366  33.5849438  70.3790253  87.5437646  17.1056490
  70.8914773  88.3380896  17.2562055  71.0312966  86.8463937  17.0390092
  72.1885137  90.6603402  19.1879243  72.3651766  91.5821367  19.0000227
  72.9841971  90.3461822  19.6173623  76.3296156  77.5211667  30.7863177
  77.0705869  78.1218820  30.7067639  76.5614079  76.7789305  30.2281219
  71.4737494  82.7068034  29.0641407  71.3591009  81.8053292  29.3648506
  70.6182012  82.9531731  28.7126223  78.5529332  90.6485775  30.6628907
  78.1093186  89.8622153  30.3449812  79.2146545  90.8364925  29.9972798
  73.3116453  92.1781576  25.1889586  73.8623878  92.0498640  24.4166580
  72.4727929  92.4776465  24.8384479  80.6510570  90.9288575  28.6910308
  80.6329045  91.7497456  28.1990578  81.5730490  90.8042650  28.9160450
  77.1083624  88.4432704  29.5333817  77.6411961  87.6820992  29.3033125
  76.5797705  88.1506356  30.2757971  80.2753319  73.5492770  25.0627459
  79.9317588  74.4394412  24.9866569  80.6432281  73.3594428  24.1997044
  68.3439169  85.8726301  17.8816061  69.1814391  86.2823309  17.6649768
  68.5217437  84.9325743  17.8516255  80.2403602  83.5401381  13.5699894
  79.7250225  84.3105986  13.8088281  79.9680910  82.8666517  14.1932955
  77.8250713  78.3851082  18.6285132  76.9692309  77.9957932  18.4490771
  78.2377664  78.4643043  17.7684918  79.3549859  75.9197425  23.0276692
  78.8514655  75.8827560  22.2144497  79.6480466  76.8290168  23.0873349
  75.5992745  76.0036155  22.0342874  76.4645742  75.8078964  21.6748763
  75.6670254  75.7746507  22.9612230  85.2137876  86.2933736  15.5053067
  84.4367318  85.9544895  15.0608229  85.8929357  86.2986359  14.8308032
  80.0289905  81.4128473  15.3959675  79.7240040  81.7274622  16.2469818
  80.9820347  81.4909893  15.4387008  78.4736337  87.5718697  17.0452629
  77.9457698  86.8371456  16.7325866  77.9723839  88.3493373  16.7992597
  83.4529183  85.7667717  22.1619675  82.7952857  86.4566978  22.2499804
  84.2569582  86.1564149  22.5053662  73.2055064  78.2338363  19.4059240
  73.7798816  78.0113544  18.6732433  73.7926047  78.3027057  20.1587842
  82.2634641  84.1212090  20.2123617  82.7766523  84.7542082  20.7145327
  82.9135865  83.5213285  19.8466977  73.5324651  80.2642824  13.4255126
  72.6961964  80.6017510  13.7464400  73.3929421  80.1291804  12.4882263
  75.5077732  75.1079612  18.1334310  74.8542144  74.7928629  17.5090925
  75.4658206  74.4855352  18.8594133  76.6188937  85.3898907  10.0487602
  75.7115999  85.1588160  10.2478751  77.1159969  84.5936526  10.2361583
  78.7415472  81.5961545  22.4581957  77.8238034  81.8176492  22.3003646
  79.1575616  81.6707856  21.5993665  79.5250520  82.9952961  17.5884638
  80.2722339  83.5074358  17.2791760  79.7942110  82.6737014  18.4489031
  77.7977170  85.4911502  14.5711592  76.8888389  85.2070535  14.6684062
  77.8272254  85.9110580  13.7114899  83.0296438  89.1018091  18.3402760
  82.5758765  88.2609001  18.3967950  82.3990404  89.7379490  18.6777540
  81.9729357  80.0310077  19.5703427  81.2352114  79.5187463  19.9013670
  82.2256131  79.5910459  18.7586704  81.4729377  90.9394588  19.2752578
  81.7652351  91.4999645  18.5564943  81.9827997  91.2323149  20.0305737
  82.0740985  72.8086329  20.1645196  82.3799861  71.9483693  19.8771111
  82.7993589  73.4003949  19.9644190  68.3665341  83.2117016  18.5526794
  68.1689740  82.6186377  17.8277861  67.8112005  82.9069226  19.2702733
  76.3462064  83.1040122  20.6721387  76.4010674  82.1513959  20.5963864
  75.5353266  83.2599561  21.1562686  77.4953258  87.0320245  11.9099671
  77.0572688  86.3156104  11.4505308  78.2363699  87.2596360  11.3484762
  74.2854424  81.7217182  18.4311766  73.4722290  82.0211353  18.8376958
  74.7813418  81.3272871  19.1486248  76.4363002  91.7174939  20.3646031
  76.3939181  91.9435785  19.4354563  77.3525701  91.4838314  20.5131832
  79.8828636  82.1859007  27.2626660  80.2378024  82.4130480  28.1221126
  80.5300767  82.5177383  26.6403915  85.6126373  85.3077442  17.9675989
  85.4744271  85.4979038  17.0397178  85.2562592  86.0696825  18.4244040
  73.7768499  79.2935538  24.0473001  74.4167878  79.1524297  23.3495964
  72.9446029  79.0070051  23.6711603  85.6395752  87.3753969  22.9787261
  86.0732259  87.2829259  23.8270315  86.3527333  87.3511470  22.3407277
  74.5528803  88.5937968  20.1607994  75.3469401  88.0988288  19.9590569
  73.8420495  88.0655831  19.7975699  79.3723647  90.9756064  24.5120361
  79.4260670  91.5447000  25.2798077  78.5038429  91.1457949  24.1474398
  70.8611566  82.7381050  16.2367746  69.9309154  82.6765505  16.4537708
  70.9569038  82.2157002  15.4404388  70.7797115  79.2635863  18.8245988
  71.0403933  80.1781196  18.7155148  71.6014288  78.7960305  18.9742601
  72.2522041  80.6773620  25.9944812  72.9245094  80.4690982  25.3457461
  71.4251827  80.4795706  25.5550045  86.5011302  87.4177670  25.5120146
  86.6947192  88.3223481  25.7579421  86.4011920  86.9585089  26.3458731
  78.1547613  77.3035561  28.0110473  77.5075528  78.0025510  27.9174950
  78.9248628  77.7371705  28.3786722  81.5626411  87.5684413  31.0861027
  81.4111917  87.3394965  30.1691110  81.5531090  88.5255014  31.0992372
  78.3311747  85.1416326  26.0707293  79.2603807  85.2927485  25.8976260
  77.9102777  85.2300346  25.2155940  77.1300079  89.1666990  23.8405831
  76.9911165  88.7985774  24.7131769  76.3414675  89.6814629  23.6689789
  77.7248231  94.2676086  15.1831367  77.8999986  93.7964130  15.9976990
  77.0381019  94.8941853  15.4112628  78.6805294  88.5448593  21.2294668
  78.3455127  88.5049363  22.1252318  78.1809240  87.8793309  20.7565079
  72.6549538  83.9516223  26.7547250  72.5169336  83.2196462  27.3558789
  73.5654461  83.8625123  26.4731437  81.6164486  85.8904627  11.5031728
  80.9993656  85.1651455  11.4064781  81.1480974  86.6513987  11.1598802
  75.2831839  83.6636182  26.2430929  75.9931457  83.0229374  26.2017548
  75.2401147  83.9149077  27.1657110  83.2718617  90.6003535  29.1637509
  83.2131163  89.9162756  28.4968092  83.6738136  91.3422525  28.7118134
  73.9960773  80.6501400  28.0626569  73.4598130  80.1992138  28.7148165
  73.4077481  80.7847309  27.3197033  72.2909316  97.4165449  21.9571227
  72.5305914  98.0483973  22.6350246  71.4478513  97.0653489  22.2436587
  73.4063032  80.1090051  10.6253032  72.5292498  79.9878852  10.2615279
  73.8820785  79.3176130  10.3731921  83.2736025  88.5643119  27.3951488
  82.3862803  88.2269041  27.5177887  83.8434576  87.8326151  27.6320254
  64.9265172  84.8967211  20.7194540  65.6136212  84.5828941  20.1315555
  64.7713300  85.8008576  20.4461791  69.7299894  79.7857408  25.1479563
  69.6458083  79.1783077  24.4129973  68.9082600  80.2766426  25.1489060
  76.8037178  93.2244572  24.3612731  76.7307349  94.0299543  24.8732036
  76.3614571  93.4236537  23.5360753  76.5926958  92.4616342  17.8715553
  75.8094479  93.0038022  17.9653777  77.2919703  92.9790321  18.2709794
  79.9023608  78.2710971  20.5149758  80.3992307  77.5180933  20.1950829
  79.1310589  78.3075288  19.9492968  87.7553365  83.9751337  22.1568050
  87.7443241  84.8576052  21.7861983  86.8870745  83.6222888  21.9622587
  79.2635861  93.1231406  26.5170890  79.9763834  93.7578871  26.4446792
  78.7725890  93.2195272  25.7010892  80.9853388  87.0282658  18.0888182
  80.0509667  87.1484121  17.9192886  81.1630057  86.1255125  17.8248192
  76.4858576  80.4128354  20.2421443  76.1156364  79.8599395  20.9302348
  76.9817669  79.8086488  19.6896443  84.3725940  82.8699978  18.6238216
  84.8386392  83.7027969  18.5498519  84.8233440  82.4044959  19.3283474
  74.3147775  90.8725849  27.3376461  75.0157234  91.5062332  27.4905855
  73.8442890  91.2140581  26.5772100  82.4402171  89.2143799  15.6224368
  82.7162015  89.1000394  16.5318242  81.5706670  88.8161284  15.5836541
  82.3442602  75.2380565  22.6629117  81.4305682  75.4684791  22.8311324
  82.7735704  75.3219009  23.5143150  82.1149061  83.4270457  25.1629011
  81.4620511  83.6746364  24.5081464  82.4929441  82.6134595  24.8291489
  79.0756235  93.4630150  19.2657182  79.2578629  92.6451806  19.7284934
  79.8989221  93.6797842  18.8282072  79.4098400  92.3898335  16.5272230
  79.9386167  91.8790789  15.9142392  79.6726620  92.0740865  17.3917763
  78.1636634  84.1690268  31.6495048  77.4877271  84.0684397  32.3197424
  78.9864268  84.0129481  32.1131046  69.9115493  90.4062204  24.2707564
  70.4968930  89.6605892  24.4035468  69.7140332  90.7166161  25.1544227
  72.7654148  93.4413452  19.2870006  72.0964524  93.9259579  18.8034046
  72.6267018  93.6882672  20.2013384  64.5033148  82.9767804  22.9912007
  64.5417247  82.4431395  23.7849125  63.9973441  82.4503010  22.3722984
  76.9059417  95.4757195  25.8852664  77.4577725  95.6388817  26.6501750
  77.2465610  96.0661633  25.2132689  71.8823910  77.8232345  26.4874549
  71.9465237  78.6847176  26.0751947  71.8191030  77.2106347  25.7546908
  71.3576183  79.8955477  30.1347583  71.9848221  79.5132555  30.7485108
  70.5004101  79.6769679  30.5003276  81.7570291  90.3018453  31.7401319
  82.3010195  90.9148411  31.2456274  81.1757136  90.8598031  32.2568332
  68.1341725  81.7031907  16.0665938  68.4295166  80.7942585  16.0132992
  67.2329761  81.6819646  15.7446940  80.0427804  93.4239171  22.8716346
  79.9178944  92.6228910  22.3627292  80.7006895  93.9185364  22.3830316
  71.6635972  79.7787903  22.0493487  70.9422558  80.3923871  21.9100960
  72.4529228  80.3145668  21.9710133  82.1062713  91.2248191  24.4995897
  81.1593048  91.1053542  24.4274223  82.4545486  90.3370689  24.5822158
  74.4662286  77.1142330  28.3234138  74.9896688  77.3604626  29.0860448
  74.2474619  77.9462364  27.9037276  69.8629567  79.3846004  16.1905263
  69.5342273  78.5043383  16.0080369  70.2168938  79.3293673  17.0781652
  79.1109146  91.0200907  20.7000249  78.9634108  90.0917614  20.8807819
  79.9362639  91.0420998  20.2157324  72.9771390  79.6718974  16.5580741
  73.3167463  80.2004895  15.8359349  73.4243511  80.0099380  17.3339307
  82.7143268  91.8429466  21.7865122  83.6389815  91.6372327  21.6489573
  82.5458571  91.5945867  22.6954463  75.6714831  78.0556025  26.0083809
  75.3311651  77.2563838  26.4104489  74.9653837  78.3557736  25.4360642
  76.3231303  75.1405337  24.4611132  77.1457372  74.6665815  24.3390022
  76.5669366  75.9195821  24.9609818  74.9639537  78.1693596  14.7574034
  75.6847900  78.5474848  14.2537751  74.3404841  78.8882472  14.8609012
  79.1070660  78.8738745  15.6932366  79.3234275  79.7563382  15.3921194
  78.6264727  78.4824958  14.9638008  73.8469882  81.8324458  22.2703111
  73.7014462  82.1464761  23.1627392  73.3695085  82.4509358  21.7174009
  75.7066264  78.8227006  22.3184000  75.6927833  77.9268099  21.9816298
  76.4238693  78.8297670  22.9522286  77.5592395  79.2564346  24.3637128
  77.3010173  80.1781417  24.3621458  77.0277436  78.8594781  25.0537592
  82.5038584  92.3615133  17.1427213  82.6775461  91.7961556  16.3901065
  82.9967475  93.1616028  16.9606703  68.3215544  84.3729802  25.2090772
  67.7769012  85.1489610  25.3411046  69.1994894  84.7200607  25.0509893
  75.1103160  77.7041386  17.5871570  75.2319072  76.7758032  17.7862458
  74.8205203  77.7180072  16.6749886  77.9794351  75.3896297  20.7238290
  78.0016048  75.4535630  19.7690270  78.3962410  74.5500805  20.9178796
  88.3577975  85.1251556  18.7617513  88.8009121  84.3758881  18.3636636
  87.4804485  85.1161692  18.3791245  83.4913756  91.6781898  14.2424111
  84.1864661  92.2988590  14.4611426  83.8336907  90.8277249  14.5176489
  69.1081566  83.4999698  28.1020929  68.3663302  83.6482334  28.6885559
  68.7874310  83.7607964  27.2387678  85.3905179  89.1281603  15.7711442
  85.9156504  89.4668876  15.0460762  85.3027532  88.1928618  15.5874577
  77.0525228  93.0415677  27.9001319  77.3612355  92.7964823  28.7724018
  77.8500710  93.2462315  27.4120189  77.0745840  95.1953586  20.1306695
  76.6350831  94.7029965  20.8239552  77.8253957  94.6526554  19.8898770
  69.5538179  91.3865127  20.1331323  70.3796199  91.0868899  19.7529967
  69.2032231  90.6172750  20.5821112  74.5219712  90.7391595  22.2028997
  73.8999722  90.0762300  21.9031225  75.1924579  90.7652727  21.5202645
  67.7546784  89.3051454  21.0920257  66.9178693  88.8773628  20.9104258
  67.7270430  89.4983897  22.0291048  74.5944240  79.2173383  31.7961503
  74.6432395  80.0935506  31.4139273  75.1366754  78.6750776  31.2233146
  85.0799086  89.7614507  31.0762640  84.2894629  89.7438646  30.5367139
  84.8432440  90.3002800  31.8311677  85.1996961  86.6106973  28.3895369
  85.2494966  86.4456981  29.3310891  85.0910884  85.7434232  27.9993249
  74.0833219  89.2895519  15.6787457  74.2321340  89.9730983  15.0254130
  74.8899663  89.2700609  16.1936913  82.4900723  82.5937901  29.7054675
  83.3910586  82.4544366  29.4138673  82.5648698  82.7592356  30.6452853
  76.8243528  79.9704756  28.5507862  75.9546838  80.2638322  28.2790450
  77.0603009  80.5545201  29.2715125  86.7015157  89.0303915  28.6337390
  86.4099966  89.3933895  29.4700851  86.0887289  88.3170923  28.4550722
  87.9010840  86.5956794  21.1539960  88.7357731  87.0346598  21.3177521
  88.0369969  86.1195448  20.3348206  84.9502346  84.1536529  27.1017448
  85.4256467  84.3464176  26.2936299  84.0267911  84.2095715  26.8560832
  71.8385852  85.3160696  16.6848526  71.5931894  84.4123026  16.8828736
  72.0081767  85.3177847  15.7428004  79.5282562  76.1884373  26.0673282
  80.0464506  76.9245400  25.7419771  79.1737695  76.4948366  26.9020041
  71.1081500  81.0489054  14.1834688  70.4150745  81.1233409  13.5274724
  70.8633252  80.2849398  14.7056205  79.7795156  72.6084655  21.5874179
  80.0596910  71.9407844  22.2134605  80.5645763  72.8013751  21.0748842
  77.5828625  91.7843649  13.1499205  77.0102592  92.4033836  12.6969677
  78.1561418  92.3343011  13.6839127  83.6504015  81.0302289  25.3345754
  84.6021438  81.1300387  25.3557978  83.4807465  80.2380558  25.8443838
  81.6718394  78.1157873  25.5205155  81.0768326  78.3962885  24.8251643
  81.3868091  78.6051773  26.2921896  80.8025885  92.0680799  14.2807787
  81.7356558  92.0026361  14.4840663  80.7149097  92.9037066  13.8222320
  86.1292092  84.2508409  24.4488053  86.0968413  83.3124410  24.6347737
  86.7392716  84.3292446  23.7153878  77.9675423  83.1204462  10.4915257
  78.9134528  82.9910670  10.5603675  77.5889668  82.3819124  10.9684686
  86.2786581  81.0419452  24.4946336  85.7625630  80.2577909  24.3076265
  87.1626529  80.7138169  24.6592856  83.9397308  74.7860468  20.4542149
  83.7422129  74.4775556  21.3385481  84.5497013  75.5122107  20.5840079
  91.9468642  85.3124416  23.5894090  92.6772031  85.0509704  24.1501793
  91.3375588  84.5753138  23.6296158  90.0283939  83.4532278  24.1868541
  89.3017103  83.3188243  23.5785033  89.6131226  83.7609107  24.9925259
  77.8514116  87.1722208  31.9515914  78.7717125  87.3500807  32.1455961
  77.8163699  86.2278253  31.7995614  76.1518340  81.0454438  10.4270143
  75.2449796  80.7487551  10.5032856  76.4294321  80.7484256   9.5604429
  67.0696281  82.3660802  20.8769189  66.7499065  81.5126110  20.5843563
  66.5229709  82.5809380  21.6327156  70.8476188  85.0823243  24.5938695
  71.0662198  86.0140351  24.6126729  71.2601962  84.7231217  25.3793499
  77.7680406  75.5891328  16.5814384  76.9581135  75.2438413  16.9569630
  78.4564823  75.2798872  17.1701995  79.6970954  74.6669375  18.2038681
  80.2501993  75.0864828  18.8628704  79.9341041  73.7405123  18.2461637
  75.7204054  80.6556449  33.9841444  75.6200781  81.6050805  33.9153536
  75.5025596  80.3274687  33.1117515  74.9217125  77.9041374  10.5682122
  75.7836289  78.2296272  10.8277939  75.1067469  77.1172869  10.0555188
  66.9384541  85.9863713  22.8462311  66.2448012  85.5717666  22.3332265
  67.6857532  86.0284250  22.2495729  83.0749762  76.7769900  17.7117345
  82.4948431  77.4354704  17.3295397  82.8085694  75.9547245  17.3004762
  81.5253328  76.1774958  19.9138665  82.0253106  76.2891492  19.1052984
  82.1688936  75.8736011  20.5539474  75.5835324  84.0853587  32.8006506
  75.1002405  84.8853947  33.0070395  75.6696263  84.0961532  31.8473950
  68.8521283  85.9181967  20.7228325  68.8291971  86.0169654  19.7710209
  69.1621920  86.7647118  21.0445492  71.5108661  87.9758122  24.8374940
  72.4651915  87.9442064  24.7704871  71.3121185  87.5148746  25.6525166
  72.1008043  86.5459238  27.4045738  72.9200932  87.0403317  27.4280575
  72.3744851  85.6291206  27.3763305  81.8574640  78.9369990  16.7673693
  80.9700495  79.2219641  16.5493888  82.2728629  78.7763754  15.9200970
  85.2089176  78.9616511  20.4828032  85.9849566  79.4512964  20.7552649
  84.4837310  79.3874566  20.9399902  87.6461734  79.6744131  21.5401973
  88.2406225  79.4339867  20.8295281  87.7188318  78.9551261  22.1675509
  69.8658890  93.5177742  21.8545138  69.7313358  92.7578142  21.2883136
  69.4490952  94.2418641  21.3873927  81.0017853  88.7014665  10.8621713
  81.7053703  88.9064668  11.4779369  80.2780502  89.2691427  11.1270797
  81.8315663  84.4524526  16.9823983  81.7750865  84.9093078  16.1431616
  82.3844006  83.6915211  16.8046826  85.6420469  80.2414258  17.8074103
  85.3857403  79.8410894  18.6382310  85.0173337  80.9558052  17.6824242
  89.9532807  82.9810331  20.3145394  89.3932365  83.0503521  21.0876956
  89.3476310  82.8051316  19.5944890  73.0228016  94.4147059  22.0663580
  72.9060400  95.3592491  21.9642271  72.2020462  94.1120620  22.4549380
  82.9104550  89.1397194  12.9120173  83.7450154  88.7078393  12.7297648
  82.7488893  88.9679208  13.8397068  82.5650443  85.6429308  14.2776512
  82.5099246  85.4773579  13.3364956  81.9396498  86.3505340  14.4338702
  67.3542958  80.8797372  28.1037935  68.0001821  80.3696326  28.5925160
  67.1460109  81.6166054  28.6781360  79.8796350  87.9478219  33.6030075
  80.7487509  88.1218872  33.2416710  79.4003101  88.7672636  33.4805804
  75.8746568  75.1437417  13.8561831  75.8625238  76.0879257  14.0130102
  76.7669990  74.9607562  13.5621292  74.0482530  95.0675320  25.2819509
  74.9509777  95.0998931  25.5986004  73.8219900  94.1375771  25.2965845
  75.8036132  93.8206307  21.9429587  74.8531763  93.8208169  21.8293960
  76.1068618  93.0739042  21.4265622  79.6898688  71.7380193  18.1107768
  78.9231083  71.1838680  18.2564450  80.1009393  71.8102062  18.9721919
  71.6940449  78.0264989  32.2012949  72.5571910  77.6701794  32.4116273
  71.1205859  77.6878884  32.8888353  91.5388826  99.6566845  23.0075350
  92.1767236  99.5373593  22.3038690  91.4209668 100.6047689  23.0663302
  88.3478532  99.6094273  22.9436875  88.0097043  99.4935338  22.0557409
  89.2168300  99.2085439  22.9237881  88.8298315 100.7629125  28.9023080
  88.8186956 100.3681923  28.0303584  88.9918954 100.0295198  29.4956851
  81.7529779 102.9580942  21.7717986  82.5451071 102.6171766  21.3564285
  81.9926430 103.0675917  22.6920139  85.5505576 103.5466237  27.8502264
  85.2595442 104.4511868  27.7348930  86.1862560 103.5882765  28.5646334
  86.4761783 100.9243086  24.4403624  87.0725355 100.6999108  23.7260587
  86.5336754 100.1827831  25.0429072  91.0930094  97.3818299  20.0828558
  91.8793183  96.9637722  19.7318975  91.3568798  98.2864391  20.2510206
  94.0163942  91.0315107  25.4456145  93.6847266  91.9010518  25.2217360
  93.4209555  90.7151391  26.1250175  90.5095461 103.2327653  24.8452058
  90.2096184 104.1352691  24.7367865  90.1646521 102.9659836  25.6973211
  83.9607943  99.6841449  20.8788762  83.0358439  99.5517663  21.0866454
  84.2092356 100.4635669  21.3758705  93.9092605  95.7510193  22.5249495
  93.0009482  95.6825601  22.2308256  93.8580201  96.2282138  23.3531321
  81.3216754  99.3274723  21.7132551  81.4509135  99.5809202  22.6271963
  80.6414205  99.9202431  21.3937206  87.9833471  97.1699838  30.4684392
  87.2066805  97.7293758  30.4587257  88.6224034  97.6556621  30.9899262
  95.7754251  93.9526631  24.3027369  95.1328631  94.2459164  23.6567164
  95.2709180  93.8379551  25.1080566  86.2379843  99.9785292  30.0302359
  86.9794527 100.5170336  29.7537183  85.5316828 100.6051580  30.1873911
  91.7135183 102.1214432  28.6274521  92.1218539 101.6796843  27.8829153
  90.9912444 101.5467060  28.8808714  88.0666253  97.0587039  26.0008078
  88.9127448  97.4826452  26.1442727  88.0064890  96.4020663  26.6946641
  91.2165698  94.7191407  27.6589251  90.9726630  95.4733468  27.1223527
  91.4925628  95.0976755  28.4936498  93.1704161 101.2630020  26.3366517
  93.3821056 101.9061780  25.6600898  93.1233909 100.4292336  25.8688447
  90.7730390  93.8747840  23.2403089  89.9114869  94.1729094  23.5319827
  90.7992824  94.0918239  22.3084122  84.4816040 101.9661512  22.5856658
  85.0517397 102.3948781  21.9474143  85.0724152 101.6844097  23.2840844
  84.9741207  97.1324940  30.8317669  84.3439867  97.8141221  31.0653066
  84.8677295  97.0208021  29.8870808  80.2686179  96.7996736  21.7583593
  79.4785233  97.0554264  21.2823704  80.7597426  97.6145074  21.8635634
  82.2200924  97.1641315  18.7167070  81.4232088  97.2760009  19.2350566
  81.9926517  97.5027967  17.8507961  88.0506592 103.6886018  26.6649585
  88.1151025 104.1506426  27.5007757  87.3417516 103.0583383  26.7931895
  78.5523882  97.0527226  24.1898584  78.8031921  97.9374236  24.4556160
  79.0883430  96.8731828  23.4173676  84.2521949  91.4345706  33.1942920
  83.8588895  90.8811904  33.8690565  85.0688090  91.7456284  33.5849438
  87.1689910  92.8503585  30.7863177  87.9099624  93.4510738  30.7067639
  87.4007833  92.1081223  30.2281219  82.3131248  98.0359952  29.0641407
  82.1984764  97.1345209  29.3648506  81.4575766  98.2823649  28.7126223
  89.3923086 105.9777692  30.6628907  88.9486940 105.1914071  30.3449812
  90.0540300 106.1656843  29.9972798  84.1510207 107.5073494  25.1889586
  84.7017632 107.3790557  24.4166580  83.3121683 107.8068383  24.8384479
  91.4904324 106.2580492  28.6910308  91.4722800 107.0789373  28.1990578
  92.4124244 106.1334568  28.9160450  87.9477378 103.7724622  29.5333817
  88.4805715 103.0112910  29.3033125  87.4191459 103.4798274  30.2757971
  91.1147073  88.8784688  25.0627459  90.7711343  89.7686329  24.9866569
  91.4826036  88.6886345  24.1997044  79.1832924 101.2018218  17.8816061
  80.0208146 101.6115227  17.6649768  79.3611192 100.2617660  17.8516255
  88.6644467  93.7143000  18.6285132  87.8086063  93.3249850  18.4490771
  89.0771419  93.7934960  17.7684918  90.1943614  91.2489343  23.0276692
  89.6908409  91.2119478  22.2144497  90.4874221  92.1582086  23.0873349
  86.4386500  91.3328073  22.0342874  87.3039496  91.1370881  21.6748763
  86.5064009  91.1038424  22.9612230  84.0448819  93.5630281  19.4059240
  84.6192571  93.3405462  18.6732433  84.6319801  93.6318975  20.1587842
  86.3471486  90.4371529  18.1334310  85.6935899  90.1220547  17.5090925
  86.3051961  89.8147270  18.8594133  89.5809227  96.9253463  22.4581957
  88.6631788  97.1468410  22.3003646  89.9969370  96.9999773  21.5993665
  92.9134739  88.1378247  20.1645196  93.2193616  87.2775610  19.8771111
  93.6387344  88.7295867  19.9644190  79.2059095  98.5408934  18.5526794
  79.0083495  97.9478294  17.8277861  78.6505759  98.2361144  19.2702733
  87.1855819  98.4332040  20.6721387  87.2404429  97.4805876  20.5963864
  86.3747021  98.5891479  21.1562686  85.1248179  97.0509100  18.4311766
  84.3116044  97.3503270  18.8376958  85.6207173  96.6564788  19.1486248
  90.7222390  97.5150924  27.2626660  91.0771778  97.7422397  28.1221126
  91.3694522  97.8469301  26.6403915  84.6162253  94.6227455  24.0473001
  85.2561633  94.4816214  23.3495964  83.7839784  94.3361969  23.6711603
  90.2117402 106.3047981  24.5120361  90.2654424 106.8738918  25.2798077
  89.3432183 106.4749866  24.1474398  81.6190870  94.5927780  18.8245988
  81.8797687  95.5073113  18.7155148  82.4408042  94.1252223  18.9742601
  83.0915795  96.0065537  25.9944812  83.7638849  95.7982900  25.3457461
  82.2645582  95.8087623  25.5550045  88.9941367  92.6327478  28.0110473
  88.3469282  93.3317428  27.9174950  89.7642383  93.0663622  28.3786722
  92.4020165 102.8976330  31.0861027  92.2505672 102.6686882  30.1691110
  92.3924845 103.8546932  31.0992372  89.1705502 100.4708243  26.0707293
  90.0997562 100.6219403  25.8976260  88.7496532 100.5592264  25.2155940
  87.9693833 104.4958908  23.8405831  87.8304919 104.1277692  24.7131769
  87.1808430 105.0106547  23.6689789  83.4943292  99.2808140  26.7547250
  83.3563090  98.5488379  27.3558789  84.4048216  99.1917040  26.4731437
  86.1225593  98.9928100  26.2430929  86.8325212  98.3521292  26.2017548
  86.0794901  99.2440995  27.1657110  94.1112372 105.9295453  29.1637509
  94.0524918 105.2454673  28.4968092  94.5131890 106.6714443  28.7118134
  84.8354527  95.9793318  28.0626569  84.2991884  95.5284056  28.7148165
  84.2471236  96.1139226  27.3197033  94.1129779 103.8935037  27.3951488
  93.2256558 103.5560959  27.5177887  94.6828330 103.1618068  27.6320254
  75.7658926 100.2259129  20.7194540  76.4529966  99.9120859  20.1315555
  75.6107055 101.1300493  20.4461791  80.5693648  95.1149325  25.1479563
  80.4851837  94.5074995  24.4129973  79.7476355  95.6058344  25.1489060
  90.7417362  93.6002889  20.5149758  91.2386062  92.8472851  20.1950829
  89.9704344  93.6367205  19.9492968  90.1029616 108.4523323  26.5170890
  90.8157588 109.0870788  26.4446792  89.6119645 108.5487189  25.7010892
  87.3252331  95.7420272  20.2421443  86.9550118  95.1891312  20.9302348
  87.8211423  95.1378405  19.6896443  85.1541529 106.2017767  27.3376461
  85.8550989 106.8354250  27.4905855  84.6836644 106.5432498  26.5772100
  93.1836357  90.5672482  22.6629117  92.2699437  90.7976709  22.8311324
  93.6129458  90.6510926  23.5143150  92.9542815  98.7562374  25.1629011
  92.3014266  99.0038282  24.5081464  93.3323195  97.9426512  24.8291489
  89.0030388  99.4982185  31.6495048  88.3271025  99.3976315  32.3197424
  89.8258022  99.3421399  32.1131046  80.7509248 105.7354122  24.2707564
  81.3362684 104.9897810  24.4035468  80.5534086 106.0458079  25.1544227
  75.3426902  98.3059722  22.9912007  75.3811002  97.7723313  23.7849125
  74.8367195  97.7794928  22.3722984  82.7217665  93.1524263  26.4874549
  82.7858991  94.0139093  26.0751947  82.6584785  92.5398264  25.7546908
  82.1969937  95.2247395  30.1347583  82.8241976  94.8424472  30.7485108
  81.3397856  95.0061597  30.5003276  92.5964046 105.6310370  31.7401319
  93.1403950 106.2440329  31.2456274  92.0150891 106.1889949  32.2568332
  78.9735480  97.0323824  16.0665938  79.2688921  96.1234503  16.0132992
  78.0723516  97.0111564  15.7446940  82.5029727  95.1079821  22.0493487
  81.7816313  95.7215789  21.9100960  83.2922983  95.6437586  21.9710133
  85.3056040  92.4434247  28.3234138  85.8290442  92.6896544  29.0860448
  85.0868374  93.2754282  27.9037276  80.7023321  94.7137922  16.1905263
  80.3736028  93.8335301  16.0080369  81.0562692  94.6585591  17.0781652
  83.8165145  95.0010892  16.5580741  84.1561217  95.5296813  15.8359349
  84.2637265  95.3391298  17.3339307  86.5108585  93.3847942  26.0083809
  86.1705406  92.5855755  26.4104489  85.8047592  93.6849653  25.4360642
  87.1625057  90.4697255  24.4611132  87.9851127  89.9957733  24.3390022
  87.4063121  91.2487739  24.9609818  84.6863636  97.1616375  22.2703111
  84.5408217  97.4756679  23.1627392  84.2088840  97.7801276  21.7174009
  86.5460019  94.1518923  22.3184000  86.5321588  93.2560017  21.9816298
  87.2632447  94.1589587  22.9522286  88.3986150  94.5856264  24.3637128
  88.1403927  95.5073334  24.3621458  87.8671190  94.1886698  25.0537592
  79.1609298  99.7021720  25.2090772  78.6162766 100.4781528  25.3411046
  80.0388648 100.0492524  25.0509893  85.9496915  93.0333304  17.5871570
  86.0712826  92.1049950  17.7862458  85.6598957  93.0471990  16.6749886
  88.8188105  90.7188214  20.7238290  88.8409802  90.7827547  19.7690270
  89.2356164  89.8792723  20.9178796  79.9475320  98.8291616  28.1020929
  79.2057056  98.9774252  28.6885559  79.6268064  99.0899882  27.2387678
  87.8918983 108.3707594  27.9001319  88.2006109 108.1256741  28.7724018
  88.6894465 108.5754233  27.4120189  78.5940539 104.6343371  21.0920257
  77.7572447 104.2065546  20.9104258  78.5664184 104.8275815  22.0291048
  85.4337994  94.5465301  31.7961503  85.4826150  95.4227424  31.4139273
  85.9760509  94.0042694  31.2233146  95.9192840 105.0906424  31.0762640
  95.1288384 105.0730563  30.5367139  95.6826195 105.6294718  31.8311677
  96.0390715 101.9398891  28.3895369  96.0888720 101.7748898  29.3310891
  95.9304638 101.0726150  27.9993249  93.3294477  97.9229819  29.7054675
  94.2304340  97.7836284  29.4138673  93.4042452  98.0884274  30.6452853
  87.6637283  95.2996674  28.5507862  86.7940592  95.5930240  28.2790450
  87.8996763  95.8837119  29.2715125  97.5408912 104.3595832  28.6337390
  97.2493720 104.7225813  29.4700851  96.9281043 103.6462841  28.4550722
  95.7896100  99.4828447  27.1017448  96.2650222  99.6756093  26.2936299
  94.8661666  99.5387633  26.8560832  90.3676317  91.5176290  26.0673282
  90.8858261  92.2537317  25.7419771  90.0131449  91.8240284  26.9020041
  90.6188911  87.9376573  21.5874179  90.8990665  87.2699762  22.2134605
  91.4039518  88.1305669  21.0748842  94.4897769  96.3594207  25.3345754
  95.4415192  96.4592305  25.3557978  94.3201220  95.5672476  25.8443838
  92.5112149  93.4449790  25.5205155  91.9162081  93.7254803  24.8251643
  92.2261845  93.9343691  26.2921896  96.9685847  99.5800327  24.4488053
  96.9362167  98.6416327  24.6347737  97.5786471  99.6584363  23.7153878
  97.1180335  96.3711370  24.4946336  96.6019384  95.5869827  24.3076265
  98.0020284  96.0430087  24.6592856  94.7791062  90.1152386  20.4542149
  94.5815883  89.8067474  21.3385481  95.3890768  90.8414025  20.5840079
  88.6907870 102.5014126  31.9515914  89.6110880 102.6792725  32.1455961
  88.6557453 101.5570171  31.7995614  77.9090035  97.6952719  20.8769189
  77.5892820  96.8418028  20.5843563  77.3623464  97.9101298  21.6327156
  81.6869943 100.4115160  24.5938695  81.9055953 101.3432268  24.6126729
  82.0995717 100.0523135  25.3793499  88.6074161  90.9183246  16.5814384
  87.7974889  90.5730331  16.9569630  89.2958578  90.6090789  17.1701995
  90.5364709  89.9961293  18.2038681  91.0895748  90.4156746  18.8628704
  90.7734795  89.0697041  18.2461637  86.5597808  95.9848366  33.9841444
  86.4594535  96.9342723  33.9153536  86.3419350  95.6566605  33.1117515
  77.7778295 101.3155631  22.8462311  77.0841767 100.9009584  22.3332265
  78.5251286 101.3576167  22.2495729  92.3647082  91.5066875  19.9138665
  92.8646861  91.6183410  19.1052984  93.0082690  91.2027928  20.5539474
  86.4229078  99.4145505  32.8006506  85.9396160 100.2145865  33.0070395
  86.5090017  99.4253450  31.8473950  79.6915038 101.2473885  20.7228325
  79.6685726 101.3461572  19.7710209  80.0015674 102.0939036  21.0445492
  82.3502416 103.3050040  24.8374940  83.3045669 103.2733982  24.7704871
  82.1514939 102.8440663  25.6525166  82.9401798 101.8751156  27.4045738
  83.7594687 102.3695234  27.4280575  83.2138606 100.9583124  27.3763305
  96.0482930  94.2908429  20.4828032  96.8243320  94.7804882  20.7552649
  95.3231064  94.7166483  20.9399902  78.1936712  96.2089290  28.1037935
  78.8395576  95.6988244  28.5925160  77.9853863  96.9457971  28.6781360
  90.7190104 103.2770137  33.6030075  91.5881264 103.4510789  33.2416710
  90.2396856 104.0964554  33.4805804  84.8876285 110.3967238  25.2819509
  85.7903531 110.4290848  25.5986004  84.6613655 109.4667689  25.2965845
  90.5292442  87.0672111  18.1107768  89.7624838  86.5130598  18.2564450
  90.9403147  87.1393980  18.9721919  82.5334203  93.3556907  32.2012949
  83.3965665  92.9993712  32.4116273  81.9599614  93.0170802  32.8888353
  95.0915704 106.7637623  33.1942920  94.6982649 106.2103822  33.8690565
  95.9081844 107.0748202  33.5849438  98.0083665 108.1795502  30.7863177
  98.7493378 108.7802656  30.7067639  98.2401588 107.4373140  30.2281219
  93.0363692 110.5539313  30.1347583  93.6635730 110.1716390  30.7485108
  92.1791610 110.3353515  30.5003276  96.2731749 109.8757219  31.7961503
  96.3219904 110.7519342  31.4139273  96.8154263 109.3334612  31.2233146
  97.3991563 111.3140284  33.9841444  97.2988290 112.2634641  33.9153536
  97.1813105 110.9858523  33.1117515  89.0330467 111.5381207  28.1037935
  89.6789330 111.0280161  28.5925160  88.8247618 112.2749889  28.6781360
  93.3727958 108.6848824  32.2012949  94.2359419 108.3285629  32.4116273
  92.7993368 108.3462719  32.8888353  46.0348069  21.6672144  17.3874214
  45.5911924  20.8808523  17.0695118  46.6965283  21.8551295  16.7218105
  48.1329308  21.9474944  15.4155615  48.1147783  22.7683825  14.9235884
  49.0549228  21.8229019  15.6405756  49.0445148  18.5870782  17.8106333
  48.8930655  18.3581334  16.8936417  49.0349828  19.5441384  17.8237678
  50.7537355  21.6189905  15.8882815  50.6949901  20.9349125  15.2213398
  51.1556873  22.3608895  15.4363441  49.2389029  21.3204822  18.4646625
  49.7828933  21.9334780  17.9701580  48.6575874  21.8784401  18.9813638
  52.5617823  20.7800876  17.8007947  51.7713367  20.7625015  17.2612446
  52.3251178  21.3189170  18.5556983  54.1833895  20.0490284  15.3582697
  53.8918704  20.4120265  16.1946158  53.5706027  19.3357292  15.1796029
  47.3615088  18.9664589  20.3275382  48.2306247  19.1405241  19.9662017
  46.8821839  19.7859006  20.2051111  59.0207563  30.6753215   9.7320656
  59.6585973  30.5559962   9.0283997  58.9028406  31.6234059   9.7908609
  55.8297270  30.6280643   9.6682181  55.4915781  30.5121708   8.7802716
  56.6987038  30.2271808   9.6483187  56.3117053  31.7815495  15.6268387
  56.3005693  31.3868293  14.7548890  56.4737692  31.0481567  16.2202158
  49.2348517  33.9767311   8.4963293  50.0269809  33.6358136   8.0809592
  49.4745167  34.0862286   9.4165446  53.0324314  34.5652607  14.5747571
  52.7414180  35.4698237  14.4594237  53.6681298  34.6069134  15.2891640
  53.9580521  31.9429455  11.1648930  54.5544093  31.7185478  10.4505893
  54.0155492  31.2014201  11.7674378  63.9757259  28.3379902   7.7106843
  64.7082431  27.7679119   7.9444672  63.2196615  27.9501502   8.1513349
  61.4982679  22.0501476  12.1701452  61.1666004  22.9196887  11.9462667
  60.9028293  21.7337760  12.8495482  57.9914199  34.2514022  11.5697364
  57.6914922  35.1539061  11.4613172  57.6465258  33.9846205  12.4218517
  61.3911343  26.7696562   9.2494802  60.4828220  26.7011971   8.9553563
  61.3398938  27.2468507  10.0776627  52.9734979  41.0158342   4.5368332
  52.8959008  41.9666168   4.6156813  52.3696622  40.6704215   5.1943258
  55.4652208  28.1886208  17.1929699  54.6885542  28.7480128  17.1832564
  56.1042771  28.6742991  17.7144569  63.2572989  24.9713001  11.0272676
  62.6147369  25.2645534  10.3812470  62.7527918  24.8565921  11.8325872
  53.7198581  30.9971661  16.7547666  54.4613265  31.5356705  16.4782490
  53.0135566  31.6237950  16.9119218  59.1953920  33.1400802  15.3519827
  59.6037276  32.6983212  14.6074460  58.4731182  32.5653429  15.6054020
  55.5484990  28.0773408  12.7253384  56.3946186  28.5012822  12.8688033
  55.4883628  27.4207033  13.4191947  59.5182735  33.7001992   9.1072116
  58.8891597  33.8647706   8.4048184  59.1308397  34.1143602   9.8783080
  63.3971967  34.6356430   6.4616480  62.7123005  35.0155332   5.9113513
  63.4815816  35.2451757   7.1948428  58.6984436  25.7377777  14.3834558
  58.4545368  26.4919837  13.8468834  58.9744366  26.1163124  15.2181805
  60.6522899  32.2816389  13.0611824  60.8639794  32.9248149  12.3846205
  60.6052647  31.4478706  12.5933754  55.0710697  33.4376400   6.3722201
  55.5349042  33.7164103   5.5826824  54.8067495  32.5359845   6.1895292
  51.9634778  32.9847882   9.3101965  52.5336135  33.4135150   8.6719449
  52.5542890  32.7030467  10.0086150  52.4559944  28.1511309  17.5562976
  51.8258605  28.8327590  17.7898373  52.3496032  28.0394391  16.6116114
  61.7668726  35.1588345  11.2334181  62.5886170  34.7568532  10.9516863
  61.7631129  35.0556579  12.1850297  55.5325330  34.7072388  13.3894891
  55.5969762  35.1692795  14.2253063  54.8236254  34.0769753  13.5177201
  69.8574720  31.5027093   7.5819152  69.1038428  30.9334491   7.4263157
  69.9922261  31.4689758   8.5289787  51.7340687  22.4532075  19.9188227
  51.3407633  21.8998274  20.5935871  52.5506828  22.7642654  20.3094745
  50.5097630  37.0081690   5.9124550  50.6864258  37.9299654   5.7245534
  51.3054463  36.6940109   6.3418930  54.6508648  23.8689954  17.5108484
  55.3918362  24.4697107  17.4312946  54.8826571  23.1267592  16.9526526
  49.7949986  29.0546322  15.7886713  49.6803501  28.1531579  16.0893812
  48.9394504  29.3010018  15.4371530  56.8741824  36.9964062  17.3874214
  56.4305678  36.2100440  17.0695118  57.5359038  37.1843212  16.7218105
  51.6328945  38.5259864  11.9134892  52.1836370  38.3976927  11.1411886
  50.7940421  38.8254753  11.5629785  58.9723062  37.2766862  15.4155615
  58.9541537  38.0975743  14.9235884  59.8942982  37.1520937  15.6405756
  55.4296116  34.7910991  16.2579123  55.9624453  34.0299280  16.0278431
  54.9010197  34.4984643  17.0003278  61.7741675  32.1146004   8.8864982
  61.1165349  32.8045266   8.9745110  62.5782074  32.5042436   9.2298968
  60.5847134  30.4690377   6.9368924  61.0979015  31.1020369   7.4390633
  61.2348358  29.8691573   6.5712284  57.0627965  27.9439833   9.1827264
  56.1450526  28.1654780   9.0248952  57.4788108  28.0186143   8.3238971
  61.3508930  35.4496378   5.0648066  60.8971257  34.6087288   5.1213257
  60.7202897  36.0857777   5.4022846  59.7941869  37.2872875   5.9997884
  60.0864844  37.8477932   5.2810250  60.3040490  37.5801436   6.7551043
  54.7575494  38.0653226   7.0891338  54.7151673  38.2914073   6.1599870
  55.6738193  37.8316601   7.2377139  58.2041128  28.5337294  13.9871967
  58.5590516  28.7608767  14.8466432  58.8513259  28.8655671  13.3649222
  63.9338865  31.6555730   4.6921296  63.7956764  31.8457326   3.7642485
  63.5775084  32.4175112   5.1489347  63.9608245  33.7232257   9.7032567
  64.3944751  33.6307546  10.5515621  64.6739825  33.6989757   9.0652583
  52.8741295  34.9416255   6.8853300  53.6681894  34.4466575   6.6835875
  52.1632987  34.4134118   6.5221006  57.6936140  37.3234351  11.2365668
  57.7473162  37.8925287  12.0043384  56.8250921  37.4936236  10.8719705
  50.5734533  27.0251907  12.7190119  51.2457586  26.8169269  12.0702768
  49.7464319  26.8273993  12.2795351  64.8223794  33.7655957  12.2365453
  65.0159684  34.6701768  12.4824728  64.7224412  33.3063376  13.0704038
  56.4760105  23.6513848  14.7355780  55.8288020  24.3503798  14.6420256
  57.2461120  24.0849992  15.1032028  59.8838903  33.9162700  17.8106333
  59.7324409  33.6873252  16.8936417  59.8743582  34.8733301  17.8237678
  56.6524239  31.4894613  12.7952600  57.5816299  31.6405772  12.6221567
  56.2315269  31.5778634  11.9401246  55.4512571  35.5145277  10.5651137
  55.3123657  35.1464062  11.4377075  54.6627167  36.0292917  10.3935095
  56.0460723  40.6154374   1.9076674  56.2212479  40.1442417   2.7222297
  55.3593511  41.2420140   2.1357935  57.0017786  34.8926880   7.9539975
  56.6667619  34.8527650   8.8497625  56.5021732  34.2271596   7.4810385
  50.9762030  30.2994510  13.4792556  50.8381828  29.5674749  14.0804095
  51.8866954  30.2103410  13.1976744  53.6044331  30.0114469  12.9676236
  54.3143949  29.3707661  12.9262854  53.5613639  30.2627364  13.8902417
  61.5931110  36.9481823  15.8882815  61.5343656  36.2641043  15.2213398
  61.9950628  37.6900813  15.4363441  52.3173265  26.9979687  14.7871875
  51.7810622  26.5470426  15.4393472  51.7289973  27.1325596  14.0442340
  50.6121808  43.7643736   8.6816534  50.8518407  44.3962261   9.3595553
  49.7691005  43.4131776   8.9681893  61.5948517  34.9121407  14.1196795
  60.7075296  34.5747328  14.2423194  62.1647068  34.1804438  14.3565560
  55.1249670  39.5722859  11.0858038  55.0519842  40.3777830  11.5977343
  54.6827063  39.7714825  10.2606059  54.9139450  38.8094629   4.5960860
  54.1306972  39.3516309   4.6899084  55.6132195  39.3268609   4.9955101
  66.0765857  30.3229624   8.8813356  66.0655734  31.2054339   8.5107290
  65.2083237  29.9701175   8.6867894  57.5848354  39.4709693  13.2416197
  58.2976326  40.1057158  13.1692098  57.0938382  39.5673559  12.4256199
  59.3065881  33.3760946   4.8133488  58.3722159  33.4962408   4.6438193
  59.4842549  32.4733412   4.5493498  62.6938432  29.2178265   5.3483522
  63.1598884  30.0506256   5.2743825  63.1445933  28.7523246   6.0528781
  52.6360267  37.2204136  14.0621768  53.3369727  37.8540619  14.2151162
  52.1655382  37.5618868  13.3017407  60.4361553  29.7748744  11.8874318
  59.7833003  30.0224651  11.2326771  60.8141933  28.9612882  11.5536795
  57.3968727  39.8108437   5.9902488  57.5791122  38.9930093   6.4530240
  58.2201713  40.0276129   5.5527378  57.7310893  38.7376622   3.2517537
  58.2598659  38.2269077   2.6387699  57.9939112  38.4219152   4.1163070
  56.4849126  30.5168555  18.3740355  55.8089763  30.4162684  19.0442730
  57.3076760  30.3607769  18.8376352  48.2327985  36.7540491  10.9952870
  48.8181422  36.0084179  11.1280774  48.0352824  37.0644448  11.8789534
  51.0866641  39.7891739   6.0115313  50.4177016  40.2737866   5.5279353
  50.9479510  40.0360959   6.9258691  55.2271909  41.8235482  12.6097971
  55.7790217  41.9867104  13.3747056  55.5678103  42.4139920  11.9377996
  49.6788675  26.2433765  16.8592890  50.3060714  25.8610842  17.4730414
  48.8216594  26.0247967  17.2248582  60.0782783  36.6496740  18.4646625
  60.6222687  37.2626698  17.9701580  59.4969628  37.2076318  18.9813638
  58.3640296  39.7717458   9.5961653  58.2391436  38.9707198   9.0872599
  59.0219388  40.2663651   9.1075623  60.4275205  37.5726478  11.2241203
  59.4805540  37.4531829  11.1519530  60.7757978  36.6848976  11.3067465
  52.7874778  23.4620617  15.0479445  53.3109180  23.7082913  15.8105754
  52.5687111  24.2940652  14.6282582  57.4321638  37.3679194   7.4245555
  57.2846601  36.4395902   7.6053125  58.2575132  37.3899285   6.9402631
  61.0355760  38.1907753   8.5110428  61.9602307  37.9850614   8.3734879
  60.8671063  37.9424154   9.4199770  53.9927323  24.4034312  12.7329116
  53.6524144  23.6042125  13.1349795  53.2866329  24.7036023  12.1605949
  55.8804887  25.6042633  11.0882434  55.6222665  26.5259704  11.0866765
  55.3489928  25.2073068  11.7782898  60.8251076  38.7093420   3.8672520
  60.9987954  38.1439843   3.1146372  61.3179967  39.5094315   3.6852010
  46.6428036  30.7208089  11.9336078  46.0981504  31.4967897  12.0656353
  47.5207386  31.0678894  11.7755200  66.6790467  31.4729843   5.4862819
  67.1221613  30.7237169   5.0881943  65.8016978  31.4639980   5.1036551
  61.8126249  38.0260185   0.9669418  62.5077153  38.6466877   1.1856733
  62.1549399  37.1755536   1.2421796  47.4294058  29.8477986  14.8266235
  46.6875794  29.9960621  15.4130866  47.1086802  30.1086251  13.9632985
  63.7117672  35.4759890   2.4956749  64.2368996  35.8147163   1.7706069
  63.6240024  34.5406906   2.3119883  55.3737720  39.3893964  14.6246625
  55.6824847  39.1443111  15.4969325  56.1713202  39.5940602  14.1365496
  55.3958333  41.5431874   6.8552002  54.9563323  41.0508252   7.5484859
  56.1466449  41.0004841   6.6144077  47.8750672  37.7343414   6.8576630
  48.7008691  37.4347186   6.4775273  47.5244723  36.9651037   7.3066419
  52.8432205  37.0869883   8.9274304  52.2212214  36.4240588   8.6276531
  53.5137072  37.1131015   8.2447951  52.9156732  25.5651671  18.5206810
  52.9644888  26.4413793  18.1384579  53.4579246  25.0229064  17.9478453
  63.4011578  36.1092794  17.8007947  62.6107122  36.0916933  17.2612446
  63.1644932  36.6481088  18.5556983  63.5209453  32.9585260  15.1140675
  63.5707458  32.7935268  16.0556198  63.4123376  32.0912519  14.7238556
  60.8113215  28.9416188  16.4299982  61.7123078  28.8022653  16.1383980
  60.8861190  29.1070643  17.3698159  55.1456021  26.3183043  15.2753168
  54.2759330  26.6116609  15.0035757  55.3815501  26.9023488  15.9960432
  65.0227650  35.3782202  15.3582697  64.7312458  35.7412182  16.1946158
  64.4099781  34.6649210  15.1796029  66.2223332  32.9435082   7.8785267
  67.0570223  33.3824886   8.0422827  66.3582461  32.4673735   7.0593513
  63.2714838  30.5014816  13.8262755  63.7468960  30.6942463  13.0181606
  62.3480403  30.5574002  13.5806138  57.8495054  22.5362660  12.7918589
  58.3676998  23.2723687  12.4665077  57.4950187  22.8426653  13.6265348
  61.9716507  27.3780577  12.0591060  62.9233930  27.4778674  12.0803284
  61.8019957  26.5858845  12.5689145  59.9930886  24.4636160  12.2450461
  59.3980819  24.7441172  11.5496950  59.7080583  24.9530061  13.0167202
  64.4504585  30.5986696  11.1733360  64.4180905  29.6602697  11.3593044
  65.0605208  30.6770733  10.4399185  64.5999073  27.3897740  11.2191643
  64.0838122  26.6056196  11.0321572  65.4839022  27.0616456  11.3838163
  70.2681135  31.6602703  10.3139397  70.9984523  31.3987991  10.8747100
  69.6588080  30.9231425  10.3541465  68.3496432  29.8010566  10.9113848
  67.6229595  29.6666531  10.3030340  67.9343719  30.1087394  11.7170566
  56.1726608  33.5200495  18.6761221  57.0929618  33.6979094  18.8701267
  56.1376191  32.5756541  18.5240920  49.1688681  31.4301530  11.3184002
  49.3874690  32.3618638  11.3372036  49.5814455  31.0709504  12.1038806
  54.0416546  27.0034736  20.7086751  53.9413273  27.9529093  20.6398842
  53.8238088  26.6752975  19.8362821  53.9047816  30.4331875  19.5251813
  53.4214898  31.2332235  19.7315702  53.9908755  30.4439819  18.5719257
  49.8321154  34.3236409  11.5620246  50.7864407  34.2920352  11.4950178
  49.6333677  33.8627033  12.3770472  50.4220536  32.8937525  14.1291044
  51.2413425  33.3881604  14.1525881  50.6957343  31.9769493  14.1008612
  63.5301668  25.3094799   7.2073339  64.3062058  25.7991251   7.4797956
  62.8049802  25.7352853   7.6645208  65.9674227  26.0222418   8.2647280
  66.5618717  25.7818154   7.5540588  66.0400810  25.3029548   8.8920816
  48.1871382  39.8656029   8.5790444  48.0525850  39.1056430   8.0128442
  47.7703445  40.5896929   8.1119233  68.2745299  29.3288619   7.0390701
  67.7144857  29.3981808   7.8122263  67.6688803  29.1529603   6.3190197
  51.3440508  40.7625346   8.7908887  51.2272892  41.7070778   8.6887577
  50.5232954  40.4598907   9.1794686  45.6755450  27.2275659  14.8283241
  46.3214314  26.7174613  15.3170466  45.4672601  27.9644341  15.4026666
  58.2008842  34.2956507  20.3275382  59.0700002  34.4697159  19.9662017
  57.7215594  35.1150924  20.2051111  52.3695022  41.4153608  12.0064815
  53.2722269  41.4477218  12.3231310  52.1432392  40.4854059  12.0211151
  54.1248624  40.1684594   8.6674894  53.1744255  40.1686456   8.5539266
  54.4281110  39.4217329   8.1510929  50.0152941  24.3743276  18.9258255
  50.8784402  24.0180081  19.1361580  49.4418352  24.0357171  19.6133660
  69.8601318  46.0045133   9.7320656  70.4979728  45.8851880   9.0283997
  69.7422161  46.9525977   9.7908609  66.6691024  45.9572561   9.6682181
  66.3309536  45.8413625   8.7802716  67.5380792  45.5563726   9.6483187
  62.5277840  47.8108037   5.6579072  61.9642705  47.7197974   4.8895360
  62.4130235  46.9907942   6.1381565  67.1510807  47.1107412  15.6268387
  67.1399448  46.7160211  14.7548890  67.3131447  46.3773485  16.2202158
  60.0742272  49.3059229   8.4963293  60.8663564  48.9650053   8.0809592
  60.3138922  49.4154204   9.4165446  68.1077399  51.4779005   0.9693537
  67.4565378  52.0633085   0.5827551  68.9021761  52.0085200   1.0288574
  62.0333026  48.5668142   1.3680671  62.8063902  48.0197129   1.2293547
  62.3858425  49.4312391   1.5795133  63.8718068  49.8944524  14.5747571
  63.5807934  50.7990155  14.4594237  64.5075053  49.9361052  15.2891640
  64.7974275  47.2721373  11.1648930  65.3937847  47.0477395  10.4505893
  64.8549247  46.5306118  11.7674378  64.3699304  44.7260808  -1.0000879
  64.6224824  44.2042329  -1.7617416  63.4323863  44.5626954  -0.8974195
  69.4142586  43.7296586   6.8073864  70.2005676  43.3116010   6.4564282
  69.6781291  44.6342679   6.9755513  69.5852664  49.1669437   1.5062521
  68.9498497  49.2404063   2.2183426  69.2550070  49.7563036   0.8281601
  74.8151013  43.6671820   7.7106843  75.5476185  43.0971036   7.9444672
  74.0590369  43.2793420   8.1513349  64.0895592  46.6288914   1.2023496
  63.9731850  45.9533817   1.8704581  64.1997852  46.1421288   0.3855649
  66.4327133  46.0899061   4.9070185  66.0685340  45.5629682   5.6183107
  67.2894249  45.6997530   4.7336671  72.3376434  37.3793394  12.1701452
  72.0059759  38.2488805  11.9462667  71.7422047  37.0629678  12.8495482
  66.0732620  41.1188961  -0.0968466  66.2407023  41.9869197   0.2702005
  65.8829789  41.2816243  -1.0207177  68.8307953  49.5805940  11.5697364
  68.5308676  50.4830979  11.4613172  68.4859013  49.3138123  12.4218517
  62.2820435  46.0319737   7.6034069  61.3570931  45.8995951   7.8111761
  62.5304848  46.8113956   8.1004011  72.2305097  42.0988480   9.2494802
  71.3221974  42.0303888   8.9553563  72.1792693  42.5760425  10.0776627
  66.0521841  43.5746618   0.8878201  65.9321466  44.0203669   1.7263681
  65.3574429  43.9231936   0.3291739  59.6429246  45.6753010   8.4377858
  59.7721627  45.9287489   9.3517270  58.9626697  46.2680718   8.1182513
  63.8128733  56.3450260   4.5368332  63.7352763  57.2958085   4.6156813
  63.2090377  55.9996133   5.1943258  66.3045963  43.5178126  17.1929699
  65.5279297  44.0772046  17.1832564  66.9436526  44.0034909  17.7144569
  74.0966744  40.3004918  11.0272676  73.4541124  40.5937452  10.3812470
  73.5921672  40.1857839  11.8325872  71.7506907  44.0468092   1.7158535
  72.6624763  44.2795478   1.5406232  71.2416554  44.6305136   1.1533613
  64.5592335  46.3263579  16.7547666  65.3007020  46.8648623  16.4782490
  63.8529321  46.9529868  16.9119218  70.0347675  48.4692719  15.3519827
  70.4431031  48.0275130  14.6074460  69.3124936  47.8945347  15.6054020
  66.3878745  43.4065326  12.7253384  67.2339940  43.8304740  12.8688033
  66.3277383  42.7498950  13.4191947  70.3576490  49.0293910   9.1072116
  69.7285352  49.1939624   8.4048184  69.9702152  49.4435520   9.8783080
  74.2365721  49.9648348   6.4616480  73.5516760  50.3447249   5.9113513
  74.3209571  50.5743675   7.1948428  69.5378190  41.0669695  14.3834558
  69.2939122  41.8211755  13.8468834  69.8138121  41.4455042  15.2181805
  71.4916653  47.6108307  13.0611824  71.7033548  48.2540067  12.3846205
  71.4446401  46.7770623  12.5933754  69.0942882  40.2226128   9.9648396
  68.2327361  40.5207381  10.2565133  69.1205317  40.4396526   9.0329428
  65.9104451  48.7668318   6.3722201  66.3742797  49.0456021   5.5826824
  65.6461249  47.8651763   6.1895292  62.8028532  48.3139800   9.3101965
  63.3729890  48.7427068   8.6719449  63.3936644  48.0322384  10.0086150
  64.8473337  44.8891470   3.1811767  65.5497381  45.3412514   3.6485693
  64.5153966  44.2475289   3.8091660  63.2953699  43.4803227  17.5562976
  62.6652360  44.1619508  17.7898373  63.1889787  43.3686309  16.6116114
  58.5898671  43.1475023   8.4828900  57.7997725  43.4032552   8.0069011
  59.0809919  43.9623361   8.5880941  72.6062481  50.4880262  11.2334181
  73.4279925  50.0860450  10.9516863  72.6024884  50.3848496  12.1850297
  60.5413417  43.5119602   5.4412377  59.7444580  43.6238297   5.9595872
  60.3139009  43.8506255   4.5753267  66.3719084  50.0364306  13.3894891
  66.4363517  50.4984713  14.2253063  65.6630008  49.4061671  13.5177201
  56.8736374  43.4005514  10.9143891  57.1244413  44.2852523  11.1801467
  57.4095923  43.2210115  10.1418983  80.6968474  46.8319011   7.5819152
  79.9432182  46.2626409   7.4263157  80.8316015  46.7981675   8.5289787
  66.0867102  51.7032413   3.2573872  65.9512777  52.5483949   3.6858720
  66.6276915  51.9051691   2.4939806  62.5734442  37.7823993  19.9188227
  62.1801387  37.2290191  20.5935871  63.3900582  38.0934571  20.3094745
  59.5396499  49.2207851   3.8301797  60.0521020  50.0151101   3.9807362
  60.1919212  48.5234142   3.7635398  61.3491384  52.3373607   5.9124550
  61.5258012  53.2591572   5.7245534  62.1448218  52.0232027   6.3418930
  65.4902403  39.1981872  17.5108484  66.2312116  39.7989025  17.4312946
  65.7220326  38.4559510  16.9526526  60.6343741  44.3838239  15.7886713
  60.5197256  43.4823497  16.0893812  59.7788258  44.6301936  15.4371530
  67.7135578  52.3255980  17.3874214  67.2699433  51.5392358  17.0695118
  68.3752792  52.5135130  16.7218105  62.4722700  53.8551781  11.9134892
  63.0230125  53.7268845  11.1411886  61.6334176  54.1546670  11.5629785
  69.8116816  52.6058780  15.4155615  69.7935292  53.4267661  14.9235884
  70.7336737  52.4812855  15.6405756  66.2689871  50.1202909  16.2579123
  66.8018207  49.3591197  16.0278431  65.7403952  49.8276561  17.0003278
  69.4359566  35.2262975  11.7872765  69.0923835  36.1164617  11.7111876
  69.8038528  35.0364633  10.9242350  57.5045416  47.5496505   4.6061367
  58.3420638  47.9593514   4.3895075  57.6823684  46.6095948   4.5761561
  69.4009848  45.2171586   0.2945200  68.8856472  45.9876191   0.5333588
  69.1287157  44.5436722   0.9178262  66.9856959  40.0621287   5.3530439
  66.1298556  39.6728137   5.1736077  67.3983911  40.1413248   4.4930224
  68.5156106  37.5967630   9.7521998  68.0120902  37.5597765   8.9389804
  68.8086713  38.5060373   9.8118655  64.7598992  37.6806360   8.7588180
  65.6251989  37.4849169   8.3994070  64.8276501  37.4516712   9.6857537
  74.3744122  47.9703941   2.2298374  73.5973565  47.6315100   1.7853536
  75.0535603  47.9756564   1.5553339  69.1896152  43.0898678   2.1204982
  68.8846287  43.4044827   2.9715125  70.1426594  43.1680098   2.1632315
  67.6342583  49.2488901   3.7697935  67.1063945  48.5141661   3.4571173
  67.1330086  50.0263578   3.5237904  72.6135429  47.4437922   8.8864982
  71.9559104  48.1337183   8.9745110  73.4175829  47.8334354   9.2298968
  62.3661311  39.9108568   6.1304547  62.9405063  39.6883749   5.3977740
  62.9532293  39.9797262   6.8833148  71.4240888  45.7982295   6.9368924
  71.9372770  46.4312287   7.4390633  72.0742112  45.1983490   6.5712284
  62.6930898  41.9413029   0.1500432  61.8568210  42.2787715   0.4709707
  62.5535668  41.8062009  -0.7872431  64.6683979  36.7849817   4.8579616
  64.0148391  36.4698834   4.2336231  64.6264453  36.1625557   5.5839439
  65.7795184  47.0669112  -3.2267091  64.8722245  46.8358365  -3.0275942
  66.2766216  46.2706731  -3.0393110  68.6863262  55.7766619  -0.3070405
  68.0124961  56.0798316   0.3014553  69.0729084  56.5795699  -0.6564948
  67.9021719  43.2731750   9.1827264  66.9844280  43.4946697   9.0248952
  68.3181863  43.3478061   8.3238971  68.6856767  44.6723166   4.3129944
  69.4328586  45.1844563   4.0037066  68.9548356  44.3507219   5.1734338
  66.9583417  47.1681707   1.2956899  66.0494636  46.8840739   1.3929368
  66.9878501  47.5880785   0.4360205  72.1902684  50.7788296   5.0648066
  71.7365011  49.9379206   5.1213257  71.5596651  51.4149694   5.4022846
  71.1335604  41.7080282   6.2948734  70.3958361  41.1957668   6.6258976
  71.3862377  41.2680664   5.4832011  70.6335624  52.6164793   5.9997884
  70.9258598  53.1769850   5.2810250  71.1434244  52.9093354   6.7551043
  71.2347231  34.4856534   6.8890503  71.5406108  33.6253898   6.6016418
  71.9599836  35.0774154   6.6889497  57.5271587  44.8887221   5.2772101
  57.3295987  44.2956581   4.5523167  56.9718251  44.5839431   5.9948040
  65.5068311  44.7810327   7.3966694  65.5616921  43.8284164   7.3209171
  64.6959513  44.9369766   7.8807992  66.6559505  48.7090450  -1.3655023
  66.2178935  47.9926309  -1.8249385  67.3969946  48.9366565  -1.9269931
  63.4460671  43.3987387   5.1557073  62.6328536  43.6981558   5.5622265
  63.9419665  43.0043076   5.8731555  65.5969249  53.3945144   7.0891338
  65.5545428  53.6205990   6.1599870  66.5131948  53.1608518   7.2377139
  69.0434883  43.8629211  13.9871967  69.3984270  44.0900685  14.8466432
  69.6907014  44.1947588  13.3649222  74.7732620  46.9847647   4.6921296
  74.6350518  47.1749243   3.7642485  74.4168838  47.7467030   5.1489347
  62.9374746  40.9705742  10.7718308  63.5774125  40.8294502  10.0741271
  62.1052276  40.6840256  10.3956910  74.8001999  49.0524174   9.7032567
  75.2338506  48.9599463  10.5515621  75.5133580  49.0281675   9.0652583
  63.7135050  50.2708173   6.8853300  64.5075648  49.7758493   6.6835875
  63.0026742  49.7426036   6.5221006  68.5329894  52.6526268  11.2365668
  68.5866916  53.2217205  12.0043384  67.6644675  52.8228153  10.8719705
  60.0217813  44.4151255   2.9613053  59.0915401  44.3535710   3.1783015
  60.1175285  43.8927207   2.1649694  59.9403362  40.9406067   5.5491295
  60.2010179  41.8551401   5.4400455  60.7620534  40.4730510   5.6987907
  61.4128287  42.3543825  12.7190119  62.0851341  42.1461187  12.0702768
  60.5858074  42.1565911  12.2795351  75.6617549  49.0947875  12.2365453
  75.8553439  49.9993685  12.4824728  75.5618167  48.6355294  13.0704038
  67.3153859  38.9805766  14.7355780  66.6681775  39.6795715  14.6420256
  68.0854875  39.4141909  15.1032028  70.7232657  49.2454618  17.8106333
  70.5718164  49.0165169  16.8936417  70.7137337  50.2025219  17.8237678
  67.4917994  46.8186530  12.7952600  68.4210054  46.9697690  12.6221567
  67.0709024  46.9070551  11.9401246  66.2906326  50.8437195  10.5651137
  66.1517411  50.4755979  11.4377075  65.5020922  51.3584834  10.3935095
  66.8854478  55.9446291   1.9076674  67.0606233  55.4734335   2.7222297
  66.1987266  56.5712058   2.1357935  67.8411541  50.2218798   7.9539975
  67.5061373  50.1819568   8.8497625  67.3415486  49.5563514   7.4810385
  61.8155785  45.6286428  13.4792556  61.6775583  44.8966666  14.0804095
  62.7260708  45.5395328  13.1976744  70.7770732  47.5674832  -1.7722965
  70.1599903  46.8421660  -1.8689913  70.3087221  48.3284192  -2.1155891
  64.4438085  45.3406387  12.9676236  65.1537704  44.6999579  12.9262854
  64.4007394  45.5919282  13.8902417  72.4324864  52.2773740  15.8882815
  72.3737410  51.5932960  15.2213398  72.8344382  53.0192730  15.4363441
  63.1567019  42.3271605  14.7871875  62.6204376  41.8762343  15.4393472
  62.5683728  42.4617514  14.0442340  61.4515563  59.0935654   8.6816534
  61.6912161  59.7254178   9.3595553  60.6084759  58.7423694   8.9681893
  72.4342271  50.2413324  14.1196795  71.5469050  49.9039246  14.2423194
  73.0040822  49.5096355  14.3565560  54.0871418  46.5737416   7.4439846
  54.7742458  46.2599146   6.8560862  53.9319547  47.4778781   7.1707098
  58.8906141  41.4627613  11.8724870  58.8064329  40.8553282  11.1375280
  58.0688847  41.9536631  11.8734366  65.9643425  54.9014777  11.0858038
  65.8913596  55.7069748  11.5977343  65.5220818  55.1006742  10.2606059
  65.7533204  54.1386547   4.5960860  64.9700726  54.6808227   4.6899084
  66.4525950  54.6560526   4.9955101  69.0629854  39.9481176   7.2395065
  69.5598554  39.1951138   6.9196135  68.2916836  39.9845493   6.6738274
  76.9159612  45.6521542   8.8813356  76.9049488  46.5346257   8.5107290
  76.0476991  45.2993092   8.6867894  68.4242108  54.8001611  13.2416197
  69.1370080  55.4349075  13.1692098  67.9332137  54.8965477  12.4256199
  70.1459635  48.7052863   4.8133488  69.2115914  48.8254326   4.6438193
  70.3236304  47.8025330   4.5493498  65.6464823  42.0898559   6.9666750
  65.2762611  41.5369599   7.6547655  66.1423916  41.4856693   6.4141750
  73.5332186  44.5470183   5.3483522  73.9992639  45.3798174   5.2743825
  73.9839687  44.0815164   6.0528781  63.4754022  52.5496054  14.0621768
  64.1763481  53.1832537  14.2151162  63.0049137  52.8910786  13.3017407
  71.6008418  50.8914004   2.3469675  71.8768262  50.7770598   3.2563549
  70.7312916  50.4931489   2.3081848  71.5048849  36.9150770   9.3874424
  70.5911929  37.1454996   9.5556631  71.9341951  36.9989214  10.2388456
  71.2755308  45.1040662  11.8874318  70.6226758  45.3516569  11.2326771
  71.6535688  44.2904800  11.5536795  68.2362482  55.1400355   5.9902488
  68.4184876  54.3222011   6.4530240  69.0595468  55.3568047   5.5527378
  68.5704647  54.0668540   3.2517537  69.0992414  53.5560994   2.6387699
  68.8332867  53.7511070   4.1163070  67.3242881  45.8460473  18.3740355
  66.6483518  45.7454602  19.0442730  68.1470515  45.6899686  18.8376352
  59.0721740  52.0832409  10.9952870  59.6575177  51.3376097  11.1280774
  58.8746578  52.3936366  11.8789534  61.9260395  55.1183657   6.0115313
  61.2570770  55.6029784   5.5279353  61.7873265  55.3652877   6.9258691
  53.6639395  44.6538009   9.7157313  53.7023494  44.1201600  10.5094431
  53.1579687  44.1273215   9.0968291  66.0665664  57.1527400  12.6097971
  66.6183972  57.3159022  13.3747056  66.4071857  57.7431838  11.9377996
  61.0430157  39.5002550  13.2119856  61.1071483  40.3617381  12.7997253
  60.9797277  38.8876551  12.4792214  60.5182429  41.5725682  16.8592890
  61.1454468  41.1902760  17.4730414  59.6610348  41.3539884  17.2248582
  70.9176538  51.9788658  18.4646625  71.4616442  52.5918616  17.9701580
  70.3363383  52.5368236  18.9813638  57.2947972  43.3802111   2.7911245
  57.5901413  42.4712790   2.7378298  56.3936008  43.3589851   2.4692247
  69.2034051  55.1009376   9.5961653  69.0785190  54.2999115   9.0872599
  69.8613142  55.5955569   9.1075623  60.8242219  41.4558108   8.7738793
  60.1028805  42.0694076   8.6346267  61.6135475  41.9915873   8.6955439
  71.2668959  52.9018396  11.2241203  70.3199295  52.7823747  11.1519530
  71.6151732  52.0140894  11.3067465  63.6268533  38.7912535  15.0479445
  64.1502934  39.0374831  15.8105754  63.4080866  39.6232569  14.6282582
  59.0235814  41.0616209   2.9150570  58.6948520  40.1813588   2.7325676
  59.3775184  41.0063878   3.8026959  68.2715393  52.6971112   7.4245555
  68.1240355  51.7687819   7.6053125  69.0968886  52.7191203   6.9402631
  62.1377637  41.3489179   3.2826048  62.4773709  41.8775100   2.5604656
  62.5849757  41.6869585   4.0584614  71.8749514  53.5199671   8.5110428
  72.7996062  53.3142532   8.3734879  71.7064818  53.2716072   9.4199770
  64.8321078  39.7326230  12.7329116  64.4917898  38.9334043  13.1349795
  64.1260084  40.0327941  12.1605949  65.4837550  36.8175542  11.1856439
  66.3063619  36.3436020  11.0635329  65.7275613  37.5966026  11.6855125
  64.1245784  39.8463801   1.4819340  64.8454147  40.2245053   0.9783057
  63.5011088  40.5652677   1.5854318  68.2676907  40.5508950   2.4177673
  68.4840521  41.4333587   2.1166501  67.7870974  40.1595163   1.6883315
  63.0076128  43.5094663   8.9948417  62.8620709  43.8234966   9.8872699
  62.5301332  44.1279563   8.4419316  64.8672511  40.4997211   9.0429307
  64.8534080  39.6038304   8.7061605  65.5844939  40.5067874   9.6767593
  66.7198642  40.9334551  11.0882434  66.4616420  41.8551622  11.0866765
  66.1883682  40.5364985  11.7782898  71.6644831  54.0385338   3.8672520
  71.8381708  53.4731761   3.1146372  72.1573722  54.8386233   3.6852010
  57.4821790  46.0500007  11.9336078  56.9375259  46.8259815  12.0656353
  58.3601140  46.3970812  11.7755200  64.2709407  39.3811591   4.3116877
  64.3925318  38.4528237   4.5107764  63.9811449  39.3950277   3.3995192
  67.1400597  37.0666501   7.4483597  67.1622294  37.1305835   6.4935576
  67.5568657  36.2271010   7.6424103  77.5184222  46.8021761   5.4862819
  77.9615368  46.0529086   5.0881943  76.6410732  46.7931897   5.1036551
  72.6520003  53.3552102   0.9669418  73.3470908  53.9758795   1.1856733
  72.9943153  52.5047454   1.2421796  58.2687812  45.1769903  14.8266235
  57.5269548  45.3252539  15.4130866  57.9480557  45.4378169  13.9632985
  74.5511426  50.8051808   2.4956749  75.0762750  51.1439081   1.7706069
  74.4633779  49.8698823   2.3119883  66.2131475  54.7185882  14.6246625
  66.5218601  54.4735028  15.4969325  67.0106957  54.9232520  14.1365496
  66.2352087  56.8723791   6.8552002  65.7957077  56.3800170   7.5484859
  66.9860204  56.3296759   6.6144077  58.7144426  53.0635332   6.8576630
  59.5402446  52.7639104   6.4775273  58.3638478  52.2942955   7.3066419
  63.6825959  52.4161800   8.9274304  63.0605968  51.7532505   8.6276531
  64.3530826  52.4422932   8.2447951  56.9153031  50.9821659   7.8165564
  56.0784939  50.5543833   7.6349565  56.8876676  51.1754102   8.7536355
  63.7550487  40.8943588  18.5206810  63.8038642  41.7705711  18.1384579
  64.2973001  40.3520981  17.9478453  74.2405332  51.4384712  17.8007947
  73.4500876  51.4208850  17.2612446  74.0038687  51.9773005  18.5556983
  74.3603207  48.2877178  15.1140675  74.4101212  48.1227185  16.0556198
  74.2517131  47.4204437  14.7238556  63.2439466  50.9665724   2.4032764
  63.3927586  51.6501188   1.7499437  64.0505910  50.9470814   2.9182220
  71.6506970  44.2708106  16.4299982  72.5516833  44.1314571  16.1383980
  71.7254944  44.4362561  17.3698159  65.9849775  41.6474961  15.2753168
  65.1153085  41.9408527  15.0035757  66.2209255  42.2315406  15.9960432
  75.8621404  50.7074119  15.3582697  75.5706213  51.0704100  16.1946158
  75.2493535  49.9941128  15.1796029  77.0617087  48.2726999   7.8785267
  77.8963978  48.7116803   8.0422827  77.1976215  47.7965652   7.0593513
  74.1108592  45.8306734  13.8262755  74.5862714  46.0234380  13.0181606
  73.1874158  45.8865920  13.5806138  60.9992099  46.9930901   3.4093833
  60.7538141  46.0893231   3.6074043  61.1688014  46.9948052   2.4673311
  68.6888809  37.8654578  12.7918589  69.2070753  38.6015605  12.4665077
  68.3343942  38.1718571  13.6265348  60.2687747  42.7259259   0.9079994
  59.5756992  42.8003614   0.2520030  60.0239498  41.9619603   1.4301511
  68.9401403  34.2854860   8.3119485  69.2203157  33.6178049   8.9379912
  69.7252010  34.4783956   7.7994149  66.7434872  53.4613854  -0.1255489
  66.1708839  54.0804041  -0.5785017  67.3167665  54.0113216   0.4084433
  72.8110261  42.7072494  12.0591060  73.7627684  42.8070592  12.0803284
  72.6413712  41.9150763  12.5689145  70.8324641  39.7928077  12.2450461
  70.2374573  40.0733090  11.5496950  70.5474338  40.2821978  13.0167202
  69.9632131  53.7451004   1.0053094  70.8962805  53.6796566   1.2085969
  69.8755344  54.5807271   0.5467626  72.5920148  53.0616875  -2.0342959
  72.5133780  52.7276738  -1.1407201  73.4129815  53.5538643  -2.0351486
  75.2898339  45.9278614  11.1733360  75.2574659  44.9894615  11.3593044
  75.8998963  46.0062651  10.4399185  67.1281670  44.7974667  -2.7839436
  68.0740775  44.6680875  -2.7151018  66.7495915  44.0589329  -2.3070008
  75.4392828  42.7189657  11.2191643  74.9231876  41.9348114  11.0321572
  76.3232776  42.3908374  11.3838163  73.1003555  36.4630673   7.1787456
  72.9028376  36.1545761   8.0630788  73.7103260  37.1892312   7.3085386
  81.1074889  46.9894621  10.3139397  81.8378278  46.7279909  10.8747100
  80.4981835  46.2523343  10.3541465  79.1890186  45.1302483  10.9113848
  78.4623350  44.9958448  10.3030340  78.7737473  45.4379312  11.7170566
  67.0120363  48.8492413  18.6761221  67.9323372  49.0271012  18.8701267
  66.9769946  47.9048458  18.5240920  65.3124587  42.7224643  -2.8484551
  64.4056043  42.4257756  -2.7721837  65.5900568  42.4254461  -3.7150265
  56.2302528  44.0431007   7.6014496  55.9105312  43.1896315   7.3088870
  55.6835956  44.2579585   8.3572463  60.0082435  46.7593448  11.3184002
  60.2268445  47.6910555  11.3372036  60.4208209  46.4001422  12.1038806
  66.9286653  37.2661533   3.3059691  66.1187381  36.9208618   3.6814937
  67.6171070  36.9569077   3.8947302  68.8577201  36.3439580   4.9283987
  69.4108240  36.7635033   5.5874010  69.0947288  35.4175328   4.9706943
  64.8810300  42.3326653  20.7086751  64.7807027  43.2821010  20.6398842
  64.6631843  42.0044892  19.8362821  56.0990788  47.6633918   9.5707617
  55.4054259  47.2487871   9.0577572  56.8463779  47.7054455   8.9741036
  72.2356008  38.4540105   4.4362651  71.6554677  39.1124909   4.0540704
  71.9691941  37.6317450   4.0250069  70.6859575  37.8545163   6.6383972
  71.1859353  37.9661697   5.8298291  71.3295183  37.5506215   7.2784780
  64.7441571  45.7623792  19.5251813  64.2608652  46.5624152  19.7315702
  64.8302510  45.7731737  18.5719257  58.0127530  47.5952172   7.4473632
  57.9898218  47.6939859   6.4955515  58.3228167  48.4417323   7.7690798
  60.6714908  49.6528327  11.5620246  61.6258162  49.6212269  11.4950178
  60.4727432  49.1918951  12.3770472  61.2614290  48.2229443  14.1291044
  62.0807179  48.7173522  14.1525881  61.5351098  47.3061411  14.1008612
  71.0180886  40.6140195   3.4919000  70.1306741  40.8989846   3.2739194
  71.4334875  40.4533959   2.6446277  74.3695423  40.6386716   7.2073339
  75.1455813  41.1283169   7.4797956  73.6443557  41.0644771   7.6645208
  76.8067981  41.3514336   8.2647280  77.4012472  41.1110071   7.5540588
  76.8794565  40.6321466   8.8920816  59.0265137  55.1947946   8.5790444
  58.8919605  54.4348347   8.0128442  58.6097199  55.9188846   8.1119233
  70.1624100  50.3784870  -2.4132980  70.8659950  50.5834872  -1.7975325
  69.4386749  50.9461632  -2.1483897  70.9921910  46.1294731   3.7069290
  70.9357112  46.5863283   2.8676922  71.5450253  45.3685416   3.5292133
  74.8026716  41.9184463   4.5319409  74.5463650  41.5181099   5.3627617
  74.1779584  42.6328257   4.4069548  79.1139054  44.6580536   7.0390701
  78.5538612  44.7273726   7.8122263  78.5082557  44.4821521   6.3190197
  62.1834263  56.0917263   8.7908887  62.0666647  57.0362696   8.6887577
  61.3626709  55.7890825   9.1794686  72.0710797  50.8167399  -0.3634520
  72.9056401  50.3848598  -0.5457045  71.9095140  50.6449413   0.5642374
  71.7256689  47.3199513   1.0021819  71.6705493  47.1543784   0.0610263
  71.1002745  48.0275545   1.1584009  56.5149204  42.5567577  14.8283241
  57.1608068  42.0466531  15.3170466  56.3066356  43.2936259  15.4026666
  69.0402597  49.6248424  20.3275382  69.9093756  49.7989077  19.9662017
  68.5609348  50.4442841  20.2051111  65.0352815  36.8207622   0.5807137
  65.0231485  37.7649461   0.7375408  65.9276237  36.6377767   0.2866599
  63.2088777  56.7445525  12.0064815  64.1116024  56.7769136  12.3231310
  62.9826147  55.8145976  12.0211151  64.9642379  55.4976512   8.6674894
  64.0138010  55.4978374   8.5539266  65.2674865  54.7509246   8.1510929
  68.8504934  33.4150398   4.8353074  68.0837330  32.8608885   4.9809757
  69.2615639  33.4872267   5.6967226  60.8546695  39.7035194  18.9258255
  61.7178157  39.3471999  19.1361580  60.2812106  39.3649089  19.6133660
  80.6995072  61.3337050   9.7320656  81.3373482  61.2143798   9.0283997
  80.5815915  62.2817894   9.7908609  77.5084779  61.2864478   9.6682181
  77.1703290  61.1705543   8.7802716  78.3774547  60.8855644   9.6483187
  73.3671594  63.1399955   5.6579072  72.8036459  63.0489892   4.8895360
  73.2523989  62.3199859   6.1381565  77.9904562  62.4399330  15.6268387
  77.9793202  62.0452128  14.7548890  78.1525201  61.7065403  16.2202158
  70.9136026  64.6351146   8.4963293  71.7057318  64.2941971   8.0809592
  71.1532676  64.7446121   9.4165446  78.9471153  66.8070923   0.9693537
  78.2959133  67.3925003   0.5827551  79.7415516  67.3377117   1.0288574
  72.8726780  63.8960060   1.3680671  73.6457656  63.3489047   1.2293547
  73.2252179  64.7604309   1.5795133  74.7111823  65.2236442  14.5747571
  74.4201689  66.1282073  14.4594237  75.3468807  65.2652970  15.2891640
  75.6368030  62.6013290  11.1648930  76.2331602  62.3769313  10.4505893
  75.6943001  61.8598036  11.7674378  75.2093058  60.0552726  -1.0000879
  75.4618579  59.5334247  -1.7617416  74.2717617  59.8918871  -0.8974195
  80.2536341  59.0588504   6.8073864  81.0399430  58.6407927   6.4564282
  80.5175045  59.9634596   6.9755513  80.4246418  64.4961354   1.5062521
  79.7892251  64.5695981   2.2183426  80.0943825  65.0854953   0.8281601
  85.6544768  58.9963737   7.7106843  86.3869940  58.4262954   7.9444672
  84.8984124  58.6085338   8.1513349  74.9289347  61.9580832   1.2023496
  74.8125605  61.2825735   1.8704581  75.0391607  61.4713206   0.3855649
  77.2720888  61.4190979   4.9070185  76.9079095  60.8921600   5.6183107
  78.1288004  61.0289448   4.7336671  83.1770188  52.7085311  12.1701452
  82.8453513  53.5780722  11.9462667  82.5815802  52.3921595  12.8495482
  76.9126375  56.4480879  -0.0968466  77.0800777  57.3161115   0.2702005
  76.7223544  56.6108160  -1.0207177  79.6701708  64.9097857  11.5697364
  79.3702431  65.8122896  11.4613172  79.3252767  64.6430041  12.4218517
  73.1214189  61.3611654   7.6034069  72.1964686  61.2287868   7.8111761
  73.3698603  62.1405874   8.1004011  83.0698852  57.4280398   9.2494802
  82.1615729  57.3595806   8.9553563  83.0186447  57.9052343  10.0776627
  76.8915596  58.9038536   0.8878201  76.7715221  59.3495587   1.7263681
  76.1968184  59.2523854   0.3291739  70.4823000  61.0044928   8.4377858
  70.6115382  61.2579407   9.3517270  69.8020452  61.5972636   8.1182513
  74.6522488  71.6742178   4.5368332  74.5746517  72.6250003   4.6156813
  74.0484131  71.3288050   5.1943258  77.1439717  58.8470043  17.1929699
  76.3673051  59.4063963  17.1832564  77.7830280  59.3326826  17.7144569
  84.9360498  55.6296836  11.0272676  84.2934878  55.9229369  10.3812470
  84.4315427  55.5149756  11.8325872  82.5900662  59.3760009   1.7158535
  83.5018518  59.6087396   1.5406232  82.0810309  59.9597053   1.1533613
  75.3986090  61.6555497  16.7547666  76.1400774  62.1940541  16.4782490
  74.6923075  62.2821785  16.9119218  80.8741429  63.7984637  15.3519827
  81.2824785  63.3567048  14.6074460  80.1518691  63.2237265  15.6054020
  77.2272499  58.7357244  12.7253384  78.0733695  59.1596657  12.8688033
  77.1671137  58.0790868  13.4191947  81.1970244  64.3585828   9.1072116
  80.5679106  64.5231542   8.4048184  80.8095906  64.7727437   9.8783080
  85.0759476  65.2940266   6.4616480  84.3910514  65.6739167   5.9113513
  85.1603325  65.9035592   7.1948428  80.3771945  56.3961612  14.3834558
  80.1332877  57.1503673  13.8468834  80.6531875  56.7746960  15.2181805
  82.3310407  62.9400225  13.0611824  82.5427303  63.5831984  12.3846205
  82.2840156  62.1062541  12.5933754  79.9336636  55.5518045   9.9648396
  79.0721115  55.8499299  10.2565133  79.9599071  55.7688444   9.0329428
  76.7498206  64.0960236   6.3722201  77.2136551  64.3747939   5.5826824
  76.4855004  63.1943680   6.1895292  73.6422287  63.6431717   9.3101965
  74.2123644  64.0718986   8.6719449  74.2330399  63.3614302  10.0086150
  75.6867092  60.2183388   3.1811767  76.3891135  60.6704432   3.6485693
  75.3547720  59.5767207   3.8091660  74.1347453  58.8095145  17.5562976
  73.5046114  59.4911426  17.7898373  74.0283541  58.6978226  16.6116114
  69.4292426  58.4766941   8.4828900  68.6391480  58.7324469   8.0069011
  69.9203673  59.2915279   8.5880941  83.4456235  65.8172180  11.2334181
  84.2673679  65.4152367  10.9516863  83.4418638  65.7140414  12.1850297
  71.3807171  58.8411520   5.4412377  70.5838335  58.9530214   5.9595872
  71.1532763  59.1798172   4.5753267  77.2112839  65.3656223  13.3894891
  77.2757271  65.8276631  14.2253063  76.5023763  64.7353588  13.5177201
  67.7130129  58.7297431  10.9143891  67.9638167  59.6144441  11.1801467
  68.2489677  58.5502033  10.1418983  91.5362228  62.1610928   7.5819152
  90.7825937  61.5918327   7.4263157  91.6709770  62.1273593   8.5289787
  76.9260857  67.0324331   3.2573872  76.7906531  67.8775866   3.6858720
  77.4670669  67.2343608   2.4939806  73.4128196  53.1115911  19.9188227
  73.0195142  52.5582109  20.5935871  74.2294337  53.4226489  20.3094745
  70.3790254  64.5499769   3.8301797  70.8914774  65.3443019   3.9807362
  71.0312967  63.8526059   3.7635398  72.1885139  67.6665525   5.9124550
  72.3651767  68.5883490   5.7245534  72.9841972  67.3523944   6.3418930
  76.3296157  54.5273790  17.5108484  77.0705871  55.1280943  17.4312946
  76.5614080  53.7851427  16.9526526  71.4737495  59.7130157  15.7886713
  71.3591010  58.8115414  16.0893812  70.6182013  59.9593854  15.4371530
  78.5529333  67.6547897  17.3874214  78.1093187  66.8684276  17.0695118
  79.2146547  67.8427048  16.7218105  73.3116454  69.1843699  11.9134892
  73.8623879  69.0560762  11.1411886  72.4727930  69.4838588  11.5629785
  80.6510571  67.9350697  15.4155615  80.6329046  68.7559578  14.9235884
  81.5730491  67.8104772  15.6405756  77.1083625  65.4494827  16.2579123
  77.6411962  64.6883115  16.0278431  76.5797706  65.1568478  17.0003278
  80.2753320  50.5554893  11.7872765  79.9317590  51.4456534  11.7111876
  80.6432283  50.3656550  10.9242350  68.3439171  62.8788423   4.6061367
  69.1814393  63.2885431   4.3895075  68.5217438  61.9387865   4.5761561
  80.2403603  60.5463504   0.2945200  79.7250226  61.3168108   0.5333588
  79.9680911  59.8728640   0.9178262  77.8250714  55.3913205   5.3530439
  76.9692310  55.0020055   5.1736077  78.2377666  55.4705165   4.4930224
  79.3549860  52.9259548   9.7521998  78.8514656  52.8889683   8.9389804
  79.6480467  53.8352291   9.8118655  75.5992746  53.0098278   8.7588180
  76.4645743  52.8141086   8.3994070  75.6670255  52.7808629   9.6857537
  85.2137877  63.2995858   2.2298374  84.4367320  62.9607018   1.7853536
  85.8929358  63.3048482   1.5553339  80.0289906  58.4190596   2.1204982
  79.7240042  58.7336745   2.9715125  80.9820348  58.4972016   2.1632315
  78.4736338  64.5780819   3.7697935  77.9457699  63.8433579   3.4571173
  77.9723841  65.3555496   3.5237904  83.4529184  62.7729840   8.8864982
  82.7952858  63.4629101   8.9745110  84.2569583  63.1626272   9.2298968
  73.2055065  55.2400485   6.1304547  73.7798817  55.0175667   5.3977740
  73.7926048  55.3089180   6.8833148  82.2634643  61.1274212   6.9368924
  82.7766524  61.7604204   7.4390633  82.9135867  60.5275408   6.5712284
  73.5324653  57.2704946   0.1500432  72.6961965  57.6079633   0.4709707
  73.3929422  57.1353926  -0.7872431  75.5077733  52.1141734   4.8579616
  74.8542146  51.7990752   4.2336231  75.4658207  51.4917475   5.5839439
  76.6188938  62.3961029  -3.2267091  75.7116000  62.1650283  -3.0275942
  77.1159970  61.5998649  -3.0393110  78.7415474  58.6023668   9.1827264
  77.8238035  58.8238615   9.0248952  79.1575617  58.6769978   8.3238971
  79.5250521  60.0015084   4.3129944  80.2722340  60.5136481   4.0037066
  79.7942111  59.6799136   5.1734338  77.7977171  62.4973624   1.2956899
  76.8888391  62.2132657   1.3929368  77.8272255  62.9172703   0.4360205
  83.0296439  66.1080214   5.0648066  82.5758766  65.2671124   5.1213257
  82.3990406  66.7441612   5.4022846  81.9729358  57.0372200   6.2948734
  81.2352115  56.5249586   6.6258976  82.2256132  56.5972581   5.4832011
  81.4729378  67.9456710   5.9997884  81.7652352  68.5061768   5.2810250
  81.9827999  68.2385271   6.7551043  82.0740986  49.8148452   6.8890503
  82.3799863  48.9545815   6.6016418  82.7993591  50.4066072   6.6889497
  68.3665342  60.2179138   5.2772101  68.1689742  59.6248499   4.5523167
  67.8112006  59.9131349   5.9948040  76.3462066  60.1102245   7.3966694
  76.4010675  59.1576081   7.3209171  75.5353268  60.2661684   7.8807992
  77.4953259  64.0382368  -1.3655023  77.0572689  63.3218227  -1.8249385
  78.2363700  64.2658483  -1.9269931  74.2854425  58.7279305   5.1557073
  73.4722291  59.0273475   5.5622265  74.7813420  58.3334993   5.8731555
  76.4363003  68.7237062   7.0891338  76.3939182  68.9497908   6.1599870
  77.3525702  68.4900436   7.2377139  79.8828637  59.1921129  13.9871967
  80.2378025  59.4192602  14.8466432  80.5300768  59.5239506  13.3649222
  85.6126374  62.3139565   4.6921296  85.4744273  62.5041161   3.7642485
  85.2562593  63.0758948   5.1489347  73.7768500  56.2997660  10.7718308
  74.4167880  56.1586419  10.0741271  72.9446031  56.0132174  10.3956910
  85.6395754  64.3816092   9.7032567  86.0732260  64.2891381  10.5515621
  86.3527334  64.3573592   9.0652583  74.5528804  65.6000091   6.8853300
  75.3469403  65.1050411   6.6835875  73.8420496  65.0717954   6.5221006
  79.3723649  67.9818186  11.2365668  79.4260671  68.5509122  12.0043384
  78.5038430  68.1520071  10.8719705  70.8611568  59.7443172   2.9613053
  69.9309156  59.6827628   3.1783015  70.9569040  59.2219125   2.1649694
  70.7797117  56.2697985   5.5491295  71.0403934  57.1843318   5.4400455
  71.6014289  55.8022428   5.6987907  72.2522042  57.6835742  12.7190119
  72.9245095  57.4753104  12.0702768  71.4251828  57.4857828  12.2795351
  86.5011303  64.4239793  12.2365453  86.6947193  65.3285603  12.4824728
  86.4011921  63.9647212  13.0704038  78.1547614  54.3097683  14.7355780
  77.5075529  55.0087633  14.6420256  78.9248629  54.7433827  15.1032028
  81.5626412  64.5746535  17.8106333  81.4111918  64.3457087  16.8936417
  81.5531091  65.5317137  17.8237678  78.3311748  62.1478448  12.7952600
  79.2603808  62.2989608  12.6221567  77.9102778  62.2362469  11.9401246
  77.1300080  66.1729113  10.5651137  76.9911166  65.8047897  11.4377075
  76.3414676  66.6876752  10.3935095  77.7248232  71.2738209   1.9076674
  77.8999988  70.8026252   2.7222297  77.0381020  71.9003975   2.1357935
  78.6805295  65.5510715   7.9539975  78.3455128  65.5111485   8.8497625
  78.1809241  64.8855431   7.4810385  72.6549539  60.9578345  13.4792556
  72.5169337  60.2258584  14.0804095  73.5654463  60.8687245  13.1976744
  81.6164487  62.8966750  -1.7722965  80.9993658  62.1713578  -1.8689913
  81.1480975  63.6576110  -2.1155891  75.2831840  60.6698305  12.9676236
  75.9931458  60.0291497  12.9262854  75.2401148  60.9211199  13.8902417
  83.2718619  67.6065658  15.8882815  83.2131165  66.9224878  15.2213398
  83.6738137  68.3484648  15.4363441  73.9960774  57.6563523  14.7871875
  73.4598131  57.2054261  15.4393472  73.4077482  57.7909431  14.0442340
  72.2909317  74.4227572   8.6816534  72.5305916  75.0546096   9.3595553
  71.4478514  74.0715612   8.9681893  73.4063033  57.1152174  -2.6501661
  72.5292499  56.9940975  -3.0139414  73.8820786  56.3238252  -2.9022772
  83.2736026  65.5705242  14.1196795  82.3862805  65.2331164  14.2423194
  83.8434577  64.8388273  14.3565560  64.9265173  61.9029334   7.4439846
  65.6136213  61.5891064   6.8560862  64.7713302  62.8070698   7.1707098
  69.7299895  56.7919530  11.8724870  69.6458084  56.1845200  11.1375280
  68.9082601  57.2828549  11.8734366  76.8037179  70.2306694  11.0858038
  76.7307351  71.0361666  11.5977343  76.3614572  70.4298660  10.2606059
  76.5926959  69.4678464   4.5960860  75.8094481  70.0100144   4.6899084
  77.2919704  69.9852444   4.9955101  79.9023609  55.2773094   7.2395065
  80.3992308  54.5243056   6.9196135  79.1310590  55.3137410   6.6738274
  87.7553366  60.9813459   8.8813356  87.7443243  61.8638175   8.5107290
  86.8870746  60.6285010   8.6867894  79.2635863  70.1293528  13.2416197
  79.9763835  70.7640993  13.1692098  78.7725891  70.2257394  12.4256199
  80.9853390  64.0344781   4.8133488  80.0509668  64.1546243   4.6438193
  81.1630058  63.1317248   4.5493498  76.4858578  57.4190477   6.9666750
  76.1156365  56.8661517   7.6547655  76.9817670  56.8148610   6.4141750
  84.3725941  59.8762100   5.3483522  84.8386393  60.7090092   5.2743825
  84.8233441  59.4107082   6.0528781  74.3147776  67.8787972  14.0621768
  75.0157236  68.5124455  14.2151162  73.8442891  68.2202703  13.3017407
  82.4402172  66.2205922   2.3469675  82.7162016  66.1062516   3.2563549
  81.5706671  65.8223406   2.3081848  82.3442604  52.2442687   9.3874424
  81.4305684  52.4746914   9.5556631  82.7735705  52.3281131  10.2388456
  82.1149062  60.4332579  11.8874318  81.4620512  60.6808487  11.2326771
  82.4929442  59.6196717  11.5536795  79.0756236  70.4692272   5.9902488
  79.2578631  69.6513928   6.4530240  79.8989222  70.6859965   5.5527378
  79.4098402  69.3960458   3.2517537  79.9386168  68.8852912   2.6387699
  79.6726621  69.0802988   4.1163070  78.1636635  61.1752390  18.3740355
  77.4877272  61.0746520  19.0442730  78.9864269  61.0191604  18.8376352
  69.9115494  67.4124327  10.9952870  70.4968931  66.6668015  11.1280774
  69.7140333  67.7228284  11.8789534  72.7654150  70.4475574   6.0115313
  72.0964525  70.9321702   5.5279353  72.6267019  70.6944795   6.9258691
  64.5033149  59.9829927   9.7157313  64.5417249  59.4493518  10.5094431
  63.9973442  59.4565133   9.0968291  76.9059418  72.4819318  12.6097971
  77.4577726  72.6450939  13.3747056  77.2465612  73.0723756  11.9377996
  71.8823911  54.8294468  13.2119856  71.9465238  55.6909298  12.7997253
  71.8191032  54.2168469  12.4792214  71.3576184  56.9017600  16.8592890
  71.9848223  56.5194677  17.4730414  70.5004103  56.6831802  17.2248582
  81.7570292  67.3080575  18.4646625  82.3010196  67.9210533  17.9701580
  81.1757137  67.8660154  18.9813638  68.1341727  58.7094029   2.7911245
  68.4295168  57.8004708   2.7378298  67.2329762  58.6881769   2.4692247
  80.0427805  70.4301293   9.5961653  79.9178945  69.6291033   9.0872599
  80.7006897  70.9247487   9.1075623  71.6635974  56.7850026   8.7738793
  70.9422559  57.3985993   8.6346267  72.4529229  57.3207791   8.6955439
  82.1062714  68.2310313  11.2241203  81.1593049  68.1115665  11.1519530
  82.4545487  67.3432811  11.3067465  74.4662287  54.1204452  15.0479445
  74.9896689  54.3666749  15.8105754  74.2474620  54.9524487  14.6282582
  69.8629568  56.3908127   2.9150570  69.5342274  55.5105506   2.7325676
  70.2168939  56.3355796   3.8026959  79.1109147  68.0263030   7.4245555
  78.9634110  67.0979737   7.6053125  79.9362641  68.0483120   6.9402631
  72.9771391  56.6781097   3.2826048  73.3167464  57.2067018   2.5604656
  73.4243512  57.0161503   4.0584614  82.7143269  68.8491588   8.5110428
  83.6389816  68.6434450   8.3734879  82.5458572  68.6007989   9.4199770
  75.6714832  55.0618147  12.7329116  75.3311653  54.2625960  13.1349795
  74.9653838  55.3619858  12.1605949  76.3231304  52.1467460  11.1856439
  77.1457373  51.6727938  11.0635329  76.5669368  52.9257944  11.6855125
  74.9639539  55.1755718   1.4819340  75.6847901  55.5536971   0.9783057
  74.3404843  55.8944595   1.5854318  79.1070661  55.8800867   2.4177673
  79.3234276  56.7625505   2.1166501  78.6264729  55.4887081   1.6883315
  73.8469883  58.8386580   8.9948417  73.7014464  59.1526883   9.8872699
  73.3695086  59.4571481   8.4419316  75.7066266  55.8289128   9.0429307
  75.6927834  54.9330222   8.7061605  76.4238694  55.8359792   9.6767593
  77.5592396  56.2626469  11.0882434  77.3010174  57.1843539  11.0866765
  77.0277437  55.8656903  11.7782898  82.5038585  69.3677256   3.8672520
  82.6775463  68.8023678   3.1146372  82.9967476  70.1678151   3.6852010
  68.3215545  61.3791925  11.9336078  67.7769013  62.1551733  12.0656353
  69.1994895  61.7262729  11.7755200  75.1103162  54.7103509   4.3116877
  75.2319073  53.7820155   4.5107764  74.8205204  54.7242195   3.3995192
  77.9794352  52.3958419   7.4483597  78.0016049  52.4597752   6.4935576
  78.3962411  51.5562928   7.6424103  88.3577976  62.1313679   5.4862819
  88.8009122  61.3821004   5.0881943  87.4804487  62.1223815   5.1036551
  83.4913758  68.6844020   0.9669418  84.1864662  69.3050713   1.1856733
  83.8336908  67.8339371   1.2421796  69.1081567  60.5061821  14.8266235
  68.3663303  60.6544456  15.4130866  68.7874311  60.7670087  13.9632985
  85.3905181  66.1343726   2.4956749  85.9156505  66.4730998   1.7706069
  85.3027533  65.1990741   2.3119883  77.0525229  70.0477799  14.6246625
  77.3612356  69.8026946  15.4969325  77.8500711  70.2524438  14.1365496
  77.0745841  72.2015709   6.8552002  76.6350832  71.7092088   7.5484859
  77.8253958  71.6588677   6.6144077  69.5538180  68.3927250   6.8576630
  70.3796200  68.0931022   6.4775273  69.2032232  67.6234872   7.3066419
  74.5219714  67.7453718   8.9274304  73.8999723  67.0824423   8.6276531
  75.1924581  67.7714850   8.2447951  67.7546786  66.3113576   7.8165564
  66.9178694  65.8835751   7.6349565  67.7270431  66.5046020   8.7536355
  74.5944241  56.2235506  18.5206810  74.6432397  57.0997629  18.1384579
  75.1366755  55.6812899  17.9478453  85.0799087  66.7676629  17.8007947
  84.2894631  66.7500768  17.2612446  84.8432441  67.3064923  18.5556983
  85.1996962  63.6169096  15.1140675  85.2494967  63.4519103  16.0556198
  85.0910885  62.7496355  14.7238556  74.0833221  66.2957641   2.4032764
  74.2321341  66.9793106   1.7499437  74.8899664  66.2762731   2.9182220
  82.4900724  59.6000024  16.4299982  83.3910587  59.4606489  16.1383980
  82.5648699  59.7654479  17.3698159  76.8243530  56.9766878  15.2753168
  75.9546839  57.2700444  15.0035757  77.0603010  57.5607323  15.9960432
  86.7015159  66.0366037  15.3582697  86.4099967  66.3996018  16.1946158
  86.0887290  65.3233045  15.1796029  87.9010841  63.6018917   7.8785267
  88.7357732  64.0408721   8.0422827  88.0369970  63.1257570   7.0593513
  84.9502347  61.1598652  13.8262755  85.4256469  61.3526298  13.0181606
  84.0267912  61.2157838  13.5806138  71.8385854  62.3222819   3.4093833
  71.5931895  61.4185149   3.6074043  72.0081768  62.3239969   2.4673311
  79.5282563  53.1946495  12.7918589  80.0464507  53.9307522  12.4665077
  79.1737696  53.5010489  13.6265348  71.1081501  58.0551177   0.9079994
  70.4150746  58.1295532   0.2520030  70.8633253  57.2911520   1.4301511
  79.7795158  49.6146778   8.3119485  80.0596911  48.9469967   8.9379912
  80.5645765  49.8075874   7.7994149  77.5828626  68.7905772  -0.1255489
  77.0102593  69.4095959  -0.5785017  78.1561420  69.3405133   0.4084433
  83.6504016  58.0364412  12.0591060  84.6021439  58.1362510  12.0803284
  83.4807466  57.2442680  12.5689145  81.6718395  55.1219995  12.2450461
  81.0768328  55.4025008  11.5496950  81.3868092  55.6113896  13.0167202
  80.8025886  69.0742922   1.0053094  81.7356559  69.0088484   1.2085969
  80.7149099  69.9099189   0.5467626  86.1292094  61.2570532  11.1733360
  86.0968414  60.3186532  11.3593044  86.7392717  61.3354568  10.4399185
  77.9675425  60.1266585  -2.7839436  78.9134529  59.9972793  -2.7151018
  77.5889670  59.3881246  -2.3070008  86.2786582  58.0481575  11.2191643
  85.7625631  57.2640032  11.0321572  87.1626531  57.7200292  11.3838163
  83.9397309  51.7922591   7.1787456  83.7422130  51.4837679   8.0630788
  84.5497015  52.5184229   7.3085386  91.9468644  62.3186538  10.3139397
  92.6772032  62.0571827  10.8747100  91.3375589  61.5815260  10.3541465
  90.0283941  60.4594401  10.9113848  89.3017104  60.3250366  10.3030340
  89.6131228  60.7671230  11.7170566  77.8514117  64.1784331  18.6761221
  78.7717127  64.3562930  18.8701267  77.8163700  63.2340376  18.5240920
  76.1518342  58.0516561  -2.8484551  75.2449797  57.7549674  -2.7721837
  76.4294323  57.7546379  -3.7150265  67.0696282  59.3722924   7.6014496
  66.7499066  58.5188233   7.3088870  66.5229710  59.5871502   8.3572463
  70.8476190  62.0885365  11.3184002  71.0662199  63.0202473  11.3372036
  71.2601963  61.7293340  12.1038806  77.7680407  52.5953451   3.3059691
  76.9581136  52.2500536   3.6814937  78.4564824  52.2860994   3.8947302
  79.6970956  51.6731497   4.9283987  80.2501994  52.0926951   5.5874010
  79.9341042  50.7467246   4.9706943  75.7204055  57.6618571  20.7086751
  75.6200782  58.6112928  20.6398842  75.5025597  57.3336810  19.8362821
  74.9217126  54.9103496  -2.7072572  75.7836290  55.2358394  -2.4476754
  75.1067471  54.1234992  -3.2199506  66.9384542  62.9925836   9.5707617
  66.2448014  62.5779789   9.0577572  67.6857533  63.0346372   8.9741036
  83.0749763  53.7832023   4.4362651  82.4948432  54.4416827   4.0540704
  82.8085696  52.9609367   4.0250069  81.5253329  53.1837080   6.6383972
  82.0253108  53.2953615   5.8298291  82.1688937  52.8798133   7.2784780
  75.5835325  61.0915710  19.5251813  75.1002407  61.8916070  19.7315702
  75.6696264  61.1023655  18.5719257  68.8521285  62.9244090   7.4473632
  68.8291973  63.0231777   6.4955515  69.1621921  63.7709240   7.7690798
  71.5108663  64.9820245  11.5620246  72.4651916  64.9504187  11.4950178
  71.3121186  64.5210868  12.3770472  72.1008045  63.5521361  14.1291044
  72.9200934  64.0465439  14.1525881  72.3744852  62.6353329  14.1008612
  81.8574641  55.9432113   3.4919000  80.9700496  56.2281764   3.2739194
  82.2728630  55.7825876   2.6446277  85.2089177  55.9678634   7.2073339
  85.9849567  56.4575086   7.4797956  84.4837311  56.3936688   7.6645208
  87.6461736  56.6806253   8.2647280  88.2406226  56.4401989   7.5540588
  87.7188319  55.9613384   8.8920816  69.8658891  70.5239864   8.5790444
  69.7313359  69.7640265   8.0128442  69.4490954  71.2480764   8.1119233
  81.0017854  65.7076788  -2.4132980  81.7053704  65.9126790  -1.7975325
  80.2780503  66.2753550  -2.1483897  81.8315665  61.4586649   3.7069290
  81.7750866  61.9155200   2.8676922  82.3844007  60.6977334   3.5292133
  85.6420471  57.2476381   4.5319409  85.3857405  56.8473016   5.3627617
  85.0173339  57.9620175   4.4069548  89.9532808  59.9872454   7.0390701
  89.3932366  60.0565643   7.8122263  89.3476312  59.8113439   6.3190197
  73.0228017  71.4209181   8.7908887  72.9060401  72.3654614   8.6887577
  72.2020463  71.1182743   9.1794686  82.9104552  66.1459317  -0.3634520
  83.7450156  65.7140515  -0.5457045  82.7488895  65.9741331   0.5642374
  82.5650444  62.6491430   1.0021819  82.5099248  62.4835702   0.0610263
  81.9396499  63.3567463   1.1584009  67.3542959  57.8859495  14.8283241
  68.0001822  57.3758449  15.3170466  67.1460110  58.6228176  15.4026666
  79.8796351  64.9540342  20.3275382  80.7487511  65.1280994  19.9662017
  79.4003103  65.7734759  20.2051111  75.8746569  52.1499539   0.5807137
  75.8625239  53.0941379   0.7375408  76.7669991  51.9669685   0.2866599
  74.0482531  72.0737443  12.0064815  74.9509778  72.1061053  12.3231310
  73.8219901  71.1437894  12.0211151  75.8036133  70.8268430   8.6674894
  74.8531764  70.8270291   8.5539266  76.1068619  70.0801164   8.1510929
  79.6898689  48.7442316   4.8353074  78.9231085  48.1900803   4.9809757
  80.1009394  48.8164185   5.6967226  71.6940450  55.0327112  18.9258255
  72.5571911  54.6763916  19.1361580  71.1205861  54.6941006  19.6133660
  91.5388827  76.6628968   9.7320656  92.1767237  76.5435715   9.0283997
  91.4209670  77.6109812   9.7908609  88.3478533  76.6156396   9.6682181
  88.0097045  76.4997461   8.7802716  89.2168301  76.2147561   9.6483187
  88.8298316  77.7691248  15.6268387  88.8186957  77.3744046  14.7548890
  88.9918956  77.0357320  16.2202158  81.7529781  79.9643064   8.4963293
  82.5451073  79.6233889   8.0809592  81.9926431  80.0738039   9.4165446
  85.5505577  80.5528360  14.5747571  85.2595443  81.4573990  14.4594237
  86.1862562  80.5944887  15.2891640  86.4761784  77.9305208  11.1648930
  87.0725356  77.7061231  10.4505893  86.5336756  77.1889954  11.7674378
  91.0930095  74.3880422   6.8073864  91.8793185  73.9699845   6.4564282
  91.3568800  75.2926514   6.9755513  94.0163943  68.0377229  12.1701452
  93.6847268  68.9072640  11.9462667  93.4209556  67.7213513  12.8495482
  90.5095462  80.2389775  11.5697364  90.2096185  81.1414814  11.4613172
  90.1646522  79.9721958  12.4218517  83.9607944  76.6903572   7.6034069
  83.0358440  76.5579786   7.8111761  84.2092357  77.4697791   8.1004011
  93.9092606  72.7572315   9.2494802  93.0009483  72.6887724   8.9553563
  93.8580202  73.2344260  10.0776627  81.3216755  76.3336846   8.4377858
  81.4509136  76.5871324   9.3517270  80.6414206  76.9264554   8.1182513
  87.9833472  74.1761961  17.1929699  87.2066806  74.7355881  17.1832564
  88.6224035  74.6618744  17.7144569  95.7754253  70.9588754  11.0272676
  95.1328633  71.2521287  10.3812470  95.2709181  70.8441674  11.8325872
  86.2379844  76.9847414  16.7547666  86.9794529  77.5232458  16.4782490
  85.5316830  77.6113703  16.9119218  91.7135184  79.1276555  15.3519827
  92.1218540  78.6858965  14.6074460  90.9912445  78.5529182  15.6054020
  88.0666254  74.0649162  12.7253384  88.9127449  74.4888575  12.8688033
  88.0064892  73.4082786  13.4191947  91.2165699  71.7253530  14.3834558
  90.9726631  72.4795590  13.8468834  91.4925630  72.1038877  15.2181805
  93.1704162  78.2692142  13.0611824  93.3821057  78.9123902  12.3846205
  93.1233910  77.4354459  12.5933754  90.7730391  70.8809963   9.9648396
  89.9114870  71.1791216  10.2565133  90.7992826  71.0980362   9.0329428
  84.4816041  78.9723635   9.3101965  85.0517398  79.4010903   8.6719449
  85.0724153  78.6906220  10.0086150  84.9741208  74.1387062  17.5562976
  84.3439869  74.8203343  17.7898373  84.8677296  74.0270144  16.6116114
  80.2686180  73.8058858   8.4828900  79.4785234  74.0616387   8.0069011
  80.7597428  74.6207196   8.5880941  82.2200926  74.1703438   5.4412377
  81.4232089  74.2822132   5.9595872  81.9926518  74.5090090   4.5753267
  88.0506593  80.6948141  13.3894891  88.1151026  81.1568548  14.2253063
  87.3417517  80.0645506  13.5177201  78.5523883  74.0589349  10.9143891
  78.8031922  74.9436359  11.1801467  79.0883432  73.8793950  10.1418983
  84.2521951  68.4407828  19.9188227  83.8588896  67.8874027  20.5935871
  85.0688091  68.7518407  20.3094745  87.1689912  69.8565707  17.5108484
  87.9099625  70.4572861  17.4312946  87.4007834  69.1143345  16.9526526
  82.3131250  75.0422075  15.7886713  82.1984765  74.1407332  16.0893812
  81.4575767  75.2885771  15.4371530  89.3923087  82.9839815  17.3874214
  88.9486942  82.1976194  17.0695118  90.0540301  83.1718965  16.7218105
  84.1510209  84.5135617  11.9134892  84.7017634  84.3852680  11.1411886
  83.3121684  84.8130506  11.5629785  91.4904325  83.2642615  15.4155615
  91.4722801  84.0851496  14.9235884  92.4124246  83.1396690  15.6405756
  87.9477380  80.7786744  16.2579123  88.4805716  80.0175033  16.0278431
  87.4191461  80.4860396  17.0003278  91.1147075  65.8846810  11.7872765
  90.7711344  66.7748452  11.7111876  91.4826037  65.6948468  10.9242350
  79.1832925  78.2080341   4.6061367  80.0208147  78.6177349   4.3895075
  79.3611193  77.2679783   4.5761561  88.6644468  70.7205122   5.3530439
  87.8086065  70.3311973   5.1736077  89.0771420  70.7997083   4.4930224
  90.1943615  68.2551465   9.7521998  89.6908411  68.2181601   8.9389804
  90.4874222  69.1644208   9.8118655  86.4386501  68.3390195   8.7588180
  87.3039498  68.1433004   8.3994070  86.5064010  68.1100547   9.6857537
  84.0448820  70.5692403   6.1304547  84.6192572  70.3467585   5.3977740
  84.6319802  70.6381098   6.8833148  86.3471488  67.4433652   4.8579616
  85.6935900  67.1282669   4.2336231  86.3051962  66.8209392   5.5839439
  89.5809228  73.9315586   9.1827264  88.6631789  74.1530533   9.0248952
  89.9969372  74.0061896   8.3238971  92.9134740  65.1440370   6.8890503
  93.2193617  64.2837733   6.6016418  93.6387345  65.7357990   6.6889497
  79.2059096  75.5471056   5.2772101  79.0083496  74.9540417   4.5523167
  78.6505760  75.2423266   5.9948040  87.1855820  75.4394163   7.3966694
  87.2404430  74.4867999   7.3209171  86.3747022  75.5953602   7.8807992
  85.1248180  74.0571222   5.1557073  84.3116045  74.3565393   5.5622265
  85.6207174  73.6626911   5.8731555  90.7222392  74.5213047  13.9871967
  91.0771779  74.7484520  14.8466432  91.3694523  74.8531424  13.3649222
  84.6162255  71.6289578  10.7718308  85.2561634  71.4878337  10.0741271
  83.7839785  71.3424091  10.3956910  90.2117403  83.3110104  11.2365668
  90.2654425  83.8801040  12.0043384  89.3432184  83.4811989  10.8719705
  81.6190871  71.5989903   5.5491295  81.8797688  72.5135236   5.4400455
  82.4408043  71.1314345   5.6987907  83.0915796  73.0127660  12.7190119
  83.7638850  72.8045022  12.0702768  82.2645583  72.8149746  12.2795351
  88.9941368  69.6389601  14.7355780  88.3469283  70.3379551  14.6420256
  89.7642384  70.0725745  15.1032028  92.4020166  79.9038453  17.8106333
  92.2505673  79.6749005  16.8936417  92.3924846  80.8609055  17.8237678
  89.1705503  77.4770366  12.7952600  90.0997563  77.6281525  12.6221567
  88.7496533  77.5654387  11.9401246  87.9693835  81.5021030  10.5651137
  87.8304920  81.1339815  11.4377075  87.1808431  82.0168670  10.3935095
  83.4943294  76.2870263  13.4792556  83.3563092  75.5550502  14.0804095
  84.4048217  76.1979163  13.1976744  86.1225594  75.9990222  12.9676236
  86.8325213  75.3583414  12.9262854  86.0794903  76.2503117  13.8902417
  94.1112373  82.9357576  15.8882815  94.0524919  82.2516796  15.2213398
  94.5131891  83.6776566  15.4363441  84.8354528  72.9855440  14.7871875
  84.2991885  72.5346179  15.4393472  84.2471237  73.1201349  14.0442340
  94.1129780  80.8997160  14.1196795  93.2256559  80.5623081  14.2423194
  94.6828331  80.1680191  14.3565560  75.7658927  77.2321251   7.4439846
  76.4529967  76.9182981   6.8560862  75.6107056  78.1362616   7.1707098
  80.5693650  72.1211448  11.8724870  80.4851838  71.5137117  11.1375280
  79.7476356  72.6120466  11.8734366  90.7417363  70.6065011   7.2395065
  91.2386063  69.8534974   6.9196135  89.9704345  70.6429328   6.6738274
  90.1029617  85.4585446  13.2416197  90.8157589  86.0932911  13.1692098
  89.6119646  85.5549312  12.4256199  87.3252332  72.7482394   6.9666750
  86.9550120  72.1953435   7.6547655  87.8211425  72.1440528   6.4141750
  85.1541531  83.2079889  14.0621768  85.8550990  83.8416372  14.2151162
  84.6836646  83.5494621  13.3017407  93.1836358  67.5734605   9.3874424
  92.2699438  67.8038832   9.5556631  93.6129460  67.6573049  10.2388456
  92.9542817  75.7624497  11.8874318  92.3014267  76.0100404  11.2326771
  93.3323197  74.9488635  11.5536795  89.0030390  76.5044308  18.3740355
  88.3271027  76.4038437  19.0442730  89.8258024  76.3483522  18.8376352
  80.7509249  82.7416244  10.9952870  81.3362686  81.9959932  11.1280774
  80.5534087  83.0520201  11.8789534  75.3426904  75.3121845   9.7157313
  75.3811003  74.7785435  10.5094431  74.8367196  74.7857050   9.0968291
  82.7217666  70.1586385  13.2119856  82.7858992  71.0201216  12.7997253
  82.6584786  69.5460387  12.4792214  82.1969938  72.2309518  16.8592890
  82.8241977  71.8486595  17.4730414  81.3397857  72.0123720  17.2248582
  92.5964047  82.6372493  18.4646625  93.1403951  83.2502451  17.9701580
  92.0150892  83.1952071  18.9813638  78.9735481  74.0385947   2.7911245
  79.2688922  73.1296625   2.7378298  78.0723517  74.0173686   2.4692247
  82.5029728  72.1141943   8.7738793  81.7816314  72.7277911   8.6346267
  83.2922984  72.6499708   8.6955439  85.3056042  69.4496370  15.0479445
  85.8290443  69.6958666  15.8105754  85.0868375  70.2816405  14.6282582
  80.7023323  71.7200044   2.9150570  80.3736029  70.8397423   2.7325676
  81.0562693  71.6647713   3.8026959  83.8165146  72.0073014   3.2826048
  84.1561218  72.5358936   2.5604656  84.2637266  72.3453420   4.0584614
  86.5108587  70.3910065  12.7329116  86.1705407  69.5917878  13.1349795
  85.8047593  70.6911776  12.1605949  87.1625059  67.4759377  11.1856439
  87.9851128  67.0019856  11.0635329  87.4063122  68.2549861  11.6855125
  84.6863637  74.1678498   8.9948417  84.5408218  74.4818801   9.8872699
  84.2088841  74.7863398   8.4419316  86.5460020  71.1581046   9.0429307
  86.5321589  70.2622139   8.7061605  87.2632448  71.1651710   9.6767593
  88.3986151  71.5918386  11.0882434  88.1403929  72.5135457  11.0866765
  87.8671191  71.1948821  11.7782898  79.1609299  76.7083842  11.9336078
  78.6162768  77.4843650  12.0656353  80.0388649  77.0554647  11.7755200
  85.9496916  70.0395426   4.3116877  86.0712827  69.1112073   4.5107764
  85.6598958  70.0534112   3.3995192  88.8188106  67.7250337   7.4483597
  88.8409803  67.7889670   6.4935576  89.2356165  66.8854845   7.6424103
  79.9475321  75.8353739  14.8266235  79.2057057  75.9836374  15.4130866
  79.6268066  76.0962004  13.9632985  87.8918984  85.3769717  14.6246625
  88.2006110  85.1318864  15.4969325  88.6894466  85.5816355  14.1365496
  78.5940540  81.6405494   7.8165564  77.7572448  81.2127668   7.6349565
  78.5664185  81.8337937   8.7536355  85.4337996  71.5527424  18.5206810
  85.4826151  72.4289547  18.1384579  85.9760510  71.0104817  17.9478453
  95.9192841  82.0968547  17.8007947  95.1288385  82.0792686  17.2612446
  95.6826196  82.6356841  18.5556983  96.0390716  78.9461013  15.1140675
  96.0888721  78.7811021  16.0556198  95.9304640  78.0788272  14.7238556
  93.3294479  74.9291941  16.4299982  94.2304342  74.7898406  16.1383980
  93.4042453  75.0946396  17.3698159  87.6637284  72.3058796  15.2753168
  86.7940593  72.5992362  15.0035757  87.8996764  72.8899241  15.9960432
  97.5408913  81.3657955  15.3582697  97.2493721  81.7287935  16.1946158
  96.9281044  80.6524963  15.1796029  95.7896101  76.4890569  13.8262755
  96.2650223  76.6818216  13.0181606  94.8661667  76.5449755  13.5806138
  90.3676318  68.5238413  12.7918589  90.8858262  69.2599440  12.4665077
  90.0131451  68.8302406  13.6265348  90.6188912  64.9438696   8.3119485
  90.8990666  64.2761885   8.9379912  91.4039519  65.1367791   7.7994149
  94.4897770  73.3656330  12.0591060  95.4415193  73.4654427  12.0803284
  94.3201221  72.5734598  12.5689145  92.5112150  70.4511913  12.2450461
  91.9162082  70.7316926  11.5496950  92.2261847  70.9405814  13.0167202
  96.9685848  76.5862449  11.1733360  96.9362168  75.6478450  11.3593044
  97.5786472  76.6646486  10.4399185  97.1180337  73.3773493  11.2191643
  96.6019385  72.5931949  11.0321572  98.0020285  73.0492209  11.3838163
  94.7791064  67.1214508   7.1787456  94.5815885  66.8129596   8.0630788
  95.3890769  67.8476147   7.3085386  88.6907872  79.5076248  18.6761221
  89.6110881  79.6854847  18.8701267  88.6557455  78.5632294  18.5240920
  77.9090037  74.7014842   7.6014496  77.5892821  73.8480150   7.3088870
  77.3623465  74.9163420   8.3572463  81.6869944  77.4177283  11.3184002
  81.9055954  78.3494391  11.3372036  82.0995718  77.0585257  12.1038806
  88.6074162  67.9245368   3.3059691  87.7974890  67.5792453   3.6814937
  89.2958579  67.6152912   3.8947302  90.5364710  67.0023415   4.9283987
  91.0895749  67.4218869   5.5874010  90.7734797  66.0759163   4.9706943
  86.5597809  72.9910489  20.7086751  86.4594536  73.9404846  20.6398842
  86.3419352  72.6628728  19.8362821  77.7778297  78.3217754   9.5707617
  77.0841768  77.9071706   9.0577572  78.5251288  78.3638290   8.9741036
  92.3647084  68.5128998   6.6383972  92.8646862  68.6245533   5.8298291
  93.0082692  68.2090051   7.2784780  86.4229080  76.4207628  19.5251813
  85.9396161  77.2207988  19.7315702  86.5090019  76.4315572  18.5719257
  79.6915039  78.2536007   7.4473632  79.6685727  78.3523695   6.4955515
  80.0015676  79.1001158   7.7690798  82.3502417  80.3112162  11.5620246
  83.3045671  80.2796105  11.4950178  82.1514941  79.8502786  12.3770472
  82.9401799  78.8813278  14.1291044  83.7594688  79.3757357  14.1525881
  83.2138607  77.9645247  14.1008612  96.0482931  71.2970552   7.2073339
  96.8243322  71.7867004   7.4797956  95.3231066  71.7228606   7.6645208
  78.1936713  73.2151412  14.8283241  78.8395577  72.7050366  15.3170466
  77.9853865  73.9520094  15.4026666  90.7190106  80.2832260  20.3275382
  91.5881265  80.4572912  19.9662017  90.2396857  81.1026677  20.2051111
  84.8876286  87.4029361  12.0064815  85.7903533  87.4352971  12.3231310
  84.6613656  86.4729812  12.0211151  90.5292443  64.0734234   4.8353074
  89.7624839  63.5192720   4.9809757  90.9403148  64.1456102   5.6967226
  82.5334204  70.3619029  18.9258255  83.3965666  70.0055834  19.1361580
  81.9599615  70.0232924  19.6133660  95.0915705  83.7699746  19.9188227
  94.6982651  83.2165945  20.5935871  95.9081845  84.0810324  20.3094745
  98.0083666  85.1857625  17.5108484  98.7493380  85.7864778  17.4312946
  98.2401589  84.4435263  16.9526526  93.0363693  87.5601435  16.8592890
  93.6635732  87.1778513  17.4730414  92.1791612  87.3415637  17.2248582
  96.2731750  86.8819341  18.5206810  96.3219906  87.7581464  18.1384579
  96.8154264  86.3396734  17.9478453  97.3991564  88.3202406  20.7086751
  97.2988291  89.2696763  20.6398842  97.1813106  87.9920645  19.8362821
  89.0330468  88.5443330  14.8283241  89.6789331  88.0342284  15.3170466
  88.8247619  89.2812012  15.4026666  93.3727959  85.6910947  18.9258255
  94.2359420  85.3347752  19.1361580  92.7993370  85.3524842  19.6133660
  67.7135580  29.3318102   4.1119520  67.2699434  28.5454481   3.7940425
  68.3752793  29.5197253   3.4463411  69.8116818  29.6120902   2.1400922
  69.7935293  30.4329783   1.6481191  70.7336738  29.4874977   2.3651063
  70.7232659  26.2516740   4.5351640  70.5718165  26.0227292   3.6181724
  70.7137338  27.2087342   4.5482985  72.4324865  29.2835863   2.6128122
  72.3737411  28.5995083   1.9458705  72.8344384  30.0254853   2.1608748
  70.9176539  28.9850780   5.1891932  71.4616443  29.5980738   4.6946887
  70.3363384  29.5430359   5.7058945  74.2405334  28.4446834   4.5253253
  73.4500877  28.4270973   3.9857753  74.0038688  28.9835128   5.2802290
  75.8621405  27.7136242   2.0828003  75.5706214  28.0766223   2.9191464
  75.2493537  27.0003250   1.9041335  69.0402598  26.6310547   7.0520688
  69.9093757  26.8051199   6.6907323  68.5609349  27.4504964   6.9296418
  80.6995074  38.3399173  -3.5434037  81.3373484  38.2205920  -4.2470697
  80.5815916  39.2880017  -3.4846085  77.5084780  38.2926601  -3.6072512
  77.1703291  38.1767666  -4.4951977  78.3774548  37.8917766  -3.6271506
  77.9904563  39.4461453   2.3513693  77.9793204  39.0514251   1.4794197
  78.1525202  38.7127525   2.9447465  70.9136027  41.6413269  -4.7791401
  71.7057319  41.3004094  -5.1945102  71.1532678  41.7508244  -3.8589247
  74.7111824  42.2298565   1.2992877  74.4201690  43.1344195   1.1839544
  75.3468808  42.2715092   2.0136947  75.6368031  39.6075413  -2.1105763
  76.2331603  39.3831435  -2.8248800  75.6943002  38.8660159  -1.5080315
  83.1770190  29.7147434  -1.1053242  82.8453514  30.5842845  -1.3292027
  82.5815803  29.3983718  -0.4259211  79.6701709  41.9159980  -1.7057329
  79.3702432  42.8185019  -1.8141522  79.3252769  41.6492163  -0.8536176
  83.0698853  34.4342520  -4.0259892  82.1615730  34.3657929  -4.3201131
  83.0186449  34.9114465  -3.1978066  74.6522489  48.6804300  -8.7386361
  74.5746519  49.6312125  -8.6597881  74.0484132  48.3350173  -8.0811435
  77.1439719  35.8532166   3.9175006  76.3673053  36.4126086   3.9077870
  77.7830282  36.3388949   4.4389876  84.9360499  32.6358959  -2.2482018
  84.2934880  32.9291492  -2.8942223  84.4315428  32.5211879  -1.4428821
  75.3986091  38.6617619   3.4792973  76.1400775  39.2002663   3.2027796
  74.6923076  39.2883908   3.6364524  80.8741431  40.8046760   2.0765134
  81.2824787  40.3629170   1.3319766  80.1518692  40.2299387   2.3299327
  77.2272501  35.7419366  -0.5501309  78.0733696  36.1658780  -0.4066660
  77.1671138  35.0852991   0.1437254  81.1970245  41.3647950  -4.1682577
  80.5679108  41.5293664  -4.8706509  80.8095907  41.7789560  -3.3971613
  85.0759477  42.3002388  -6.8138213  84.3910515  42.6801289  -7.3641180
  85.1603326  42.9097715  -6.0806266  80.3771946  33.4023735   1.1079865
  80.1332878  34.1565795   0.5714140  80.6531876  33.7809082   1.9427112
  82.3310409  39.9462347  -0.2142870  82.5427304  40.5894107  -0.8908489
  82.2840157  39.1124664  -0.6820940  76.7498207  41.1022358  -6.9032492
  77.2136553  41.3810061  -7.6927869  76.4855005  40.2005803  -7.0859401
  73.6422288  40.6493840  -3.9652729  74.2123645  41.0781108  -4.6035244
  74.2330400  40.3676425  -3.2668543  74.1347455  35.8157267   4.2808283
  73.5046115  36.4973548   4.5143679  74.0283543  35.7040349   3.3361421
  83.4456237  42.8234303  -2.0420512  84.2673680  42.4214490  -2.3237831
  83.4418640  42.7202537  -1.0904397  77.2112840  42.3718346   0.1140198
  77.2757273  42.8338753   0.9498370  76.5023764  41.7415711   0.2422508
  73.4128197  30.1178033   6.6433534  73.0195143  29.5644232   7.3181178
  74.2294338  30.4288612   7.0340051  72.1885140  44.6727648  -7.3630143
  72.3651768  45.5945612  -7.5509159  72.9841973  44.3586067  -6.9335764
  76.3296158  31.5335912   4.2353790  77.0705872  32.1343065   4.1558253
  76.5614081  30.7913550   3.6771833  71.4737496  36.7192280   2.5132020
  71.3591012  35.8177537   2.8139119  70.6182014  36.9655976   2.1616836
  78.5529334  44.6610020   4.1119520  78.1093188  43.8746398   3.7940425
  79.2146548  44.8489170   3.4463411  73.3116455  46.1905821  -1.3619801
  73.8623880  46.0622885  -2.1342807  72.4727931  46.4900710  -1.7124908
  80.6510572  44.9412820   2.1400922  80.6329048  45.7621701   1.6481191
  81.5730492  44.8166895   2.3651063  77.1083626  42.4556949   2.9824430
  77.6411963  41.6945237   2.7523738  76.5797708  42.1630601   3.7248585
  83.4529185  39.7791962  -4.3889712  82.7952860  40.4691224  -4.3009583
  84.2569584  40.1688394  -4.0455725  82.2634644  38.1336335  -6.3385770
  82.7766526  38.7666327  -5.8364060  82.9135868  37.5337530  -6.7042410
  78.7415475  35.6085790  -4.0927429  77.8238036  35.8300737  -4.2505741
  79.1575618  35.6832101  -4.9515722  83.0296440  43.1142336  -8.2106627
  82.5758767  42.2733246  -8.1541437  82.3990407  43.7503735  -7.8731847
  81.4729379  44.9518833  -7.2756809  81.7652354  45.5123890  -7.9944443
  81.9828000  45.2447394  -6.5203650  76.4363005  45.7299184  -6.1863356
  76.3939183  45.9560030  -7.1154824  77.3525703  45.4962559  -6.0377555
  79.8828638  36.1983252   0.7117273  80.2378026  36.4254725   1.5711739
  80.5300770  36.5301628   0.0894529  85.6395755  41.3878215  -3.5722126
  86.0732262  41.2953504  -2.7239072  86.3527336  41.3635715  -4.2102110
  74.5528805  42.6062213  -6.3901393  75.3469404  42.1112533  -6.5918818
  73.8420498  42.0780076  -6.7533688  79.3723650  44.9880309  -2.0389025
  79.4260672  45.5571245  -1.2711310  78.5038431  45.1582194  -2.4034988
  72.2522043  34.6897865  -0.5564574  72.9245097  34.4815227  -1.2051925
  71.4251830  34.4919951  -0.9959342  86.5011304  41.4301915  -1.0389241
  86.6947195  42.3347726  -0.7929966  86.4011923  40.9709334  -0.2050656
  78.1547615  31.3159806   1.4601087  77.5075530  32.0149755   1.3665563
  78.9248631  31.7495950   1.8277335  81.5626413  41.5808658   4.5351640
  81.4111920  41.3519210   3.6181724  81.5531093  42.5379259   4.5482985
  78.3311750  39.1540571  -0.4802094  79.2603810  39.3051730  -0.6533126
  77.9102780  39.2424592  -1.3353447  77.1300081  43.1791235  -2.7103556
  76.9911167  42.8110020  -1.8377618  76.3414678  43.6938875  -2.8819598
  77.7248233  48.2800332 -11.3678019  77.8999989  47.8088375 -10.5532397
  77.0381021  48.9066098 -11.1396759  78.6805296  42.5572838  -5.3214718
  78.3455129  42.5173608  -4.4257068  78.1809242  41.8917554  -5.7944308
  72.6549540  37.9640468   0.2037863  72.5169338  37.2320707   0.8049402
  73.5654464  37.8749368  -0.0777949  75.2831841  37.6760427  -0.3078457
  75.9931460  37.0353619  -0.3491839  75.2401149  37.9273322   0.6147723
  83.2718620  44.6127781   2.6128122  83.2131166  43.9287001   1.9458705
  83.6738138  45.3546771   2.1608748  73.9960775  34.6625645   1.5117182
  73.4598132  34.2116384   2.1638778  73.4077484  34.7971554   0.7687646
  72.2909319  51.4289694  -4.5938159  72.5305917  52.0608219  -3.9159141
  71.4478515  51.0777734  -4.3072800  83.2736027  42.5767365   0.8442101
  82.3862806  42.2393286   0.9668500  83.8434578  41.8450396   1.0810867
  76.8037180  47.2368817  -2.1896655  76.7307352  48.0423788  -1.6777351
  76.3614574  47.4360783  -3.0148634  76.5926960  46.4740587  -8.6793834
  75.8094482  47.0162267  -8.5855609  77.2919705  46.9914567  -8.2799593
  79.2635864  47.1355651  -0.0338497  79.9763836  47.7703116  -0.1062595
  78.7725893  47.2319517  -0.8498495  80.9853391  41.0406904  -8.4621205
  80.0509670  41.1608366  -8.6316501  81.1630059  40.1379370  -8.7261195
  74.3147778  44.8850094   0.7867074  75.0157237  45.5186577   0.9396468
  73.8442893  45.2264826   0.0262713  82.1149063  37.4394702  -1.3880376
  81.4620514  37.6870609  -2.0427923  82.4929443  36.6258840  -1.7217898
  79.0756237  47.4754395  -7.2852205  79.2578632  46.6576051  -6.8224453
  79.8989223  47.6922087  -7.7227315  79.4098403  46.4022580 -10.0237157
  79.9386169  45.8915035 -10.6366995  79.6726622  46.0865110  -9.1591624
  78.1636637  38.1814513   5.0985662  77.4877274  38.0808642   5.7688037
  78.9864270  38.0253727   5.5621659  69.9115496  44.4186449  -2.2801823
  70.4968932  43.6730137  -2.1473919  69.7140334  44.7290406  -1.3965159
  72.7654151  47.4537697  -7.2639381  72.0964526  47.9383824  -7.7475341
  72.6267020  47.7006917  -6.3496002  76.9059419  49.4881440  -0.6656722
  77.4577727  49.6513062   0.0992363  77.2465613  50.0785878  -1.3376698
  71.3576185  33.9079723   3.5838197  71.9848224  33.5256800   4.1975721
  70.5004104  33.6893925   3.9493889  81.7570294  44.3142698   5.1891932
  82.3010198  44.9272656   4.6946887  81.1757139  44.8722276   5.7058945
  80.0427807  47.4363416  -3.6793040  79.9178946  46.6353156  -4.1882095
  80.7006898  47.9309609  -4.1679070  82.1062715  45.2372436  -2.0513490
  81.1593051  45.1177787  -2.1235163  82.4545488  44.3494934  -1.9687229
  74.4662288  31.1266575   1.7724752  74.9896690  31.3728871   2.5351061
  74.2474622  31.9586610   1.3527889  79.1109148  45.0325152  -5.8509138
  78.9634111  44.1041860  -5.6701568  79.9362642  45.0545243  -6.3352063
  82.7143270  45.8553711  -4.7644265  83.6389818  45.6496572  -4.9019814
  82.5458574  45.6070112  -3.8554924  75.6714833  32.0680270  -0.5425578
  75.3311654  31.2688083  -0.1404898  74.9653840  32.3681981  -1.1148745
  77.5592398  33.2688591  -2.1872259  77.3010175  34.1905662  -2.1887929
  77.0277438  32.8719026  -1.4971795  82.5038586  46.3739378  -9.4082174
  82.6775464  45.8085801 -10.1608321  82.9967478  47.1740273  -9.5902684
  68.3215546  38.3854047  -1.3418615  67.7769014  39.1613855  -1.2098341
  69.1994896  38.7324852  -1.4999494  69.1081568  37.5123944   1.5511542
  68.3663304  37.6606579   2.1376172  68.7874312  37.7732209   0.6878291
  77.0525231  47.0539922   1.3491932  77.3612357  46.8089069   2.2214632
  77.8500713  47.2586560   0.8610802  77.0745843  49.2077832  -6.4202692
  76.6350833  48.7154210  -5.7269835  77.8253960  48.6650799  -6.6610616
  69.5538182  45.3989372  -6.4178063  70.3796202  45.0993144  -6.7979420
  69.2032234  44.6296995  -5.9688275  74.5219715  44.7515841  -4.3480390
  73.8999724  44.0886546  -4.6478162  75.1924582  44.7776972  -5.0306742
  74.5944242  33.2297629   5.2452116  74.6432398  34.1059751   4.8629886
  75.1366757  32.6875022   4.6723759  85.0799088  43.7738752   4.5253253
  84.2894632  43.7562891   3.9857753  84.8432443  44.3127046   5.2802290
  85.1996963  40.6231218   1.8385982  85.2494968  40.4581226   2.7801505
  85.0910886  39.7558477   1.4483863  82.4900726  36.6062146   3.1545289
  83.3910588  36.4668611   2.8629286  82.5648700  36.7716601   4.0943466
  76.8243531  33.9829001   1.9998475  75.9546840  34.2762567   1.7281063
  77.0603011  34.5669446   2.7205738  86.7015160  43.0428160   2.0828003
  86.4099968  43.4058140   2.9191464  86.0887291  42.3295168   1.9041335
  84.9502348  38.1660774   0.5508061  85.4256470  38.3588421  -0.2573087
  84.0267914  38.2219960   0.3051445  79.5282565  30.2008618  -0.4836105
  80.0464509  30.9369645  -0.8089616  79.1737697  30.5072611   0.3510654
  83.6504017  35.0426534  -1.2163633  84.6021440  35.1424632  -1.1951409
  83.4807468  34.2504803  -0.7065549  81.6718397  32.1282118  -1.0304232
  81.0768329  32.4087130  -1.7257744  81.3868093  32.6176019  -0.2587491
  86.1292095  38.2632654  -2.1021333  86.0968415  37.3248655  -1.9161650
  86.7392719  38.3416691  -2.8355509  77.8514118  41.1846453   5.4006528
  78.7717128  41.3625052   5.5946574  77.8163701  40.2402499   5.2486227
  70.8476191  39.0947488  -1.9570691  71.0662201  40.0264596  -1.9382657
  71.2601965  38.7355462  -1.1715887  75.7204056  34.6680694   7.4332058
  75.6200783  35.6175051   7.3644149  75.5025598  34.3398933   6.5608128
  75.5835326  38.0977833   6.2497119  75.1002408  38.8978193   6.4561008
  75.6696265  38.1085777   5.2964563  71.5108664  41.9882367  -1.7134447
  72.4651917  41.9566310  -1.7804515  71.3121187  41.5272991  -0.8984221
  72.1008046  40.5583483   0.8536351  72.9200935  41.0527562   0.8771188
  72.3744854  39.6415451   0.8253918  69.8658893  47.5301987  -4.6964249
  69.7313361  46.7702388  -5.2626251  69.4490955  48.2542887  -5.1635460
  73.0228018  48.4271304  -4.4845806  72.9060403  49.3716736  -4.5867116
  72.2020465  48.1244865  -4.0960007  67.3542960  34.8921617   1.5528548
  68.0001824  34.3820571   2.0415773  67.1460111  35.6290299   2.1271973
  79.8796352  41.9602465   7.0520688  80.7487512  42.1343117   6.6907323
  79.4003104  42.7796881   6.9296418  74.0482533  49.0799566  -1.2689878
  74.9509779  49.1123176  -0.9523383  73.8219903  48.1500017  -1.2543542
  75.8036135  47.8330552  -4.6079799  74.8531766  47.8332414  -4.7215427
  76.1068621  47.0863287  -5.1243765  71.6940451  32.0389234   5.6503562
  72.5571913  31.6826039   5.8606887  71.1205862  31.7003129   6.3378966
  91.5388828  53.6691091  -3.5434037  92.1767238  53.5497838  -4.2470697
  91.4209671  54.6171935  -3.4846085  88.3478534  53.6218519  -3.6072512
  88.0097046  53.5059583  -4.4951977  89.2168303  53.2209684  -3.6271506
  88.8298317  54.7753370   2.3513693  88.8186958  54.3806169   1.4794197
  88.9918957  54.0419443   2.9447465  81.7529782  56.9705187  -4.7791401
  82.5451074  56.6296011  -5.1945102  81.9926432  57.0800162  -3.8589247
  85.5505578  57.5590482   1.2992877  85.2595444  58.4636113   1.1839544
  86.1862563  57.6007010   2.0136947  86.4761785  54.9367331  -2.1105763
  87.0725358  54.7123353  -2.8248800  86.5336757  54.1952076  -1.5080315
  91.0930097  51.3942544  -6.4680829  91.8793186  50.9761968  -6.8190412
  91.3568801  52.2988637  -6.2999180  94.0163944  45.0439352  -1.1053242
  93.6847269  45.9134763  -1.3292027  93.4209557  44.7275636  -0.4259211
  90.5095464  57.2451898  -1.7057329  90.2096187  58.1476937  -1.8141522
  90.1646523  56.9784081  -0.8536176  83.9607945  53.6965695  -5.6720625
  83.0358442  53.5641909  -5.4642933  84.2092358  54.4759914  -5.1750682
  93.9092607  49.7634438  -4.0259892  93.0009485  49.6949846  -4.3201131
  93.8580203  50.2406383  -3.1978066  81.3216756  53.3398968  -4.8376836
  81.4509137  53.5933447  -3.9237424  80.6414207  53.9326676  -5.1572180
  87.9833473  51.1824084   3.9175006  87.2066807  51.7418004   3.9077870
  88.6224036  51.6680866   4.4389876  95.7754254  47.9650876  -2.2482018
  95.1328634  48.2583409  -2.8942223  95.2709182  47.8503797  -1.4428821
  86.2379845  53.9909537   3.4792973  86.9794530  54.5294581   3.2027796
  85.5316831  54.6175826   3.6364524  91.7135185  56.1338677   2.0765134
  92.1218541  55.6921088   1.3319766  90.9912447  55.5591305   2.3299327
  88.0666255  51.0711284  -0.5501309  88.9127450  51.4950698  -0.4066660
  88.0064893  50.4144908   0.1437254  91.2165700  48.7315652   1.1079865
  90.9726632  49.4857713   0.5714140  91.4925631  49.1101000   1.9427112
  93.1704163  55.2754265  -0.2142870  93.3821058  55.9186025  -0.8908489
  93.1233911  54.4416581  -0.6820940  90.7730392  47.8872085  -3.3106298
  89.9114871  48.1853339  -3.0189560  90.7992827  48.1042484  -4.2425265
  84.4816043  55.9785758  -3.9652729  85.0517400  56.4073026  -4.6035244
  85.0724155  55.6968342  -3.2668543  84.9741209  51.1449185   4.2808283
  84.3439870  51.8265466   4.5143679  84.8677297  51.0332267   3.3361421
  80.2686182  50.8120981  -4.7925793  79.4785236  51.0678510  -5.2685683
  80.7597429  51.6269319  -4.6873753  82.2200927  51.1765560  -7.8342317
  81.4232090  51.2884255  -7.3158821  81.9926519  51.5152213  -8.7001426
  88.0506595  57.7010264   0.1140198  88.1151027  58.1630671   0.9498370
  87.3417519  57.0707628   0.2422508  78.5523885  51.0651472  -2.3610802
  78.8031923  51.9498481  -2.0953227  79.0883433  50.8856073  -3.1335711
  84.2521952  45.4469951   6.6433534  83.8588897  44.8936149   7.3181178
  85.0688092  45.7580529   7.0340051  87.1689913  46.8627830   4.2353790
  87.9099626  47.4634983   4.1558253  87.4007836  46.1205468   3.6771833
  82.3131251  52.0484197   2.5132020  82.1984766  51.1469454   2.8139119
  81.4575769  52.2947894   2.1616836  89.3923089  59.9901938   4.1119520
  88.9486943  59.2038316   3.7940425  90.0540302  60.1781088   3.4463411
  84.1510210  61.5197739  -1.3619801  84.7017635  61.3914803  -2.1342807
  83.3121686  61.8192628  -1.7124908  91.4904327  60.2704737   2.1400922
  91.4722802  61.0913619   1.6481191  92.4124247  60.1458813   2.3651063
  87.9477381  57.7848867   2.9824430  88.4805718  57.0237155   2.7523738
  87.4191462  57.4922519   3.7248585  91.1147076  42.8908933  -1.4881928
  90.7711345  43.7810575  -1.5642818  91.4826038  42.7010591  -2.3512343
  79.1832926  55.2142463  -8.6693326  80.0208148  55.6239472  -8.8859618
  79.3611194  54.2741906  -8.6993132  90.1943616  45.2613588  -3.5232695
  89.6908412  45.2243723  -4.3364890  90.4874223  46.1706331  -3.4636038
  86.4386502  45.3452318  -4.5166513  87.3039499  45.1495126  -4.8760624
  86.5064011  45.1162670  -3.5897156  84.0448821  47.5754526  -7.1450146
  84.6192573  47.3529707  -7.8776953  84.6319804  47.6443220  -6.3921545
  89.5809229  50.9377708  -4.0927429  88.6631791  51.1592655  -4.2505741
  89.9969373  51.0124019  -4.9515722  79.2059098  52.5533179  -7.9982593
  79.0083497  51.9602539  -8.7231526  78.6505762  52.2485389  -7.2806654
  87.1855821  52.4456285  -5.8787999  87.2404431  51.4930122  -5.9545523
  86.3747023  52.6015724  -5.3946701  85.1248181  51.0633345  -8.1197621
  84.3116047  51.3627515  -7.7132428  85.6207175  50.6689034  -7.4023138
  90.7222393  51.5275169   0.7117273  91.0771781  51.7546643   1.5711739
  91.3694524  51.8593546   0.0894529  84.6162256  48.6351700  -2.5036386
  85.2561635  48.4940460  -3.2013422  83.7839786  48.3486214  -2.8797784
  90.2117404  60.3172226  -2.0389025  90.2654427  60.8863163  -1.2711310
  89.3432186  60.4874111  -2.4034988  81.6190872  48.6052025  -7.7263399
  81.8797690  49.5197359  -7.8354238  82.4408045  48.1376468  -7.5766786
  83.0915798  50.0189783  -0.5564574  83.7638851  49.8107145  -1.2051925
  82.2645584  49.8211869  -0.9959342  88.9941370  46.6451724   1.4601087
  88.3469285  47.3441673   1.3665563  89.7642385  47.0787867   1.8277335
  92.4020168  56.9100576   4.5351640  92.2505674  56.6811127   3.6181724
  92.3924847  57.8671177   4.5482985  89.1705504  54.4832488  -0.4802094
  90.0997564  54.6343648  -0.6533126  88.7496534  54.5716509  -1.3353447
  87.9693836  58.5083153  -2.7103556  87.8304922  58.1401937  -1.8377618
  87.1808432  59.0230792  -2.8819598  83.4943295  53.2932386   0.2037863
  83.3563093  52.5612624   0.8049402  84.4048218  53.2041286  -0.0777949
  86.1225596  53.0052345  -0.3078457  86.8325214  52.3645537  -0.3491839
  86.0794904  53.2565240   0.6147723  94.1112374  59.9419698   2.6128122
  94.0524920  59.2578918   1.9458705  94.5131893  60.6838688   2.1608748
  84.8354530  49.9917563   1.5117182  84.2991887  49.5408301   2.1638778
  84.2471238  50.1263472   0.7687646  94.1129782  57.9059282   0.8442101
  93.2256560  57.5685204   0.9668500  94.6828333  57.1742313   1.0810867
  75.7658929  54.2383374  -5.8314847  76.4529969  53.9245104  -6.4193832
  75.6107057  55.1424739  -6.1047596  80.5693651  49.1273570  -1.4029823
  80.4851840  48.5199240  -2.1379414  79.7476357  49.6182589  -1.4020327
  90.1029618  62.4647569  -0.0338497  90.8157591  63.0995033  -0.1062595
  89.6119647  62.5611435  -0.8498495  87.3252333  49.7544517  -6.3087944
  86.9550121  49.2015557  -5.6207038  87.8211426  49.1502650  -6.8612944
  85.1541532  60.2142012   0.7867074  85.8550992  60.8478495   0.9396468
  84.6836647  60.5556744   0.0262713  92.9542818  52.7686619  -1.3880376
  92.3014268  53.0162527  -2.0427923  93.3323198  51.9550758  -1.7217898
  89.0030391  53.5106431   5.0985662  88.3271028  53.4100560   5.7688037
  89.8258025  53.3545644   5.5621659  80.7509250  59.7478367  -2.2801823
  81.3362687  59.0022055  -2.1473919  80.5534089  60.0582324  -1.3965159
  75.3426905  52.3183967  -3.5597380  75.3811004  51.7847558  -2.7660262
  74.8367198  51.7919173  -4.1786403  82.7217667  47.1648508  -0.0634838
  82.7858994  48.0263339  -0.4757440  82.6584787  46.5522509  -0.7962479
  82.1969940  49.2371640   3.5838197  82.8241978  48.8548718   4.1975721
  81.3397858  49.0185842   3.9493889  92.5964048  59.6434615   5.1891932
  93.1403952  60.2564574   4.6946887  92.0150893  60.2014194   5.7058945
  78.9735482  51.0448069 -10.4843449  79.2688923  50.1358748 -10.5376395
  78.0723518  51.0235809 -10.8062446  82.5029729  49.1204066  -4.5015900
  81.7816315  49.7340034  -4.6408427  83.2922985  49.6561831  -4.5799254
  85.3056043  46.4558493   1.7724752  85.8290445  46.7020789   2.5351061
  85.0868376  47.2878527   1.3527889  80.7023324  48.7262167 -10.3604123
  80.3736030  47.8459546 -10.5429018  81.0562695  48.6709836  -9.4727734
  83.8165147  49.0135137  -9.9928646  84.1561220  49.5421058 -10.7150037
  84.2637268  49.3515543  -9.2170079  86.5108588  47.3972188  -0.5425578
  86.1705408  46.5980001  -0.1404898  85.8047594  47.6973898  -1.1148745
  87.1625060  44.4821500  -2.0898255  87.9851129  44.0081978  -2.2119364
  87.4063123  45.2611984  -1.5899568  84.6863639  51.1740621  -4.2806276
  84.5408219  51.4880924  -3.3881995  84.2088842  51.7925521  -4.8335377
  86.5460021  48.1643169  -4.2325387  86.5321590  47.2684262  -4.5693089
  87.2632450  48.1713832  -3.5987101  88.3986152  48.5980509  -2.1872259
  88.1403930  49.5197580  -2.1887929  87.8671193  48.2010943  -1.4971795
  79.1609301  53.7145965  -1.3418615  78.6162769  54.4905773  -1.2098341
  80.0388651  54.0616770  -1.4999494  85.9496917  47.0457549  -8.9637816
  86.0712829  46.1174195  -8.7646929  85.6598960  47.0596235  -9.8759501
  79.9475323  52.8415861   1.5511542  79.2057059  52.9898497   2.1376172
  79.6268067  53.1024127   0.6878291  87.8918985  62.3831840   1.3491932
  88.2006112  62.1380986   2.2214632  88.6894467  62.5878478   0.8610802
  78.5940541  58.6467617  -5.4589130  77.7572450  58.2189791  -5.6405129
  78.5664187  58.8400060  -4.5218339  85.4337997  48.5589546   5.2452116
  85.4826152  49.4351669   4.8629886  85.9760511  48.0166939   4.6723759
  95.9192843  59.1030670   4.5253253  95.1288386  59.0854808   3.9857753
  95.6826197  59.6418963   5.2802290  96.0390718  55.9523136   1.8385982
  96.0888723  55.7873143   2.7801505  95.9304641  55.0850395   1.4483863
  93.3294480  51.9354064   3.1545289  94.2304343  51.7960529   2.8629286
  93.4042455  52.1008519   4.0943466  87.6637285  49.3120919   1.9998475
  86.7940595  49.6054485   1.7281063  87.8996766  49.8961364   2.7205738
  97.5408914  58.3720077   2.0828003  97.2493723  58.7350058   2.9191464
  96.9281046  57.6587086   1.9041335  95.7896103  53.4952692   0.5508061
  96.2650224  53.6880338  -0.2573087  94.8661668  53.5511878   0.3051445
  90.3676319  45.5300536  -0.4836105  90.8858263  46.2661563  -0.8089616
  90.0131452  45.8364529   0.3510654  94.4897772  50.3718452  -1.2163633
  95.4415195  50.4716550  -1.1951409  94.3201222  49.5796721  -0.7065549
  92.5112151  47.4574035  -1.0304232  91.9162083  47.7379048  -1.7257744
  92.2261848  47.9467936  -0.2587491  96.9685849  53.5924572  -2.1021333
  96.9362170  52.6540573  -1.9161650  97.5786473  53.6708609  -2.8355509
  88.6907873  56.5138371   5.4006528  89.6110882  56.6916970   5.5946574
  88.6557456  55.5694416   5.2486227  77.9090038  51.7076965  -5.6740198
  77.5892822  50.8542273  -5.9665824  77.3623466  51.9225543  -4.9182230
  81.6869945  54.4239406  -1.9570691  81.9055955  55.3556513  -1.9382657
  82.0995719  54.0647380  -1.1715887  86.5597811  49.9972611   7.4332058
  86.4594538  50.9466968   7.3644149  86.3419353  49.6690850   6.5608128
  77.7778298  55.3279876  -3.7047076  77.0841769  54.9133829  -4.2177122
  78.5251289  55.3700413  -4.3013657  86.4229081  53.4269750   6.2497119
  85.9396162  54.2270110   6.4561008  86.5090020  53.4377695   5.2964563
  79.6915040  55.2598130  -5.8281061  79.6685729  55.3585817  -6.7799178
  80.0015677  56.1063281  -5.5063895  82.3502418  57.3174285  -1.7134447
  83.3045672  57.2858227  -1.7804515  82.1514942  56.8564909  -0.8984221
  82.9401800  55.8875401   0.8536351  83.7594689  56.3819480   0.8771188
  83.2138608  54.9707369   0.8253918  78.1936715  50.2213535   1.5528548
  78.8395578  49.7112489   2.0415773  77.9853866  50.9582216   2.1271973
  90.7190107  57.2894382   7.0520688  91.5881266  57.4635035   6.6907323
  90.2396858  58.1088799   6.9296418  84.8876287  64.4091483  -1.2689878
  85.7903534  64.4415094  -0.9523383  84.6613657  63.4791934  -1.2543542
  82.5334206  47.3681152   5.6503562  83.3965667  47.0117957   5.8606887
  81.9599616  47.0295047   6.3378966  95.0915706  60.7761869   6.6433534
  94.6982652  60.2228067   7.3181178  95.9081847  61.0872447   7.0340051
  98.0083667  62.1919748   4.2353790  98.7493381  62.7926901   4.1558253
  98.2401590  61.4497385   3.6771833  93.0363694  64.5663558   3.5838197
  93.6635733  64.1840635   4.1975721  92.1791613  64.3477760   3.9493889
  96.2731751  63.8881464   5.2452116  96.3219907  64.7643587   4.8629886
  96.8154266  63.3458857   4.6723759  97.3991565  65.3264529   7.4332058
  97.2988292  66.2758886   7.3644149  97.1813107  64.9982768   6.5608128
  89.0330469  65.5505453   1.5528548  89.6789333  65.0404406   2.0415773
  88.8247620  66.2874134   2.1271973  93.3727960  62.6973070   5.6503562
  94.2359422  62.3409874   5.8606887  92.7993371  62.3586964   6.3378966
   4.8212186 100.4840727  73.9592616   4.0675895  99.9148125  73.8036621
   4.9559727 100.4503392  74.9063251   1.6427934 100.4543477  71.8636283
   2.0859080  99.7050802  71.4655406   0.7654444 100.4453614  71.4810015
   1.1860799 101.9248716  74.2558731   2.0207690 102.3638520  74.4196291
   1.3219928 101.4487369  73.4366976   5.2318601 100.6416337  76.6912860
   5.9621990 100.3801625  77.2520564   4.6225547  99.9045059  76.7314928
   3.3133898  98.7824200  77.2887312   2.5867062  98.6480165  76.6803803
   2.8981185  99.0901028  78.0944030   0.9311693  95.0036052  74.6420743
   1.5256184  94.7631788  73.9314051   1.0038277  94.2843182  75.2694280
   3.2382766  98.3102253  73.4164164   2.6782324  98.3795442  74.1895727
   2.6326270  98.1343237  72.6963661   4.3997032 104.2076609  78.1646229
   4.0561302 105.0978251  78.0885340   4.7675995 104.0178267  77.3015814
   6.1984698 103.4670168  73.2663967   6.5043575 102.6067532  72.9789882
   6.9237303 104.0587788  73.0662961   6.4686316 105.8964404  75.7647888
   5.5549396 106.1268630  75.9330094   6.8979417 105.9802848  76.6161920
   3.9038870 103.2668494  74.6892949   4.1840624 102.5991683  75.3153375
   4.6889477 103.4597590  74.1767613   8.0641021 105.4444307  73.5560920
   7.8665843 105.1359395  74.4404251   8.6740727 106.1705946  73.6858849
   3.8214668 105.3253214  71.3057451   4.3745707 105.7448667  71.9647474
   4.0584754 104.3988962  71.3480407   3.8142401 102.3964032  71.2126538
   3.0474797 101.8422519  71.3583220   4.2253106 102.4685901  72.0740690
   4.8212188  77.4902850  60.6837923   4.0675896  76.9210248  60.5281927
   4.9559729  77.4565514  61.6308557   1.6427935  77.4605600  58.5881590
   2.0859081  76.7112925  58.1900713   0.7654446  77.4515736  58.2055322
   1.1860800  78.9310838  60.9804037   2.0207691  79.3700642  61.1441598
   1.3219929  78.4549491  60.1612283   5.2318603  77.6478460  63.4158167
   5.9621991  77.3863748  63.9765870   4.6225548  76.9107182  63.4560235
   3.3133900  75.7886322  64.0132618   2.5867063  75.6542287  63.4049110
   2.8981187  76.0963151  64.8189336   0.9311695  72.0098174  61.3666050
   1.5256185  71.7693910  60.6559358   1.0038278  71.2905305  61.9939586
   3.2382767  75.3164375  60.1409471   2.6782325  75.3857565  60.9141033
   2.6326271  75.1405360  59.4208967   4.8238786  91.9920889  62.8339427
   5.4617196  91.8727637  62.1302767   4.7059629  92.9401733  62.8927379
   1.6328492  91.9448317  62.7700952   1.2947004  91.8289382  61.8821486
   2.5018260  91.5439482  62.7501958   2.1148275  93.0983169  68.7287157
   2.1036916  92.7035967  67.8567661   2.2768915  92.3649242  69.3220928
   3.0714867  97.4654761  54.0712307   2.4202846  98.0508842  53.6846321
   3.8659229  97.9960956  54.1307345   4.3780054  89.7172343  59.9092635
   5.1643144  89.2991766  59.5583052   4.6418759  90.6218435  60.0774283
   4.5490132  95.1545193  54.6081292   3.9135965  95.2279820  55.3202196
   4.2187538  95.7438792  53.9300371   9.7788481  89.6547576  60.8125613
  10.5113653  89.0846793  61.0463443   9.0227837  89.2669177  61.2532119
   1.3964601  92.0774818  58.0088956   1.0322808  91.5505439  58.7201877
   2.2531717  91.6873287  57.8355441   7.3013902  83.3669150  65.2720222
   6.9697227  84.2364561  65.0481437   6.7059515  83.0505434  65.9514252
   1.0370088  87.1064717  53.0050304   1.2044491  87.9744954  53.3720775
   0.8467257  87.2691999  52.0811594   3.7945421  95.5681696  64.6716135
   3.4946144  96.4706735  64.5631942   3.4496481  95.3013880  65.5237288
   7.1942565  88.0864237  62.3513572   6.2859442  88.0179645  62.0572333
   7.1430161  88.5636181  63.1795398   1.2683431  89.5053882  70.2948469
   0.4916765  90.0647802  70.2851334   1.9073994  89.9910665  70.8163339
   9.0604212  86.2880675  64.1291446   8.4178592  86.5813208  63.4831241
   8.5559140  86.1733595  64.9344643   6.7144375  90.0343848  54.8177305
   7.6262231  90.2671235  54.6425003   6.2054022  90.6180892  54.2552384
   4.9985143  94.4568476  68.4538598   5.4068499  94.0150886  67.7093230
   4.2762404  93.8821103  68.7072791   1.3516213  89.3941083  65.8272155
   2.1977408  89.8180496  65.9706804   1.2914851  88.7374707  66.5210718
   5.3213958  95.0169667  62.2090887   4.6922820  95.1815381  61.5066955
   4.9339620  95.4311276  62.9801851   9.2003189  95.9524104  59.5635250
   8.5154228  96.3323006  59.0132284   9.2847039  96.5619431  60.2967198
   4.5015658  87.0545451  67.4853328   4.2576590  87.8087512  66.9487604
   4.7775589  87.4330799  68.3200575   6.4554121  93.5984063  66.1630594
   6.6671016  94.2415823  65.4864975   6.4083869  92.7646380  65.6952524
   4.0580350  86.2101884  63.0667166   3.1964829  86.5083138  63.3583904
   4.0842785  86.4272283  62.1348199   0.8741919  94.7544075  59.4740972
   1.3380265  95.0331778  58.6845594   0.6098718  93.8527519  59.2914062
   7.5699949  96.4756019  64.3352951   8.3917393  96.0736206  64.0535633
   7.5662352  96.3724253  65.2869067   1.3356552  96.0240062  66.4913662
   1.4000985  96.4860469  67.3271834   0.6267476  95.3937427  66.6195972
  15.6605942  92.8194767  60.6837923  14.9069650  92.2502165  60.5281927
  15.7953483  92.7857432  61.6308557   1.0504570  97.6908170  56.3592642
   0.9150245  98.5359705  56.7877490   1.5914383  97.8927447  55.5958576
   2.6773046  98.3131736  70.4892984   2.2336901  97.5268115  70.1713889
   3.3390260  98.5010887  69.8236875   4.7754285  98.5934536  68.5174385
   4.7572760  99.4143417  68.0254655   5.6974205  98.4688611  68.7424527
   1.2327339  96.1078666  69.3597894   1.7655675  95.3466954  69.1297202
   0.7041420  95.8152317  70.1022048   4.3997034  81.2138732  64.8891536
   4.0561303  82.1040373  64.8130646   4.7675996  81.0240389  64.0261121
   4.3647316  91.2047343  53.3963971   3.8493940  91.9751947  53.6352358
   4.0924625  90.5312479  54.0197032   1.9494427  86.0497043  58.4549209
   1.0936024  85.6603894  58.2754848   2.3621379  86.1289004  57.5948995
   3.4793574  83.5843387  62.8540769   2.9758370  83.5473522  62.0408574
   3.7724181  84.4936129  62.9137426   9.3381591  93.9579697  55.3317144
   8.5611033  93.6190857  54.8872306  10.0173071  93.9632320  54.6572109
   4.1533620  89.0774435  55.2223752   3.8483755  89.3920584  56.0733895
   5.1064062  89.1555855  55.2651085   2.5980051  95.2364658  56.8716706
   2.0701413  94.5017418  56.5589943   2.0967554  96.0139334  56.6256674
   7.5772897  93.4313679  61.9883752   6.9196572  94.1212940  62.0763881
   8.3813297  93.8210110  62.3317739   6.3878356  91.7858051  60.0387694
   6.9010238  92.4188043  60.5409404   7.0379580  91.1859247  59.6731054
   3.6500730 101.7642376  52.7948365   2.9762429 102.0674072  53.4033323
   4.0366552 102.5671456  52.4453822   2.8659187  89.2607507  62.2846034
   1.9481748  89.4822454  62.1267723   3.2819331  89.3353817  61.4257742
   3.6494235  90.6598922  57.4148715   4.3966054  91.1720320  57.1055837
   3.9185824  90.3382975  58.2753108   1.9220885  93.1557463  54.3975669
   1.0132104  92.8716496  54.4948139   1.9515969  93.5756542  53.5378976
   7.1540152  96.7664053  58.1666837   6.7002480  95.9254963  58.2232027
   6.5234119  97.4025451  58.5041617   6.0973072  87.6956039  59.3967504
   5.3595829  87.1833425  59.7277747   6.3499846  87.2556420  58.5850781
   5.5973092  98.6040549  59.1016655   5.8896066  99.1645606  58.3829020
   6.1071712  98.8969110  59.8569814   6.1984699  80.4732291  59.9909273
   6.5043576  79.6129654  59.7035188   6.9237304  81.0649911  59.7908267
   1.6196973  94.6966207  51.7363748   1.1816403  93.9802066  51.2769385
   2.3607414  94.9242322  51.1748839   0.5606717  99.3820900  60.1910108
   0.5182896  99.6081747  59.2618640   1.4769416  99.1484275  60.3395909
   4.0072351  89.8504968  67.0890737   4.3621738  90.0776441  67.9485203
   4.6544482  90.1823345  66.4667992   9.7370088  92.9723404  57.7940066
   9.5987986  93.1625000  56.8661255   9.3806306  93.7342787  58.2508117
   9.7639467  95.0399931  62.8051338  10.1975974  94.9475220  63.6534392
  10.4771048  95.0157431  62.1671354   3.4967362  98.6402025  64.3384438
   3.5504384  99.2092961  65.1062154   2.6282143  98.8103910  63.9738475
  10.6255017  95.0823632  65.3384223  10.8190907  95.9869442  65.5843498
  10.5255635  94.6231051  66.1722808   2.2791327  84.9681522  67.8374550
   1.6319243  85.6671472  67.7439027   3.0492343  85.4017666  68.2050799
   5.6870125  95.2330374  70.9125104   5.5355632  95.0040926  69.9955187
   5.6774805  96.1900976  70.9256449   2.4555462  92.8062287  65.8971370
   3.3847522  92.9573447  65.7240337   2.0346492  92.8946308  65.0420017
   1.8491946 101.9322048  55.0095444   2.0243701 101.4610091  55.8241067
   1.1624734 102.5587814  55.2376705   2.8049009  96.2094554  61.0558745
   2.4698841  96.1695324  61.9516395   2.3052954  95.5439270  60.5829156
   5.7408200  93.5550589  51.3295805   5.1237371  92.8297417  51.2328858
   5.2724689  94.3159949  50.9862879   7.3962332  98.2649497  68.9901586
   7.3374878  97.5808717  68.3232169   7.7981850  99.0068487  68.5382212
   7.3979739  96.2289081  67.2215565   6.5106518  95.8915003  67.3441964
   7.9678290  95.4972112  67.4584331   0.9280893 100.8890533  64.1876808
   0.8551064 101.6945505  64.6996113   0.4858286 101.0882499  63.3624830
   4.0267322  85.9356933  60.3413835   4.5236022  85.1826895  60.0214906
   3.2554304  85.9721249  59.7757045  11.8797080  91.6397298  61.9832127
  11.8686956  92.5222014  61.6126060  11.0114459  91.2868849  61.7886664
   3.3879576 100.7877367  66.3434967   4.1007548 101.4224832  66.2710869
   2.8969605 100.8841233  65.5274969   5.1097103  94.6928620  57.9152259
   4.1753382  94.8130082  57.7456963   5.2873772  93.7901087  57.6512269
   8.4969655  90.5345939  58.4502293   8.9630107  91.3673931  58.3762596
   8.9477155  90.0690921  59.1547551   6.5645886  96.8789760  55.4488445
   6.8405730  96.7646355  56.3582319   5.6950384  96.4807245  55.4100618
   6.4686317  82.9026526  62.4893194   5.5549397  83.1330753  62.6575401
   6.8979419  82.9864970  63.3407227   6.2392776  91.0916418  64.9893088
   5.5864226  91.3392326  64.3345541   6.6173156  90.2780556  64.6555566
   3.1999950 101.1276111  59.0921259   3.3822344 100.3097767  59.5549011
   4.0232936 101.3443804  58.6546149   3.5342115 100.0544296  56.3536307
   4.0629882  99.5436751  55.7406469   3.7970335  99.7386827  57.2181840
   2.2880349  91.8336229  71.4759125   1.6120986  91.7330358  72.1461501
   3.1107983  91.6775443  71.9395123   1.0303132 103.1403157  65.7116741
   1.5821440 103.3034778  66.4765827   1.3709325 103.7307594  65.0396766
   5.8814006  97.9664414  71.5665396   6.4253910  98.5794372  71.0720351
   5.3000851  98.5243993  72.0832409   4.1671519 101.0885132  62.6980423
   4.0422658 100.2874872  62.1891369   4.8250610 101.5831326  62.2094393
   6.2306427  98.8894152  64.3259974   5.2836763  98.7699503  64.2538300
   6.5789200  98.0016650  64.4086235   3.2352861  98.6846868  60.5264326
   3.0877823  97.7563576  60.7071896   4.0606354  98.7066959  60.0421401
   6.8386982  99.5075427  61.6129199   7.7633530  99.3018289  61.4753650
   6.6702286  99.2591828  62.5218540   3.2314375  86.5384706  55.5196443
   3.4477989  87.4209344  55.2185271   2.7508442  86.1470919  54.7902085
   1.6836110  86.9210308  64.1901205   1.4253888  87.8427378  64.1885535
   1.1521150  86.5240742  64.8801669   6.6282299 100.0261095  56.9691290
   6.8019176  99.4607517  56.2165142   7.1211190 100.8261990  56.7870780
   2.1038066  83.0542258  60.5502367   2.1259762  83.1181591  59.5954347
   2.5206125  82.2146767  60.7442873  12.4821690  92.7897518  58.5881590
  12.9252836  92.0404843  58.1900713  11.6048200  92.7807654  58.2055322
   7.6157471  99.3427859  54.0688188   8.3108376  99.9634552  54.2875503
   7.9580621  98.4923210  54.3440566   9.5148894  96.7927565  55.5975519
  10.0400218  97.1314837  54.8724839   9.4271247  95.8574580  55.4138654
   1.1768943 100.7061638  67.7265396   1.4856069 100.4610785  68.5988095
   1.9744425 100.9108277  67.2384266   1.1989555 102.8599548  59.9570772
   0.7594545 102.3675927  60.6503629   1.9497672 102.3172516  59.7162847
   9.2042800  97.4260468  70.9026717   8.4138344  97.4084607  70.3631216
   8.9676155  97.9648762  71.6575754   9.3240675  94.2752935  68.2159446
   9.3738680  94.1102942  69.1574968   9.2154599  93.4080194  67.8257326
   6.6144438  90.2583863  69.5318752   7.5154301  90.1190327  69.2402750
   6.6892412  90.4238317  70.4716930  10.8258872  96.6949876  68.4601467
  10.5343681  97.0579857  69.2964928  10.2131004  95.9816884  68.2814799
  12.0254555  94.2602756  60.9804037  12.8601446  94.6992560  61.1441598
  12.1613683  93.7841409  60.1612283   9.0746060  91.8182491  66.9281525
   9.5500182  92.0110137  66.1200376   8.1511626  91.8741677  66.6824909
   3.6526277  83.8530334  65.8937359   4.1708221  84.5891361  65.5683848
   3.2981410  84.1594328  66.7284118   3.9038871  80.2730617  61.4138256
   4.1840625  79.6053806  62.0398682   4.6889478  80.4659712  60.9012919
   1.7072340  99.4489611  52.9763282   1.1346307 100.0679798  52.5233754
   2.2805133  99.9988972  53.5103204   7.7747729  88.6948251  65.1609831
   8.7265152  88.7946348  65.1822055   7.6051180  87.9026519  65.6707915
   5.7962109  85.7803834  65.3469232   5.2012041  86.0608847  64.6515720
   5.5111806  86.2697735  66.1185973   4.9269599  99.7326761  54.1071864
   5.8600273  99.6672323  54.3104740   4.8392812 100.5683028  53.6486397
   7.5557616  99.0492631  51.0675812   7.4771248  98.7152495  51.9611570
   8.3767283  99.5414399  51.0667284  10.2535807  91.9154370  64.2752130
  10.2212127  90.9770371  64.4611814  10.8636431  91.9938407  63.5417955
   2.0919138  90.7850423  50.3179334   3.0378243  90.6556632  50.3867752
   1.7133383  90.0465085  50.7948763  10.4030296  88.7065414  64.3210414
   9.8869344  87.9223871  64.1340342  11.2870244  88.3784131  64.4856933
   8.0641023  82.4506429  60.2806226   7.8665844  82.1421518  61.1649558
   8.6740728  83.1768068  60.4104156  16.0712357  92.9770377  63.4158167
  16.8015746  92.7155665  63.9765870  15.4619303  92.2399099  63.4560235
  14.1527654  91.1178240  64.0132618  13.4260818  90.9834205  63.4049110
  13.7374941  91.4255069  64.8189336   1.9757831  94.8368170  71.7779991
   2.8960840  95.0146769  71.9720038   1.9407414  93.8924215  71.6259691
   1.8924121  83.2537290  56.4078461   1.0824849  82.9084375  56.7833707
   2.5808538  82.9444833  56.9966072   3.8214669  82.3315336  58.0302758
   4.3745708  82.7510790  58.6892781   4.0584756  81.4051084  58.0725714
   7.1993476  84.4415862  57.5381422   6.6192145  85.1000666  57.1559474
   6.9329409  83.6193206  57.1268839   5.6497043  83.8420919  59.7402742
   6.1496821  83.9537454  58.9317061   6.2932651  83.5381972  60.3803551
   5.9818354  86.6015952  56.5937770   5.0944209  86.8865603  56.3757965
   6.3972343  86.4409715  55.7465047   9.3332891  86.6262473  60.3092109
  10.1093281  87.1158925  60.5816726   8.6081025  87.0520527  60.7663979
  11.7705449  87.3390092  61.3666050  12.3649940  87.0985828  60.6559358
  11.8432033  86.6197223  61.9939586   5.1261568  96.3660627  50.6885790
   5.8297418  96.5710629  51.3043446   4.4024217  96.9337388  50.9534874
   5.9559378  92.1170488  56.8088060   5.8994580  92.5739039  55.9695693
   6.5087721  91.3561172  56.6310903   9.7664184  87.9060220  57.6338180
   9.5101118  87.5056855  58.4646387   9.1417052  88.6204014  57.5088319
  14.0776522  90.6456293  60.1409471  13.5176080  90.7149482  60.9141033
  13.4720025  90.4697278  59.4208967   7.0348265  96.8043156  52.7384250
   7.8693869  96.3724354  52.5561725   6.8732608  96.6325169  53.6661145
   6.6894157  93.3075269  54.1040589   6.6342961  93.1419541  53.1629033
   6.0640213  94.0151302  54.2602779   4.0040065  95.6124181  73.4294152
   4.8731224  95.7864833  73.0680787   3.5246816  96.4318598  73.3069882
   3.8142402  79.4026155  57.9371845   3.0474798  78.8484641  58.0828527
   4.2253107  79.4748024  58.7985996  15.6632540 107.3212807  62.8339427
  16.3010950 107.2019554  62.1302767  15.5453383 108.2693651  62.8927379
  12.4722247 107.2740235  62.7700952  12.1340758 107.1581300  61.8821486
  13.3412015 106.8731400  62.7501958  12.9542030 108.4275087  68.7287157
  12.9430670 108.0327885  67.8567661  13.1162669 107.6941159  69.3220928
  10.1730526 106.0428482  52.1017892  10.4256047 105.5210004  51.3401355
   9.2355085 105.8794628  52.2044575  15.2173809 105.0464261  59.9092635
  16.0036898 104.6283684  59.5583052  15.4812513 105.9510353  60.0774283
  20.6182236 104.9839494  60.8125613  21.3507408 104.4138711  61.0463443
  19.8621592 104.5961094  61.2532119  12.2358356 107.4066735  58.0088956
  11.8716563 106.8797356  58.7201877  13.0925472 107.0165205  57.8355441
  18.1407656  98.6961068  65.2720222  17.8090981  99.5656479  65.0481437
  17.5453270  98.3797352  65.9514252  11.8763843 102.4356635  53.0050304
  12.0438245 103.3036872  53.3720775  11.6861012 102.5983917  52.0811594
  18.0336320 103.4156154  62.3513572  17.1253197 103.3471563  62.0572333
  17.9823915 103.8928099  63.1795398  11.8553064 104.8914293  53.9896971
  11.7352689 105.3371343  54.8282451  11.1605652 105.2399610  53.4310509
  12.1077185 104.8345800  70.2948469  11.3310519 105.3939720  70.2851334
  12.7467748 105.3202583  70.8163339  19.8997966 101.6172593  64.1291446
  19.2572346 101.9105126  63.4831241  19.3952895 101.5025513  64.9344643
  17.5538130 105.3635766  54.8177305  18.4655986 105.5963153  54.6425003
  17.0447777 105.9472810  54.2552384  15.8378897 109.7860394  68.4538598
  16.2462253 109.3442804  67.7093230  15.1156159 109.2113021  68.7072791
  12.1909967 104.7233000  65.8272155  13.0371163 105.1472414  65.9706804
  12.1308605 104.0666625  66.5210718  15.3409413 102.3837369  67.4853328
  15.0970345 103.1379429  66.9487604  15.6169343 102.7622716  68.3200575
  17.2947876 108.9275981  66.1630594  17.5064771 109.5707741  65.4864975
  17.2477624 108.0938298  65.6952524  14.8974104 101.5393802  63.0667166
  14.0358584 101.8375055  63.3583904  14.9236539 101.7564201  62.1348199
  10.6504560 106.2059145  56.2830537  11.3528603 106.6580188  56.7504463
  10.3185188 105.5642964  56.9110430   9.0984921 104.7970901  70.6581746
   8.4683582 105.4787182  70.8917143   8.9921009 104.6853983  69.7134885
   4.3929894 104.4642697  61.5847670   3.6028948 104.7200226  61.1087781
   4.8841141 105.2791035  61.6899711   6.3444639 104.8287277  58.5431147
   5.5475803 104.9405971  59.0614643   6.1170231 105.1673929  57.6772038
  26.4999697 108.1486685  60.6837923  25.7463405 107.5794083  60.5281927
  26.6347238 108.1149350  61.6308557   8.3765664  99.0991667  73.0206997
   7.9832610  98.5457866  73.6954642   9.1931805  99.4102246  73.4113515
  11.2933625 100.5149546  70.6127254  12.0343339 101.1156699  70.5331716
  11.5251548  99.7727184  70.0545296   6.4374963 105.7005914  68.8905484
   6.3228478 104.7991171  69.1912583   5.5819481 105.9469610  68.5390300
  15.2390788  96.5430649  64.8891536  14.8955058  97.4332291  64.8130646
  15.6069751  96.3532307  64.0261121  15.2041071 106.5339260  53.3963971
  14.6887694 107.3043865  53.6352358  14.9318379 105.8604396  54.0197032
  12.7888182 101.3788961  58.4549209  11.9329778 100.9895812  58.2754848
  13.2015134 101.4580922  57.5948995  14.3187329  98.9135304  62.8540769
  13.8152124  98.8765440  62.0408574  14.6117935  99.8228047  62.9137426
  10.5630214  98.9974034  61.8606951  11.4283211  98.8016843  61.5012840
  10.6307723  98.7684386  62.7876307  20.1775345 109.2871615  55.3317144
  19.4004788 108.9482774  54.8872306  20.8566826 109.2924238  54.6572109
  14.9927374 104.4066352  55.2223752  14.6877510 104.7212502  56.0733895
  15.9457816 104.4847772  55.2651085  18.4166652 108.7605596  61.9883752
  17.7590326 109.4504858  62.0763881  19.2207051 109.1502028  62.3317739
   8.1692533 101.2276242  59.2323317   8.7436285 101.0051424  58.4996510
   8.7563516 101.2964937  59.9851919  17.2272111 107.1149969  60.0387694
  17.7403992 107.7479961  60.5409404  17.8773335 106.5151164  59.6731054
   8.4962121 103.2580703  53.2519203   7.6599433 103.5955390  53.5728477
   8.3566890 103.1229683  52.3146340  10.4715201  98.1017491  57.9598387
   9.8179614  97.7866508  57.3355002  10.4295675  97.4793231  58.6858210
  11.5826406 108.3836786  49.8751679  10.6753468 108.1526039  50.0742828
  12.0797438 107.5874405  50.0625660  13.7052942 104.5899424  62.2846034
  12.7875503 104.8114371  62.1267723  14.1213085 104.6645735  61.4257742
  14.4887989 105.9890840  57.4148715  15.2359808 106.5012237  57.1055837
  14.7579579 105.6674893  58.2753108  12.7614639 108.4849381  54.3975669
  11.8525859 108.2008414  54.4948139  12.7909723 108.9048459  53.5378976
  16.9366826 103.0247956  59.3967504  16.1989583 102.5125343  59.7277747
  17.1893600 102.5848338  58.5850781  17.0378454  95.8024208  59.9909273
  17.3437331  94.9421572  59.7035188  17.7631059  96.3941829  59.7908267
  11.3099534 106.0978001  60.4985464  11.3648143 105.1451838  60.4227941
  10.4990736 106.2537441  60.9826763   9.2491893 104.7155061  58.2575843
   8.4359759 105.0149232  58.6641035   9.7450888 104.3210750  58.9750325
  14.8466105 105.1796886  67.0890737  15.2015493 105.4068359  67.9485203
  15.4938236 105.5115262  66.4667992  20.5763842 108.3015322  57.7940066
  20.4381741 108.4916918  56.8661255  20.2200061 109.0634704  58.2508117
   8.7405968 102.2873417  63.8737078   9.3805348 102.1462176  63.1760041
   7.9083499 102.0007930  63.4975680  20.6033222 110.3691849  62.8051338
  21.0369728 110.2767138  63.6534392  21.3164802 110.3449349  62.1671354
   5.8249036 105.7318929  56.0631823   4.8946624 105.6703384  56.2801785
   5.9206508 105.2094882  55.2668465   5.7434585 102.2573742  58.6510065
   6.0041402 103.1719075  58.5419225   6.5651757 101.7898184  58.8006678
   7.2159510 103.6711499  65.8208889   7.8882563 103.4628861  65.1721538
   6.3889296 103.4733585  65.3814122  21.4648771 110.4115549  65.3384223
  21.6584661 111.3161360  65.5843498  21.3649389 109.9522968  66.1722808
  13.1185082 100.2973440  67.8374550  12.4712997 100.9963389  67.7439027
  13.8886097 100.7309584  68.2050799  13.2949216 108.1354205  65.8971370
  14.2241276 108.2865364  65.7240337  12.8740246 108.2238226  65.0420017
   7.6187007 106.9454102  66.5811327   7.4806805 106.2134341  67.1822866
   8.5291931 106.8563002  66.2995514  16.5801955 108.8842506  51.3295805
  15.9631126 108.1589334  51.2328858  16.1118443 109.6451866  50.9862879
  10.2469308 106.6574061  66.0695006  10.9568926 106.0167253  66.0281625
  10.2038616 106.9086956  66.9921187   8.9598242 103.6439279  67.8890646
   8.4235599 103.1930018  68.5412242   8.3714950 103.7785188  67.1461110
   8.3700501 103.1027931  50.4517109   7.4929967 102.9816731  50.0879356
   8.8458254 102.3114009  50.1995998   4.6937363 102.7795287  64.9743640
   4.6095552 102.1720956  64.2394050   3.8720070 103.2704305  64.9753137
  14.8661077 101.2648850  60.3413835  15.3629777 100.5118813  60.0214906
  14.0948058 101.3013167  59.7757045  22.7190834 106.9689216  61.9832127
  22.7080711 107.8513931  61.6126060  21.8508214 106.6160767  61.7886664
  11.4496046 103.4066233  60.0685520  11.0793833 102.8537274  60.7566426
  11.9455138 102.8024367  59.5160520  19.3363409 105.8637857  58.4502293
  19.8023861 106.6965848  58.3762596  19.7870910 105.3982838  59.1547551
  17.3080072  98.2318444  62.4893194  16.3943152  98.4622671  62.6575401
  17.7373173  98.3156888  63.3407227  17.0786530 106.4208336  64.9893088
  16.4257980 106.6684243  64.3345541  17.4566910 105.6072474  64.6555566
  13.1274103 107.1628147  71.4759125  12.4514740 107.0622276  72.1461501
  13.9501737 107.0067361  71.9395123   6.8461379 100.8170224  66.3138626
   6.9102706 101.6785055  65.9016024   6.7828500 100.2044226  65.5810985
   6.3213652 102.8893357  69.9611660   6.9485691 102.5070434  70.5749185
   5.4641571 102.6707559  70.3267353   3.0979195 104.6969786  55.8930015
   3.3932636 103.7880464  55.8397069   2.1967230 104.6757525  55.5711017
   6.6273442 102.7725782  61.8757564   5.9060027 103.3861750  61.7365037
   7.4166697 103.3083547  61.7974210   9.4299755 100.1080209  68.1498215
   9.9534157 100.3542505  68.9124525   9.2112088 100.9400244  67.7301353
   4.8267036 102.3783883  56.0169340   4.4979742 101.4981262  55.8344446
   5.1806407 102.3231552  56.9045729   7.9408859 102.6656853  56.3844818
   8.2804932 103.1942774  55.6623426   8.3880980 103.0037259  57.1603384
  10.6352300 101.0493904  65.8347886  10.2949121 100.2501717  66.2368566
   9.9291307 101.3495615  65.2624719  11.2868772  98.1343216  64.2875209
  12.1094841  97.6603695  64.1654099  11.5306836  98.9133700  64.7873895
   9.9277007 101.1631475  54.5838111  10.6485369 101.5412728  54.0801828
   9.3042311 101.8820352  54.6873089  14.0708129 101.8676624  55.5196443
  14.2871744 102.7501262  55.2185271  13.5902197 101.4762837  54.7902085
   8.8107351 104.8262337  62.0967188   8.6651932 105.1402640  62.9891469
   8.3332554 105.4447237  61.5438086  10.6703734 101.8164885  62.1448077
  10.6565302 100.9205978  61.8080375  11.3876162 101.8235549  62.7786363
  12.5229864 102.2502225  64.1901205  12.2647642 103.1719296  64.1885535
  11.9914905 101.8532660  64.8801669  10.0740630 100.6979265  57.4135647
  10.1956541  99.7695911  57.6126535   9.7842672 100.7117951  56.5013963
  12.9431820  98.3834176  60.5502367  12.9653517  98.4473509  59.5954347
  13.3599879  97.5438684  60.7442873  23.3215444 108.1189435  58.5881590
  23.7646590 107.3696760  58.1900713  22.4441955 108.1099572  58.2055322
   9.5581709 102.2111263  71.6225580   9.6069865 103.0873385  71.2403350
  10.1004223 101.6688656  71.0497223  20.1634430 109.6044852  68.2159446
  20.2132435 109.4394860  69.1574968  20.0548353 108.7372111  67.8257326
  17.4538192 105.5875780  69.5318752  18.3548055 105.4482245  69.2402750
  17.5286167 105.7530235  70.4716930  11.7880998 102.9642635  68.3771939
  10.9184307 103.2576201  68.1054527  12.0240478 103.5483080  69.0979202
  22.8648309 109.5894674  60.9804037  23.6995200 110.0284478  61.1441598
  23.0007438 109.1133327  60.1612283  19.9139815 107.1474408  66.9281525
  20.3893937 107.3402055  66.1200376  18.9905380 107.2033594  66.6824909
  14.4920031  99.1822252  65.8937359  15.0101975  99.9183279  65.5683848
  14.1375164  99.4886245  66.7284118   6.0718969 104.0426933  54.0098765
   5.3788214 104.1171288  53.3538801   5.8270721 103.2787277  54.5320282
  14.7432626  95.6022534  61.4138256  15.0234379  94.9345724  62.0398682
  15.5283233  95.7951630  60.9012919  18.6141484 104.0240168  65.1609831
  19.5658907 104.1238266  65.1822055  18.4444934 103.2318437  65.6707915
  16.6355863 101.1095752  65.3469232  16.0405796 101.3900764  64.6515720
  16.3505560 101.5989653  66.1185973  21.0929562 107.2446288  64.2752130
  21.0605882 106.3062289  64.4611814  21.7030185 107.3230325  63.5417955
  12.9312893 106.1142341  50.3179334  13.8771997 105.9848549  50.3867752
  12.5527138 105.3757003  50.7948763  21.2424050 104.0357332  64.3210414
  20.7263099 103.2515788  64.1340342  22.1263999 103.7076048  64.4856933
  18.9034777  97.7798347  60.2806226  18.7059598  97.4713435  61.1649558
  19.5134483  98.5059986  60.4104156  26.9106112 108.3062295  63.4158167
  27.6409500 108.0447583  63.9765870  26.3013057 107.5691017  63.4560235
  24.9921409 106.4470158  64.0132618  24.2654572 106.3126123  63.4049110
  24.5768696 106.7546986  64.8189336  11.1155810 104.0392318  50.2534220
  10.2087265 103.7425430  50.3296933  11.3931791 103.7422136  49.3868506
  12.7317875  98.5829207  56.4078461  11.9218604  98.2376292  56.7833707
  13.4202292  98.2736751  56.9966072  14.6608424  97.6607254  58.0302758
  15.2139462  98.0802707  58.6892781  14.8978510  96.7343002  58.0725714
  10.6841523 103.6494328  73.8105521  10.5838250 104.5988685  73.7417613
  10.4663065 103.3212567  72.9381592   9.8854594 100.8979253  50.3946199
  10.7473758 101.2234151  50.6542016  10.0704939 100.1110749  49.8819265
  18.0387231  99.7707779  57.5381422  17.4585900 100.4292583  57.1559474
  17.7723164  98.9485124  57.1268839  16.4890797  99.1712837  59.7402742
  16.9890576  99.2829371  58.9317061  17.1326405  98.8673890  60.3803551
  10.5472793 107.0791467  72.6270583  10.0639875 107.8791827  72.8334472
  10.6333732 107.0899411  71.6738027  16.8212109 101.9307870  56.5937770
  15.9337964 102.2157520  56.3757965  17.2366098 101.7701633  55.7465047
  20.1726645 101.9554391  60.3092109  20.9487035 102.4450843  60.5816726
  19.4474779 102.3812445  60.7663979  22.6099204 102.6682010  61.3666050
  23.2043694 102.4277746  60.6559358  22.6825787 101.9489140  61.9939586
  16.7953133 107.4462406  56.8088060  16.7388334 107.9030957  55.9695693
  17.3481475 106.6853090  56.6310903  20.6057939 103.2352137  57.6338180
  20.3494873 102.8348773  58.4646387  19.9810807 103.9495931  57.5088319
  24.9170276 105.9748211  60.1409471  24.3569834 106.0441400  60.9141033
  24.3113780 105.7989195  59.4208967  17.5287912 108.6367187  54.1040589
  17.4736716 108.4711458  53.1629033  16.9033967 109.3443220  54.2602779
   2.3180427 103.8735251  67.9302012   2.9639291 103.3634205  68.4189237
   2.1097578 104.6103933  68.5045437  10.8384037  98.1375296  53.6825908
  10.8262707  99.0817136  53.8394179  11.7307459  97.9545441  53.3885369
  14.6536157  94.7318072  57.9371845  13.8868553  94.1776559  58.0828527
  15.0646862  94.8039941  58.7985996   6.6577918 101.0202868  72.0277026
   7.5209379 100.6639673  72.2380350   6.0843329 100.6816763  72.7152430
  26.0784543 111.8722567  64.8891536  25.7348812 112.7624209  64.8130646
  26.4463505 111.6824225  64.0261121  27.8772208 111.1316126  59.9909273
  28.1831085 110.2713490  59.7035188  28.6024813 111.7233746  59.7908267
  28.1473826 113.5610361  62.4893194  27.2336906 113.7914588  62.6575401
  28.5766928 113.6448806  63.3407227  25.5826380 110.9314452  61.4138256
  25.8628134 110.2637641  62.0398682  26.3676987 111.1243548  60.9012919
  29.7428532 113.1090265  60.2806226  29.5453353 112.8005353  61.1649558
  30.3528237 113.8351904  60.4104156  25.5002178 112.9899172  58.0302758
  26.0533217 113.4094625  58.6892781  25.7372265 112.0634920  58.0725714
  25.4929911 110.0609990  57.9371845  24.7262307 109.5068477  58.0828527
  25.9040616 110.1331859  58.7985996   4.8212189  54.4964972  47.4083229
   4.0675897  53.9272370  47.2527234   4.9559730  54.4627637  48.3553864
   1.6427937  54.4667722  45.3126896   2.0859083  53.7175048  44.9146020
   0.7654447  54.4577859  44.9300628   1.1860801  55.9372961  47.7049344
   2.0207693  56.3762765  47.8686904   1.3219930  55.4611614  46.8857590
   5.2318604  54.6540582  50.1403474   5.9621992  54.3925870  50.7011177
   4.6225549  53.9169304  50.1805542   3.3133901  52.7948445  50.7377925
   2.5867065  52.6604410  50.1294417   2.8981188  53.1025273  51.5434643
   0.9311696  49.0160297  48.0911357   1.5256187  48.7756033  47.3804665
   1.0038280  48.2967428  48.7184893   3.2382769  52.3226498  46.8654778
   2.6782327  52.3919687  47.6386340   2.6326272  52.1467483  46.1454274
   4.8238787  68.9983012  49.5584733   5.4617197  68.8789759  48.8548074
   4.7059630  69.9463856  49.6172686   1.6328493  68.9510440  49.4946258
   1.2947005  68.8351505  48.6066793   2.5018262  68.5501605  49.4747264
   2.1148276  70.1045292  55.4532464   2.1036917  69.7098090  54.5812967
   2.2768916  69.3711364  56.0466235   3.0714868  74.4716884  40.7957614
   2.4202848  75.0570964  40.4091628   3.8659231  75.0023079  40.8552651
   4.3780056  66.7234466  46.6337941   5.1643145  66.3053889  46.2828359
   4.6418760  67.6280558  46.8019590   4.5490133  72.1607316  41.3326598
   3.9135966  72.2341942  42.0447503   4.2187539  72.7500915  40.6545678
   9.7788483  66.6609699  47.5370920  10.5113655  66.0908916  47.7708749
   9.0227838  66.2731299  47.9777426   1.3964602  69.0836940  44.7334262
   1.0322810  68.5567561  45.4447184   2.2531718  68.6935409  44.5600748
   7.3013903  60.3731273  51.9965529   6.9697228  61.2426684  51.7726744
   6.7059516  60.0567557  52.6759559   1.0370089  64.1126840  39.7295611
   1.2044492  64.9807076  40.0966082   0.8467259  64.2754122  38.8056900
   3.7945423  72.5743819  51.3961441   3.4946146  73.4768858  51.2877249
   3.4496482  72.3076002  52.2482594   7.1942566  65.0926359  49.0758879
   6.2859444  65.0241768  48.7817640   7.1430162  65.5698304  49.9040704
   1.2683432  66.5116005  57.0193776   0.4916766  67.0709925  57.0096641
   1.9073995  66.9972788  57.5408646   9.0604213  63.2942798  50.8536753
   8.4178593  63.5875331  50.2076547   8.5559141  63.1795718  51.6589949
   6.7144376  67.0405971  41.5422612   7.6262233  67.2733357  41.3670309
   6.2054024  67.6243015  40.9797690   4.9985144  71.4630599  55.1783904
   5.4068500  71.0213009  54.4338537   4.2762406  70.8883226  55.4318097
   1.3516214  66.4003205  52.5517461   2.1977409  66.8242619  52.6952110
   1.2914852  65.7436830  53.2456024   5.3213959  72.0231789  48.9336193
   4.6922821  72.1877503  48.2312261   4.9339621  72.4373399  49.7047157
   9.2003191  72.9586227  46.2880557   8.5154229  73.3385128  45.7377590
   9.2847040  73.5681554  47.0212505   4.5015660  64.0607574  54.2098635
   4.2576591  64.8149634  53.6732911   4.7775590  64.4392921  55.0445882
   6.4554122  70.6046186  52.8875901   6.6671018  71.2477946  52.2110282
   6.4083871  69.7708503  52.4197831   4.0580351  63.2164007  49.7912473
   3.1964830  63.5145260  50.0829210   4.0842786  63.4334406  48.8593505
   0.8741921  71.7606197  46.1986278   1.3380266  72.0393900  45.4090901
   0.6098719  70.8589642  46.0159369   7.5699950  73.4818141  51.0598258
   8.3917394  73.0798329  50.7780940   7.5662353  73.3786376  52.0114374
   1.3356554  73.0302185  53.2158968   1.4000986  73.4922592  54.0517140
   0.6267478  72.3999550  53.3441278  15.6605943  69.8256890  47.4083229
  14.9069652  69.2564288  47.2527234  15.7953485  69.7919554  48.3553864
   1.0504571  74.6970292  43.0837949   0.9150246  75.5421828  43.5122797
   1.5914384  74.8989570  42.3203883   2.6773048  75.3193859  57.2138291
   2.2336902  74.5330237  56.8959195   3.3390261  75.5073009  56.5482182
   4.7754286  75.5996659  55.2419692   4.7572761  76.4205540  54.7499961
   5.6974206  75.4750734  55.4669833   1.2327340  73.1140788  56.0843200
   1.7655677  72.3529076  55.8542508   0.7041421  72.8214440  56.8267355
   4.3997035  58.2200854  51.6136842   4.0561304  59.1102496  51.5375953
   4.7675998  58.0302512  50.7506427   4.3647318  68.2109465  40.1209277
   3.8493941  68.9814070  40.3597665   4.0924626  67.5374601  40.7442339
   1.9494429  63.0559166  45.1794516   1.0936025  62.6666016  45.0000154
   2.3621380  63.1351127  44.3194301   3.4793575  60.5905509  49.5786075
   2.9758371  60.5535644  48.7653881   3.7724182  61.4998252  49.6382732
   9.3381592  70.9641820  42.0562451   8.5611035  70.6252979  41.6117613
  10.0173073  70.9694443  41.3817416   4.1533621  66.0836557  41.9469059
   3.8483756  66.3982707  42.7979202   5.1064063  66.1617977  41.9896392
   2.5980053  72.2426781  43.5962012   2.0701414  71.5079540  43.2835250
   2.0967555  73.0201457  43.3501981   7.5772899  70.4375801  48.7129059
   6.9196573  71.1275063  48.8009187   8.3813298  70.8272233  49.0563045
   6.3878357  68.7920174  46.7633001   6.9010239  69.4250166  47.2654710
   7.0379581  68.1921369  46.3976361   3.6500732  78.7704498  39.5193672
   2.9762430  79.0736195  40.1278630   4.0366554  79.5733578  39.1699129
   2.8659188  66.2669629  49.0091341   1.9481750  66.4884576  48.8513029
   3.2819332  66.3415940  48.1503048   3.6494236  67.6661045  44.1394021
   4.3966055  68.1782442  43.8301143   3.9185826  67.3445098  44.9998415
   1.9220886  70.1619586  41.1220976   1.0132106  69.8778619  41.2193445
   1.9515970  70.5818664  40.2624282   7.1540154  73.7726175  44.8912143
   6.7002481  72.9317085  44.9477334   6.5234120  74.4087574  45.2286923
   6.0973073  64.7018161  46.1212811   5.3595830  64.1895548  46.4523053
   6.3499847  64.2618543  45.3096088   5.5973093  75.6102672  45.8261961
   5.8896067  76.1707729  45.1074327   6.1071713  75.9031233  46.5815120
   6.1984701  57.4794413  46.7154580   6.5043577  56.6191777  46.4280495
   6.9237305  58.0712034  46.5153574   1.6196974  71.7028329  38.4609054
   1.1816404  70.9864188  38.0014692   2.3607415  71.9304444  37.8994146
   0.5606718  76.3883023  46.9155415   0.5182897  76.6143869  45.9863947
   1.4769417  76.1546398  47.0641216   4.0072352  66.8567091  53.8136044
   4.3621740  67.0838564  54.6730509   4.6544483  67.1885467  53.1913299
   9.7370089  69.9785527  44.5185373   9.5987987  70.1687122  43.5906562
   9.3806308  70.7404909  44.9753424   9.7639468  72.0462054  49.5296644
  10.1975975  71.9537343  50.3779698  10.4771049  72.0219554  48.8916660
   3.4967363  75.6464148  51.0629745   3.5504386  76.2155084  51.8307461
   2.6282145  75.8166033  50.6983782  10.6255018  72.0885754  52.0629530
  10.8190908  72.9931565  52.3088805  10.5255636  71.6293173  52.8968115
   2.2791329  61.9743645  54.5619857   1.6319244  62.6733594  54.4684333
   3.0492344  62.4079789  54.9296105   5.6870127  72.2392497  57.6370410
   5.5355633  72.0103049  56.7200494   5.6774806  73.1963098  57.6501755
   2.4555463  69.8124410  52.6216677   3.3847523  69.9635569  52.4485644
   2.0346493  69.9008430  51.7665323   1.8491947  78.9384171  41.7340751
   2.0243703  78.4672214  42.5486374   1.1624735  79.5649937  41.9622012
   2.8049010  73.2156677  47.7804052   2.4698843  73.1757447  48.6761702
   2.3052956  72.5501393  47.3074462   5.7408202  70.5612711  38.0541112
   5.1237372  69.8359539  37.9574164   5.2724690  71.3222071  37.7108186
   7.3962333  75.2711619  55.7146892   7.3374879  74.5870840  55.0477475
   7.7981852  76.0130609  55.2627518   7.3979741  73.2351203  53.9460872
   6.5106519  72.8977125  54.0687271   7.9678292  72.5034235  54.1829637
   0.9280894  77.8952656  50.9122115   0.8551065  78.7007627  51.4241420
   0.4858287  78.0944622  50.0870136   4.0267324  62.9419055  47.0659142
   4.5236023  62.1889018  46.7460212   3.2554305  62.9783372  46.5002351
  11.8797081  68.6459421  48.7077433  11.8686957  69.5284136  48.3371367
  11.0114461  68.2930972  48.5131971   3.3879578  77.7939490  53.0680274
   4.1007550  78.4286955  52.9956175   2.8969606  77.8903356  52.2520276
   5.1097104  71.6990742  44.6397565   4.1753383  71.8192205  44.4702270
   5.2873773  70.7963209  44.3757575   8.4969656  67.5408062  45.1747600
   8.9630108  68.3736053  45.1007902   8.9477156  67.0753043  45.8792858
   6.5645887  73.8851883  42.1733752   6.8405731  73.7708478  43.0827626
   5.6950386  73.4869368  42.1345925   6.4686319  59.9088649  49.2138501
   5.5549398  60.1392876  49.3820708   6.8979420  59.9927093  50.0652533
   6.2392777  68.0978541  51.7138395   5.5864227  68.3454448  51.0590848
   6.6173157  67.2842679  51.3800872   3.1999951  78.1338234  45.8166565
   3.3822345  77.3159890  46.2794317   4.0232937  78.3505926  45.3791455
   3.5342116  77.0606419  43.0781614   4.0629883  76.5498874  42.4651776
   3.7970336  76.7448949  43.9427147   2.2880350  68.8398352  58.2004432
   1.6120987  68.7392481  58.8706807   3.1107984  68.6837565  58.6640429
   1.0303133  80.1465279  52.4362048   1.5821441  80.3096901  53.2011133
   1.3709326  80.7369717  51.7642073   5.8814007  74.9726537  58.2910702
   6.4253911  75.5856495  57.7965657   5.3000852  75.5306115  58.8077715
   4.1671520  78.0947255  49.4225730   4.0422660  77.2936995  48.9136676
   4.8250611  78.5893448  48.9339700   6.2306429  75.8956275  51.0505280
   5.2836764  75.7761626  50.9783607   6.5789202  75.0078773  51.1331542
   3.2352862  75.6908991  47.2509632   3.0877824  74.7625698  47.4317202
   4.0606355  75.7129082  46.7666708   6.8386984  76.5137550  48.3374505
   7.7633531  76.3080411  48.1998956   6.6702287  76.2653951  49.2463847
   3.2314376  63.5446829  42.2441750   3.4477991  64.4271467  41.9430578
   2.7508443  63.1533042  41.5147392   1.6836111  63.9272430  50.9146511
   1.4253889  64.8489501  50.9130842   1.1521152  63.5302865  51.6046975
   6.6282300  77.0323217  43.6936597   6.8019177  76.4669640  42.9410449
   7.1211191  77.8324112  43.5116087   2.1038067  60.0604381  47.2747674
   2.1259764  60.1243714  46.3199653   2.5206126  59.2208889  47.4688180
  12.4821691  69.7959640  45.3126896  12.9252837  69.0466965  44.9146020
  11.6048201  69.7869777  44.9300628   7.6157472  76.3489982  40.7933495
   8.3108377  76.9696674  41.0120810   7.9580623  75.4985333  41.0685873
   9.5148896  73.7989687  42.3220826  10.0400220  74.1376960  41.5970146
   9.4271248  72.8636702  42.1383960   1.1768944  77.7123761  54.4510702
   1.4856071  77.4672908  55.3233402   1.9744426  77.9170399  53.9629573
   1.1989556  79.8661670  46.6816079   0.7594547  79.3738049  47.3748936
   1.9497673  79.3234638  46.4408154   9.2042802  74.4322591  57.6272024
   8.4138345  74.4146730  57.0876523   8.9676156  74.9710884  58.3821060
   9.3240677  71.2815057  54.9404752   9.3738682  71.1165065  55.8820275
   9.2154600  70.4142316  54.5502633   6.6144439  67.2645985  56.2564059
   7.5154302  67.1252450  55.9648057   6.6892414  67.4300440  57.1962236
  10.8258873  73.7011999  55.1846774  10.5343682  74.0641979  56.0210235
  10.2131005  72.9879007  55.0060106  12.0254556  71.2664878  47.7049344
  12.8601447  71.7054683  47.8686904  12.1613685  70.7903532  46.8857590
   9.0746062  68.8244613  53.6526832   9.5500183  69.0172260  52.8445683
   8.1511627  68.8803799  53.4070215   3.6526278  60.8592457  52.6182666
   4.1708222  61.5953484  52.2929154   3.2981411  61.1656450  53.4529425
   3.9038872  57.2792739  48.1383562   4.1840626  56.6115928  48.7643989
   4.6889479  57.4721835  47.6258226   1.7072341  76.4551733  39.7008589
   1.1346308  77.0741920  39.2479060   2.2805135  77.0051095  40.2348510
   7.7747731  65.7010373  51.8855137   8.7265154  65.8008471  51.9067361
   7.6051181  64.9088642  52.3953222   5.7962110  62.7865957  52.0714538
   5.2012042  63.0670969  51.3761027   5.5111807  63.2759858  52.8431279
   4.9269601  76.7388883  40.8317171   5.8600274  76.6734445  41.0350046
   4.8392813  77.5745150  40.3731703   7.5557617  76.0554754  37.7921118
   7.4771249  75.7214617  38.6856876   8.3767284  76.5476522  37.7912591
  10.2535809  68.9216493  50.9997437  10.2212129  67.9832494  51.1857121
  10.8636432  69.0000530  50.2663262   2.0919139  67.7912546  37.0424641
   3.0378244  67.6618754  37.1113059   1.7133384  67.0527208  37.5194069
  10.4030297  65.7127537  51.0455720   9.8869346  64.9285993  50.8585649
  11.2870246  65.3846253  51.2102240   8.0641024  59.4568552  47.0051533
   7.8665845  59.1483640  47.8894865   8.6740730  60.1830191  47.1349463
  16.0712358  69.9832500  50.1403474  16.8015747  69.7217788  50.7011177
  15.4619304  69.2461222  50.1805542  14.1527655  68.1240363  50.7377925
  13.4260819  67.9896327  50.1294417  13.7374942  68.4317191  51.5434643
   1.9757832  71.8430292  58.5025298   2.8960841  72.0208891  58.6965344
   1.9407415  70.8986338  58.3504997   1.8924122  60.2599412  43.1323768
   1.0824851  59.9146497  43.5079014   2.5808539  59.9506956  43.7211379
   3.8214671  59.3377459  44.7548064   4.3745709  59.7572912  45.4138087
   4.0584757  58.4113207  44.7971020   7.1993478  61.4477984  44.2626728
   6.6192147  62.1062788  43.8804781   6.9329410  60.6255329  43.8514146
   5.6497044  60.8483042  46.4648049   6.1496822  60.9599576  45.6562368
   6.2932652  60.5444095  47.1048857   5.9818356  63.6078075  43.3183077
   5.0944211  63.8927725  43.1003271   6.3972345  63.4471838  42.4710354
   9.3332892  63.6324595  47.0337416  10.1093282  64.1221048  47.3062033
   8.6081026  64.0582650  47.4909285  11.7705450  64.3452215  48.0911357
  12.3649941  64.1047951  47.3804665  11.8432034  63.6259345  48.7184893
   5.1261569  73.3722749  37.4131097   5.8297419  73.5772752  38.0288752
   4.4024218  73.9399511  37.6780180   5.9559379  69.1232610  43.5333367
   5.8994581  69.5801162  42.6940999   6.5087722  68.3623295  43.3556210
   9.7664185  64.9122342  44.3583486   9.5101120  64.5118978  45.1891694
   9.1417053  65.6266136  44.2333625  14.0776523  67.6518416  46.8654778
  13.5176081  67.7211605  47.6386340  13.4720027  67.4759400  46.1454274
   7.0348267  73.8105278  39.4629557   7.8693870  73.3786477  39.2807032
   6.8732609  73.6387292  40.3906451   6.6894159  70.3137392  40.8285896
   6.6342963  70.1481663  39.8874340   6.0640214  71.0213425  40.9848086
   4.0040066  72.6186304  60.1539459   4.8731226  72.7926956  59.7926094
   3.5246817  73.4380720  60.0315188   3.8142404  56.4088277  44.6617151
   3.0474799  55.8546764  44.8073834   4.2253109  56.4810146  45.5231303
  15.6632542  84.3274929  49.5584733  16.3010952  84.2081677  48.8548074
  15.5453385  85.2755773  49.6172686  12.4722248  84.2802358  49.4946258
  12.1340759  84.1643422  48.6066793  13.3412016  83.8793523  49.4747264
   8.3309064  86.1337834  45.4843149   7.7673929  86.0427771  44.7159437
   8.2161459  85.3137738  45.9645642  12.9542031  85.4337209  55.4532464
  12.9430672  85.0390008  54.5812967  13.1162670  84.7003282  56.0466235
   5.8773496  87.6289026  48.3227370   6.6694787  87.2879850  47.9073669
   6.1170146  87.7384001  49.2429523  13.9108622  89.8008802  40.7957614
  13.2596602  90.3862882  40.4091628  14.7052985  90.3314997  40.8552651
   7.8364249  86.8897939  41.1944748   8.6095125  86.3426926  41.0557624
   8.1889648  87.7542188  41.4059210   9.6749292  88.2174321  54.4011648
   9.3839158  89.1219952  54.2858314  10.3106276  88.2590849  55.1155717
  10.6005499  85.5951170  50.9913007  11.1969071  85.3707192  50.2769970
  10.6580470  84.8535915  51.5938455  10.1730527  83.0490605  38.8263198
  10.4256048  82.5272126  38.0646661   9.2355086  82.8856750  38.9289882
  15.2173810  82.0526383  46.6337941  16.0036899  81.6345807  46.2828359
  15.4812514  82.9572476  46.8019590  15.3883887  87.4899234  41.3326598
  14.7529720  87.5633860  42.0447503  15.0581294  88.0792832  40.6545678
  20.6182237  81.9901617  47.5370920  21.3507409  81.4200833  47.7708749
  19.8621593  81.6023217  47.9777426   9.8926816  84.9518711  41.0287573
   9.7763074  84.2763614  41.6968658  10.0029076  84.4651085  40.2119726
  12.2358357  84.4128858  44.7334262  11.8716564  83.8859479  45.4447184
  13.0925473  84.0227327  44.5600748  18.1407658  75.7023191  51.9965529
  17.8090982  76.5718602  51.7726744  17.5453271  75.3859475  52.6759559
  11.8763844  79.4418758  39.7295611  12.0438246  80.3098994  40.0966082
  11.6861013  79.6046039  38.8056900  14.6339177  87.9035737  51.3961441
  14.3339900  88.8060775  51.2877249  14.2890237  87.6367920  52.2482594
   8.0851659  84.3549533  47.4298146   7.1602155  84.2225748  47.6375838
   8.3336072  85.1343753  47.9268088  18.0336321  80.4218277  49.0758879
  17.1253198  80.3533685  48.7817640  17.9823917  80.8990222  49.9040704
  11.8553065  81.8976415  40.7142278  11.7352690  82.3433466  41.5527758
  11.1605653  82.2461733  40.1555816   5.4460470  83.9982807  48.2641935
   5.5752851  84.2517286  49.1781347   4.7657921  84.5910515  47.9446590
   9.6159957  94.6680057  44.3632409   9.5383987  95.6187882  44.4420890
   9.0121601  94.3225929  45.0207335  12.1077187  81.8407922  57.0193776
  11.3310521  82.4001843  57.0096641  12.7467750  82.3264705  57.5408646
  19.8997967  78.6234715  50.8536753  19.2572348  78.9167248  50.2076547
  19.3952896  78.5087636  51.6589949  17.5538131  82.3697888  41.5422612
  18.4655987  82.6025275  41.3670309  17.0447778  82.9534933  40.9797690
  10.3623559  84.6493376  56.5811743  11.1038243  85.1878420  56.3046567
   9.6560544  85.2759665  56.7383295  15.8378899  86.7922516  55.1783904
  16.2462255  86.3504927  54.4338537  15.1156160  86.2175144  55.4318097
  12.1909969  81.7295123  52.5517461  13.0371164  82.1534537  52.6952110
  12.1308606  81.0728747  53.2456024  16.1607713  87.3523707  48.9336193
  15.5316576  87.5169421  48.2312261  15.7733375  87.7665316  49.7047157
  20.0396945  88.2878145  46.2880557  19.3547983  88.6677046  45.7377590
  20.1240794  88.8973471  47.0212505  15.3409414  79.3899491  54.2098635
  15.0970346  80.1441552  53.6732911  15.6169345  79.7684839  55.0445882
  17.2947877  85.9338104  52.8875901  17.5064772  86.5769864  52.2110282
  17.2477625  85.1000420  52.4197831  14.8974106  78.5455924  49.7912473
  14.0358585  78.8437178  50.0829210  14.9236540  78.7626323  48.8593505
  11.7135675  87.0898115  46.1986278  12.1774021  87.3685818  45.4090901
  11.4492473  86.1881560  46.0159369   8.6059756  86.6369596  49.1366042
   9.1761113  87.0656865  48.4983526   9.1967868  86.3552181  49.8350227
  10.6504561  83.2121267  43.0075844  11.3528605  83.6642311  43.4749770
  10.3185190  82.5705086  43.6355737   9.0984923  81.8033024  57.3827053
   8.4683583  82.4849305  57.6162450   8.9921011  81.6916106  56.4380191
   4.3929895  81.4704820  48.3092977   3.6028949  81.7262349  47.8333088
   4.8841143  82.2853158  48.4145018  18.4093705  88.8110059  51.0598258
  19.2311148  88.4090246  50.7780940  18.4056108  88.7078293  52.0114374
   6.3444641  81.8349399  45.2676454   5.5475804  81.9468093  45.7859949
   6.1170233  82.1736051  44.4017344  12.1750308  88.3594102  53.2158968
  12.2394741  88.8214510  54.0517140  11.4661232  87.7291467  53.3441278
   2.6767598  81.7235310  50.7407968   2.9275637  82.6082320  51.0065544
   3.2127147  81.5439912  49.9683060  26.4999698  85.1548808  47.4083229
  25.7463406  84.5856206  47.2527234  26.6347239  85.1211472  48.3553864
  11.8898326  90.0262210  43.0837949  11.7544001  90.8713746  43.5122797
  12.4308138  90.2281488  42.3203883   8.3765665  76.1053790  59.7452304
   7.9832611  75.5519988  60.4199948   9.1931806  76.4164368  60.1358822
   5.3427723  87.5437648  43.6565874   5.8552244  88.3380898  43.8071439
   5.9950436  86.8463938  43.5899475   7.1522608  90.6603404  45.7388627
   7.3289236  91.5821369  45.5509611   7.9479441  90.3461823  46.1683007
  11.2933626  77.5211669  57.3372561  12.0343340  78.1218822  57.2577023
  11.5251549  76.7789307  56.7790603   6.4374964  82.7068036  55.6150790
   6.3228480  81.8053293  55.9157889   5.5819482  82.9531733  55.2635607
  13.5166802  90.6485776  57.2138291  13.0730656  89.8622155  56.8959195
  14.1784016  90.8364927  56.5482182   8.2753923  92.1781578  51.7398969
   8.8261349  92.0498641  50.9675963   7.4365399  92.4776467  51.3893862
  15.6148040  90.9288576  55.2419692  15.5966516  91.7497457  54.7499961
  16.5367960  90.8042652  55.4669833  12.0721094  88.4432706  56.0843200
  12.6049431  87.6820994  55.8542508  11.5435176  88.1506358  56.8267355
  15.2390789  73.5492772  51.6136842  14.8955059  74.4394414  51.5375953
  15.6069752  73.3594429  50.7506427   3.3076640  85.8726302  44.4325444
   4.1451862  86.2823311  44.2159152   3.4854908  84.9325744  44.4025638
  15.2041072  83.5401383  40.1209277  14.6887696  84.3105988  40.3597665
  14.9318381  82.8666519  40.7442339  12.7888183  78.3851084  45.1794516
  11.9329779  77.9957934  45.0000154  13.2015135  78.4643045  44.3194301
  14.3187330  75.9197427  49.5786075  13.8152125  75.8827562  48.7653881
  14.6117937  76.8290170  49.6382732  10.5630216  76.0036157  48.5852257
  11.4283212  75.8078965  48.2258147  10.6307725  75.7746508  49.5121614
  20.1775346  86.2933738  42.0562451  19.4004789  85.9544897  41.6117613
  20.8566827  86.2986361  41.3817416  14.9927375  81.4128475  41.9469059
  14.6877511  81.7274624  42.7979202  15.9457817  81.4909895  41.9896392
  13.4373807  87.5718698  43.5962012  12.9095169  86.8371458  43.2835250
  12.9361310  88.3493375  43.3501981  18.4166653  85.7667719  48.7129059
  17.7590328  86.4566980  48.8009187  19.2207052  86.1564151  49.0563045
   8.1692535  78.2338365  45.9568624   8.7436287  78.0113546  45.2241817
   8.7563517  78.3027059  46.7097225  17.2272112  84.1212092  46.7633001
  17.7403994  84.7542083  47.2654710  17.8773336  83.5213287  46.3976361
   8.4962122  80.2642826  39.9764509   7.6599434  80.6017512  40.2973784
   8.3566892  80.1291805  39.0391646  10.4715202  75.1079614  44.6843693
   9.8179615  74.7928631  44.0600308  10.4295677  74.4855354  45.4103516
  11.5826407  85.3898909  36.5996986  10.6753469  85.1588162  36.7988135
  12.0797439  84.5936528  36.7870967  14.4894486  94.0996416  39.5193672
  13.8156185  94.4028113  40.1278630  14.8760308  94.9025496  39.1699129
  13.7052943  81.5961547  49.0091341  12.7875504  81.8176494  48.8513029
  14.1213086  81.6707858  48.1503048  14.4887991  82.9952963  44.1394021
  15.2359810  83.5074360  43.8301143  14.7579580  82.6737015  44.9998415
  12.7614641  85.4911503  41.1220976  11.8525860  85.2070536  41.2193445
  12.7909725  85.9110582  40.2624282  17.9933908  89.1018093  44.8912143
  17.5396235  88.2609003  44.9477334  17.3627875  89.7379491  45.2286923
  16.9366828  80.0310079  46.1212811  16.1989585  79.5187465  46.4523053
  17.1893601  79.5910461  45.3096088  16.4366847  90.9394590  45.8261961
  16.7289822  91.4999647  45.1074327  16.9465468  91.2323151  46.5815120
  17.0378455  72.8086331  46.7154580  17.3437332  71.9483694  46.4280495
  17.7631060  73.4003951  46.5153574   3.3302811  83.2117018  45.1036178
   3.1327211  82.6186378  44.3787244   2.7749475  82.9069228  45.8212117
  11.3099535  83.1040124  47.2230771  11.3648145  82.1513960  47.1473248
  10.4990737  83.2599563  47.7072069  12.4590729  87.0320247  38.4609054
  12.0210158  86.3156106  38.0014692  13.2001169  87.2596362  37.8994146
   9.2491895  81.7217184  44.9821150   8.4359760  82.0211354  45.3886342
   9.7450889  81.3272873  45.6995632  11.4000473  91.7174941  46.9155415
  11.3576651  91.9435787  45.9863947  12.3163171  91.4838315  47.0641216
  14.8466106  82.1859008  53.8136044  15.2015494  82.4130481  54.6730509
  15.4938238  82.5177385  53.1913299  20.5763843  85.3077444  44.5185373
  20.4381742  85.4979040  43.5906562  20.2200062  86.0696827  44.9753424
   8.7405969  79.2935539  50.5982385   9.3805349  79.1524298  49.9005348
   7.9083500  79.0070053  50.2220987  20.6033223  87.3753971  49.5296644
  21.0369730  87.2829260  50.3779698  21.3164804  87.3511472  48.8916660
   9.5166273  88.5937970  46.7117377  10.3106872  88.0988290  46.5099952
   8.8057966  88.0655833  46.3485083  14.3361118  90.9756065  51.0629745
  14.3898140  91.5447002  51.8307461  13.4675899  91.1457950  50.6983782
   5.8249037  82.7381052  42.7877130   4.8946625  82.6765507  43.0047092
   5.9206509  82.2157004  41.9913771   5.7434586  79.2635864  45.3755372
   6.0041403  80.1781198  45.2664532   6.5651758  78.7960307  45.5251984
   7.2159511  80.6773622  52.5454196   7.8882565  80.4690984  51.8966845
   6.3889298  80.4795708  52.1059428  21.4648773  87.4177672  52.0629530
  21.6584663  88.3223482  52.3088805  21.3649391  86.9585091  52.8968115
  13.1185083  77.3035562  54.5619857  12.4712998  78.0025512  54.4684333
  13.8886099  77.7371706  54.9296105  16.5263881  87.5684415  57.6370410
  16.3749388  87.3394966  56.7200494  16.5168561  88.5255016  57.6501755
  13.2949218  85.1416327  52.6216677  14.2241278  85.2927487  52.4485644
  12.8740248  85.2300348  51.7665323  12.0937549  89.1666992  50.3915214
  11.9548635  88.7985776  51.2641152  11.3052146  89.6814631  50.2199172
  12.6885701  94.2676088  41.7340751  12.8637457  93.7964131  42.5486374
  12.0018489  94.8941854  41.9622012  13.6442765  88.5448594  47.7804052
  13.3092597  88.5049364  48.6761702  13.1446710  87.8793310  47.3074462
   7.6187008  83.9516224  53.3056633   7.4806806  83.2196463  53.9068172
   8.5291932  83.8625125  53.0240821  16.5801956  85.8904629  38.0541112
  15.9631127  85.1651457  37.9574164  16.1118445  86.6513989  37.7108186
  10.2469309  83.6636184  52.7940313  10.9568928  83.0229376  52.7526931
  10.2038617  83.9149079  53.7166494  18.2356088  90.6003537  55.7146892
  18.1768634  89.9162757  55.0477475  18.6375606  91.3422527  55.2627518
   8.9598243  80.6501402  54.6135952   8.4235600  80.1992140  55.2657549
   8.3714952  80.7847311  53.8706417   7.2546787  97.4165451  48.5080611
   7.4943385  98.0483975  49.1859630   6.4115983  97.0653491  48.7945970
   8.3700502  80.1090053  37.1762416   7.4929968  79.9878854  36.8124663
   8.8458255  79.3176131  36.9241305  18.2373495  88.5643121  53.9460872
  17.3500274  88.2269043  54.0687271  18.8072046  87.8326152  54.1829637
   4.6937364  79.7857409  51.6988947   4.6095553  79.1783079  50.9639357
   3.8720071  80.2766428  51.6998443  11.7674649  93.2244573  50.9122115
  11.6944820  94.0299545  51.4241420  11.3252042  93.4236539  50.0870136
  11.5564428  92.4616343  44.4224937  10.7731950  93.0038024  44.5163161
  12.2557173  92.9790323  44.8219178  14.8661078  78.2710973  47.0659142
  15.3629778  77.5180935  46.7460212  14.0948060  78.3075290  46.5002351
  22.7190836  83.9751338  48.7077433  22.7080712  84.8576054  48.3371367
  21.8508215  83.6222889  48.5131971  14.2273332  93.1231407  53.0680274
  14.9401304  93.7578872  52.9956175  13.7363361  93.2195273  52.2520276
  15.9490859  87.0282660  44.6397565  15.0147138  87.1484123  44.4702270
  16.1267527  86.1255127  44.3757575  11.4496047  80.4128356  46.7930827
  11.0793835  79.8599396  47.4811732  11.9455139  79.8086489  46.2405827
  19.3363410  82.8699979  45.1747600  19.8023862  83.7027971  45.1007902
  19.7870911  82.4044961  45.8792858   9.2785246  90.8725851  53.8885845
   9.9794705  91.5062334  54.0415239   8.8080361  91.2140582  53.1281484
  17.4039641  89.2143801  42.1733752  17.6799485  89.1000395  43.0827626
  16.5344140  88.8161286  42.1345925  17.3080073  75.2380566  49.2138501
  16.3943153  75.4684793  49.3820708  17.7373174  75.3219010  50.0652533
  17.0786532  83.4270458  51.7138395  16.4257982  83.6746366  51.0590848
  17.4566911  82.6134597  51.3800872  14.0393705  93.4630152  45.8166565
  14.2216100  92.6451807  46.2794317  14.8626691  93.6797844  45.3791455
  14.3735871  92.3898337  43.0781614  14.9023637  91.8790791  42.4651776
  14.6364090  92.0740867  43.9427147  13.1274105  84.1690269  58.2004432
  12.4514742  84.0684399  58.8706807  13.9501738  84.0129483  58.6640429
   4.8752964  90.4062206  50.8216947   5.4606400  89.6605894  50.9544851
   4.6777802  90.7166163  51.7053611   7.7291619  93.4413453  45.8379390
   7.0601994  93.9259581  45.3543430   7.5904489  93.6882674  46.7522768
  11.8696887  95.4757197  52.4362048  12.4215195  95.6388818  53.2011133
  12.2103081  96.0661635  51.7642073   6.8461381  77.8232347  53.0383933
   6.9102707  78.6847178  52.6261330   6.7828501  77.2106348  52.3056291
   6.3213653  79.8955479  56.6856967   6.9485692  79.5132557  57.2994491
   5.4641572  79.6769681  57.0512659  16.7207762  90.3018454  58.2910702
  17.2647666  90.9148413  57.7965657  16.1394607  90.8598033  58.8077715
   3.0979196  81.7031908  42.6175322   3.3932637  80.7942587  42.5642375
   2.1967232  81.6819648  42.2956324  15.0065275  93.4239172  49.4225730
  14.8816414  92.6228912  48.9136676  15.6644366  93.9185366  48.9339700
   6.6273443  79.7787905  48.6002870   5.9060029  80.3923873  48.4610344
   7.4166699  80.3145670  48.5219516  17.0700183  91.2248192  51.0505280
  16.1230519  91.1053544  50.9783607  17.4182956  90.3370691  51.1331542
   9.4299756  77.1142331  54.8743522   9.9534158  77.3604628  55.6369831
   9.2112090  77.9462366  54.4546659   4.8267038  79.3846006  42.7414647
   4.4979744  78.5043385  42.5589753   5.1806408  79.3293675  43.6291036
  14.0746616  91.0200909  47.2509632  13.9271579  90.0917616  47.4317202
  14.9000110  91.0420999  46.7666708   7.9408861  79.6718976  43.1090125
   8.2804933  80.2004897  42.3868733   8.3880981  80.0099382  43.8848691
  17.6780738  91.8429467  48.3374505  18.6027286  91.6372329  48.1998956
  17.5096042  91.5945869  49.2463847  10.6352301  78.0556027  52.5593193
  10.2949122  77.2563840  52.9613872   9.9291308  78.3557737  51.9870026
  11.2868773  75.1405339  51.0120516  12.1094843  74.6665817  50.8899406
  11.5306837  75.9195823  51.5119202   9.9277008  78.1693597  41.3083417
  10.6485370  78.5474850  40.8047134   9.3042312  78.8882474  41.4118395
  14.0708131  78.8738746  42.2441750  14.2871745  79.7563384  41.9430578
  13.5902198  78.4824960  41.5147392   8.8107352  81.8324460  48.8212494
   8.6651933  82.1464763  49.7136776   8.3332556  82.4509360  48.2683393
  10.6703735  78.8227008  48.8693384  10.6565304  77.9268101  48.5325682
  11.3876163  78.8297671  49.5031670  12.5229866  79.2564348  50.9146511
  12.2647643  80.1781418  50.9130842  11.9914906  78.8594782  51.6046975
  17.4676054  92.3615135  43.6936597  17.6412932  91.7961557  42.9410449
  17.9604946  93.1616030  43.5116087   3.2853014  84.3729804  51.7600155
   2.7406482  85.1489612  51.8920430   4.1632364  84.7200608  51.6019277
  10.0740631  77.7041388  44.1380954  10.1956542  76.7758034  44.3371841
   9.7842673  77.7180074  43.2259269  12.9431821  75.3896298  47.2747674
  12.9653518  75.4535631  46.3199653  13.3599880  74.5500807  47.4688180
  23.3215446  85.1251558  45.3126896  23.7646592  84.3758883  44.9146020
  22.4441956  85.1161694  44.9300628  18.4551227  91.6781899  40.7933495
  19.1502132  92.2988592  41.0120810  18.7974377  90.8277251  41.0685873
   4.0719036  83.4999700  54.6530312   3.3300772  83.6482336  55.2394943
   3.7511780  83.7607966  53.7897062  20.3542650  89.1281605  42.3220826
  20.8793974  89.4668878  41.5970146  20.2665003  88.1928620  42.1383960
  12.0162699  93.0415678  54.4510702  12.3249825  92.7964825  55.3233402
  12.8138181  93.2462317  53.9629573  12.0383311  95.1953588  46.6816079
  11.5988301  94.7029967  47.3748936  12.7891428  94.6526556  46.4408154
   4.5175650  91.3865129  46.6840707   5.3433670  91.0868901  46.3039350
   4.1669702  90.6172751  47.1330496   9.4857183  90.7391597  48.7538381
   8.8637192  90.0762302  48.4540608  10.1562050  90.7652729  48.0712028
   2.7184255  89.3051455  47.6429641   1.8816163  88.8773630  47.4613642
   2.6907900  89.4983899  48.5800432   9.5581710  79.2173385  58.3470887
   9.6069866  80.0935508  57.9648656  10.1004225  78.6750778  57.7742530
  20.0436556  89.7614508  57.6272024  19.2532100  89.7438647  57.0876523
  19.8069911  90.3002802  58.3821060  20.1634431  86.6106975  54.9404752
  20.2132436  86.4456982  55.8820275  20.0548355  85.7434234  54.5502633
   9.0470690  89.2895521  42.2296841   9.1958810  89.9730985  41.5763514
   9.8537133  89.2700611  42.7446297  17.4538194  82.5937903  56.2564059
  18.3548056  82.4544368  55.9648057  17.5286168  82.7592358  57.1962236
  11.7880999  79.9704758  55.1017245  10.9184308  80.2638324  54.8299834
  12.0240479  80.5545203  55.8224509  21.6652628  89.0303916  55.1846774
  21.3737436  89.3933897  56.0210235  21.0524759  88.3170925  55.0060106
  22.8648310  86.5956796  47.7049344  23.6995202  87.0346600  47.8686904
  23.0007439  86.1195449  46.8857590  19.9139816  84.1536531  53.6526832
  20.3893938  84.3464177  52.8445683  18.9905382  84.2095717  53.4070215
   6.8023323  85.3160698  43.2357910   6.5569365  84.4123028  43.4338120
   6.9719237  85.3177849  42.2937388  14.4920033  76.1884375  52.6182666
  15.0101977  76.9245401  52.2929154  14.1375165  76.4948368  53.4529425
   6.0718970  81.0489056  40.7344071   5.3788215  81.1233411  40.0784107
   5.8270722  80.2849399  41.2565588  14.7432627  72.6084657  48.1383562
  15.0234381  71.9407846  48.7643989  15.5283234  72.8013753  47.6258226
  12.5466095  91.7843651  39.7008589  11.9740062  92.4033838  39.2479060
  13.1198889  92.3343013  40.2348510  18.6141485  81.0302291  51.8855137
  19.5658908  81.1300389  51.9067361  18.4444936  80.2380560  52.3953222
  16.6355865  78.1157874  52.0714538  16.0405797  78.3962887  51.3761027
  16.3505561  78.6051775  52.8431279  15.7663355  92.0680801  40.8317171
  16.6994028  92.0026363  41.0350046  15.6786568  92.9037068  40.3731703
  18.3951372  91.3846671  37.7921118  18.3165003  91.0506535  38.6856876
  19.2161039  91.8768439  37.7912591  21.0929563  84.2508411  50.9997437
  21.0605883  83.3124411  51.1857121  21.7030187  84.3292447  50.2663262
  12.9312894  83.1204464  37.0424641  13.8771999  82.9910672  37.1113059
  12.5527139  82.3819126  37.5194069  21.2424051  81.0419454  51.0455720
  20.7263100  80.2577911  50.8585649  22.1264000  80.7138171  51.2102240
  18.9034778  74.7860470  47.0051533  18.7059600  74.4775558  47.8894865
  19.5134484  75.5122109  47.1349463  26.9106113  85.3124418  50.1403474
  27.6409501  85.0509706  50.7011177  26.3013058  84.5753140  50.1805542
  24.9921410  83.4532280  50.7377925  24.2654574  83.3188245  50.1294417
  24.5768697  83.7609109  51.5434643  12.8151586  87.1722210  58.5025298
  13.7354596  87.3500809  58.6965344  12.7801169  86.2278255  58.3504997
  11.1155811  81.0454440  36.9779526  10.2087266  80.7487553  37.0542240
  11.3931792  80.7484258  36.1113812   2.0333751  82.3660804  47.4278573
   1.7136536  81.5126112  47.1352947   1.4867180  82.5809382  48.1836540
   5.8113659  85.0823245  51.1448079   6.0299669  86.0140352  51.1636113
   6.2239433  84.7231219  51.9302883  12.7317877  75.5891330  43.1323768
  11.9218605  75.2438415  43.5079014  13.4202294  75.2798874  43.7211379
  14.6608425  74.6669377  44.7548064  15.2139464  75.0864830  45.4138087
  14.8978511  73.7405125  44.7971020  10.6841524  80.6556450  60.5350828
  10.5838251  81.6050807  60.4662919  10.4663066  80.3274689  59.6626898
   9.8854596  77.9041375  37.1191505  10.7473760  78.2296274  37.3787323
  10.0704940  77.1172871  36.6064571   1.9022011  85.9863715  49.3971694
   1.2085483  85.5717668  48.8841649   2.6495002  86.0284252  48.8005113
  18.0387232  76.7769902  44.2626728  17.4585901  77.4354706  43.8804781
  17.7723165  75.9547246  43.8514146  16.4890798  76.1774960  46.4648049
  16.9890577  76.2891494  45.6562368  17.1326406  75.8736012  47.1048857
  10.5472794  84.0853589  59.3515890  10.0639876  84.8853949  59.5579779
  10.6333733  84.0961534  58.3983334   3.8158754  85.9181969  47.2737709
   3.7929442  86.0169656  46.3219592   4.1259390  86.7647120  47.5954875
   6.4746132  87.9758124  51.3884323   7.4289385  87.9442066  51.3214255
   6.2758655  87.5148748  52.2034549   7.0645514  86.5459240  53.9555121
   7.8838403  87.0403319  53.9789958   7.3382322  85.6291208  53.9272689
  16.8212110  78.9369992  43.3183077  15.9337965  79.2219643  43.1003271
  17.2366099  78.7763756  42.4710354  20.1726646  78.9616513  47.0337416
  20.9487036  79.4512966  47.3062033  19.4474780  79.3874567  47.4909285
  22.6099205  79.6744132  48.0911357  23.2043696  79.4339868  47.3804665
  22.6825789  78.9551263  48.7184893   4.8296361  93.5177743  48.4054521
   4.6950829  92.7578144  47.8392519   4.4128423  94.2418643  47.9383310
  15.9655324  88.7014667  37.4131097  16.6691174  88.9064669  38.0288752
  15.2417972  89.2691429  37.6780180  16.7953134  84.4524528  43.5333367
  16.7388335  84.9093080  42.6940999  17.3481476  83.6915213  43.3556210
  20.6057940  80.2414260  44.3583486  20.3494874  79.8410896  45.1891694
  19.9810808  80.9558054  44.2333625  24.9170278  82.9810333  46.8654778
  24.3569836  83.0503523  47.6386340  24.3113781  82.8051318  46.1454274
   7.9865486  94.4147060  48.6172964   7.8697871  95.3592493  48.5151654
   7.1657933  94.1120622  49.0058763  17.8742021  89.1397196  39.4629557
  18.7087625  88.7078395  39.2807032  17.7126364  88.9679210  40.3906451
  17.5287913  85.6429309  40.8285896  17.4736717  85.4773581  39.8874340
  16.9033968  86.3505342  40.9848086   2.3180428  80.8797374  54.6547318
   2.9639292  80.3696328  55.1434543   2.1097579  81.6166055  55.2290743
  14.8433820  87.9478221  60.1539459  15.7124980  88.1218874  59.7926094
  14.3640572  88.7672638  60.0315188  10.8384039  75.1437418  40.4071214
  10.8262708  76.0879258  40.5639485  11.7307461  74.9607564  40.1130676
   9.0120001  95.0675322  51.8328892   9.9147247  95.0998933  52.1495387
   8.7857371  94.1375773  51.8475228  10.7673603  93.8206309  48.4938971
   9.8169234  93.8208170  48.3803343  11.0706089  93.0739043  47.9775006
  14.6536158  71.7380195  44.6617151  13.8868554  71.1838682  44.8073834
  15.0646863  71.8102064  45.5231303   6.6577919  78.0264991  58.7522332
   7.5209381  77.6701796  58.9625657   6.0843330  77.6878886  59.4397737
  26.5026296  99.6566847  49.5584733  27.1404706  99.5373595  48.8548074
  26.3847139 100.6047691  49.6172686  23.3116002  99.6094275  49.4946258
  22.9734514  99.4935340  48.6066793  24.1805771  99.2085440  49.4747264
  19.1702818 101.4629752  45.4843149  18.6067683 101.3719689  44.7159437
  19.0555213 100.6429656  45.9645642  23.7935785 100.7629127  55.4532464
  23.7824426 100.3681925  54.5812967  23.9556425 100.0295200  56.0466235
  16.7167250 102.9580943  48.3227370  17.5088542 102.6171768  47.9073669
  16.9563900 103.0675918  49.2429523  24.7502377 105.1300719  40.7957614
  24.0990357 105.7154800  40.4091628  25.5446740 105.6606914  40.8552651
  18.6758004 102.2189857  41.1944748  19.4488880 101.6718844  41.0557624
  19.0283403 103.0834106  41.4059210  20.5143047 103.5466239  54.4011648
  20.2232913 104.4511870  54.2858314  21.1500031 103.5882766  55.1155717
  21.4399253 100.9243087  50.9913007  22.0362826 100.6999110  50.2769970
  21.4974225 100.1827833  51.5938455  21.0124282  98.3782523  38.8263198
  21.2649802  97.8564044  38.0646661  20.0748841  98.2148668  38.9289882
  26.0567565  97.3818301  46.6337941  26.8430654  96.9637724  46.2828359
  26.3206269  98.2864393  46.8019590  26.2277642 102.8191151  41.3326598
  25.5923475 102.8925778  42.0447503  25.8975048 103.4084750  40.6545678
  31.4575992  97.3193534  47.5370920  32.1901164  96.7492751  47.7708749
  30.7015347  96.9315135  47.9777426  20.7320571 100.2810629  41.0287573
  20.6156829  99.6055532  41.6968658  20.8422830  99.7943003  40.2119726
  23.0752111  99.7420776  44.7334262  22.7110319  99.2151397  45.4447184
  23.9319227  99.3519245  44.5600748  28.9801412  91.0315108  51.9965529
  28.6484737  91.9010519  51.7726744  28.3847025  90.7151392  52.6759559
  22.7157598  94.7710675  39.7295611  22.8832001  95.6390912  40.0966082
  22.5254767  94.9337957  38.8056900  25.4732932 103.2327654  51.3961441
  25.1733655 104.1352693  51.2877249  25.1283991 102.9659838  52.2482594
  18.9245413  99.6841451  47.4298146  17.9995910  99.5517665  47.6375838
  19.1729826 100.4635670  47.9268088  28.8730075  95.7510195  49.0758879
  27.9646953  95.6825603  48.7817640  28.8217671  96.2282139  49.9040704
  22.6946819  97.2268333  40.7142278  22.5746445  97.6725384  41.5527758
  21.9999408  97.5753651  40.1555816  16.2854224  99.3274725  48.2641935
  16.4146605  99.5809204  49.1781347  15.6051675  99.9202433  47.9446590
  20.4553711 109.9971975  44.3632409  20.3777741 110.9479800  44.4420890
  19.8515355 109.6517847  45.0207335  22.9470941  97.1699840  57.0193776
  22.1704275  97.7293760  57.0096641  23.5861504  97.6556623  57.5408646
  30.7391722  93.9526633  50.8536753  30.0966102  94.2459166  50.2076547
  30.2346650  93.8379553  51.6589949  28.3931885  97.6989806  41.5422612
  29.3049742  97.9317193  41.3670309  27.8841533  98.2826850  40.9797690
  21.2017313  99.9785293  56.5811743  21.9431998 100.5170337  56.3046567
  20.4954299 100.6051582  56.7383295  26.6772653 102.1214434  55.1783904
  27.0856009 101.6796844  54.4338537  25.9549915 101.5467061  55.4318097
  23.0303723  97.0587041  52.5517461  23.8764918  97.4826454  52.6952110
  22.9702361  96.4020665  53.2456024  27.0001468 102.6815625  48.9336193
  26.3710330 102.8461339  48.2312261  26.6127130 103.0957234  49.7047157
  30.8790700 103.6170062  46.2880557  30.1941738 103.9968964  45.7377590
  30.9634549 104.2265389  47.0212505  26.1803169  94.7191409  54.2098635
  25.9364100  95.4733470  53.6732911  26.4563099  95.0976757  55.0445882
  28.1341631 101.2630021  52.8875901  28.3458527 101.9061781  52.2110282
  28.0871380 100.4292338  52.4197831  25.7367860  93.8747842  49.7912473
  24.8752339  94.1729096  50.0829210  25.7630295  94.0918241  48.8593505
  22.5529430 102.4190033  46.1986278  23.0167775 102.6977736  45.4090901
  22.2886228 101.5173477  46.0159369  19.4453511 101.9661514  49.1366042
  20.0154868 102.3948783  48.4983526  20.0361623 101.6844099  49.8350227
  21.4898316  98.5413185  43.0075844  22.1922359  98.9934229  43.4749770
  21.1578944  97.8997004  43.6355737  19.9378677  97.1324942  57.3827053
  19.3077338  97.8141222  57.6162450  19.8314765  97.0208023  56.4380191
  15.2323650  96.7996738  48.3092977  14.4422704  97.0554266  47.8333088
  15.7234897  97.6145076  48.4145018  29.2487459 104.1401977  51.0598258
  30.0704903 103.7382164  50.7780940  29.2449862 104.0370211  52.0114374
  17.1838395  97.1641317  45.2676454  16.3869558  97.2760011  45.7859949
  16.9563987  97.5027969  44.4017344  23.0144063 103.6886020  53.2158968
  23.0788495 104.1506427  54.0517140  22.3054987 103.0583385  53.3441278
  13.5161353  97.0527228  50.7407968  13.7669391  97.9374238  51.0065544
  14.0520901  96.8731830  49.9683060  37.3393452 100.4840725  47.4083229
  36.5857161  99.9148123  47.2527234  37.4740993 100.4503390  48.3553864
  22.7292080 105.3554128  43.0837949  22.5937755 106.2005663  43.5122797
  23.2701893 105.5573405  42.3203883  19.2159420  91.4345707  59.7452304
  18.8226366  90.8811906  60.4199948  20.0325560  91.7456286  60.1358822
  16.1821478 102.8729566  43.6565874  16.6945998 103.6672816  43.8071439
  16.8344191 102.1755856  43.5899475  17.9916362 105.9895322  45.7388627
  18.1682991 106.9113287  45.5509611  18.7873196 105.6753741  46.1683007
  22.1327381  92.8503587  57.3372561  22.8737094  93.4510740  57.2577023
  22.3645304  92.1081224  56.7790603  17.2768719  98.0359954  55.6150790
  17.1622234  97.1345211  55.9157889  16.4213237  98.2823651  55.2635607
  24.3560557 105.9777694  57.2138291  23.9124411 105.1914073  56.8959195
  25.0177770 106.1656845  56.5482182  19.1147678 107.5073496  51.7398969
  19.6655103 107.3790559  50.9675963  18.2759154 107.8068385  51.3893862
  26.4541795 106.2580494  55.2419692  26.4360270 107.0789375  54.7499961
  27.3761715 106.1334569  55.4669833  22.9114849 103.7724624  56.0843200
  23.4443186 103.0112912  55.8542508  22.3828930 103.4798275  56.8267355
  26.0784544  88.8784690  51.6136842  25.7348813  89.7686331  51.5375953
  26.4463506  88.6886347  50.7506427  14.1470394 101.2018220  44.4325444
  14.9845616 101.6115228  44.2159152  14.3248662 100.2617662  44.4025638
  26.0434827  98.8693301  40.1209277  25.5281450  99.6397905  40.3597665
  25.7712135  98.1958437  40.7442339  23.6281938  93.7143001  45.1794516
  22.7723534  93.3249852  45.0000154  24.0408889  93.7934962  44.3194301
  25.1581084  91.2489345  49.5786075  24.6545880  91.2119480  48.7653881
  25.4511691  92.1582087  49.6382732  21.4023970  91.3328074  48.5852257
  22.2676967  91.1370883  48.2258147  21.4701479  91.1038426  49.5121614
  31.0169101 101.6225655  42.0562451  30.2398544 101.2836815  41.6117613
  31.6960582 101.6278278  41.3817416  25.8321130  96.7420393  41.9469059
  25.5271265  97.0566542  42.7979202  26.7851572  96.8201813  41.9896392
  24.2767562 102.9010616  43.5962012  23.7488923 102.1663376  43.2835250
  23.7755064 103.6785292  43.3501981  29.2560408 101.0959637  48.7129059
  28.5984082 101.7858898  48.8009187  30.0600807 101.4856068  49.0563045
  19.0086289  93.5630282  45.9568624  19.5830041  93.3405464  45.2241817
  19.5957272  93.6318977  46.7097225  28.0665866  99.4504009  46.7633001
  28.5797748 100.0834001  47.2654710  28.7167090  98.8505205  46.3976361
  19.3355876  95.5934743  39.9764509  18.4993189  95.9309430  40.2973784
  19.1960646  95.4583723  39.0391646  21.3108957  90.4371531  44.6843693
  20.6573369  90.1220548  44.0600308  21.2689431  89.8147272  45.4103516
  22.4220162 100.7190826  36.5996986  21.5147224 100.4880080  36.7988135
  22.9191194  99.9228446  36.7870967  25.3288241 109.4288333  39.5193672
  24.6549939 109.7320030  40.1278630  25.7154063 110.2317414  39.1699129
  24.5446697  96.9253465  49.0091341  23.6269259  97.1468412  48.8513029
  24.9606841  96.9999775  48.1503048  25.3281745  98.3244880  44.1394021
  26.0753564  98.8366278  43.8301143  25.5973335  98.0028933  44.9998415
  23.6008395 100.8203421  41.1220976  22.6919615 100.5362454  41.2193445
  23.6303479 101.2402500  40.2624282  28.8327663 104.4310011  44.8912143
  28.3789990 103.5900921  44.9477334  28.2021629 105.0671409  45.2286923
  27.7760582  95.3601997  46.1212811  27.0383339  94.8479383  46.4523053
  28.0287356  94.9202378  45.3096088  27.2760602 106.2686507  45.8261961
  27.5683576 106.8291564  45.1074327  27.7859222 106.5615068  46.5815120
  27.8772210  88.1378249  46.7154580  28.1831086  87.2775612  46.4280495
  28.6024814  88.7295869  46.5153574  14.1696566  98.5408935  45.1036178
  13.9720965  97.9478296  44.3787244  13.6143230  98.2361145  45.8212117
  22.1493289  98.4332042  47.2230771  22.2041899  97.4805878  47.1473248
  21.3384491  98.5891481  47.7072069  23.2984483 102.3612165  38.4609054
  22.8603913 101.6448024  38.0014692  24.0394924 102.5888280  37.8994146
  20.0885649  97.0509101  44.9821150  19.2753515  97.3503272  45.3886342
  20.5844643  96.6564790  45.6995632  22.2394227 107.0466858  46.9155415
  22.1970406 107.2727705  45.9863947  23.1556926 106.8130233  47.0641216
  25.6859861  97.5150926  53.8136044  26.0409249  97.7422399  54.6730509
  26.3331992  97.8469303  53.1913299  31.4157598 100.6369362  44.5185373
  31.2775496 100.8270958  43.5906562  31.0593817 101.3988745  44.9753424
  19.5799724  94.6227457  50.5982385  20.2199103  94.4816216  49.9005348
  18.7477255  94.3361970  50.2220987  31.4426977 102.7045889  49.5296644
  31.8763484 102.6121178  50.3779698  32.1558558 102.6803389  48.8916660
  20.3560028 103.9229887  46.7117377  21.1500626 103.4280208  46.5099952
  19.6451720 103.3947751  46.3485083  25.1754872 106.3047983  51.0629745
  25.2291895 106.8738919  51.8307461  24.3069654 106.4749868  50.6983782
  16.6642791  98.0672969  42.7877130  15.7340379  98.0057425  43.0047092
  16.7600263  97.5448922  41.9913771  16.5828340  94.5927782  45.3755372
  16.8435158  95.5073115  45.2664532  17.4045513  94.1252225  45.5251984
  18.0553266  96.0065539  52.5454196  18.7276319  95.7982901  51.8966845
  17.2283052  95.8087625  52.1059428  32.3042527 102.7469590  52.0629530
  32.4978417 103.6515400  52.3088805  32.2043145 102.2877009  52.8968115
  23.9578838  92.6327480  54.5619857  23.3106753  93.3317430  54.4684333
  24.7279853  93.0663624  54.9296105  27.3657636 102.8976332  57.6370410
  27.2143142 102.6686884  56.7200494  27.3562315 103.8546934  57.6501755
  24.1342972 100.4708245  52.6216677  25.0635032 100.6219405  52.4485644
  23.7134002 100.5592266  51.7665323  22.9331304 104.4958909  50.3915214
  22.7942390 104.1277694  51.2641152  22.1445900 105.0106549  50.2199172
  23.5279456 109.5968006  41.7340751  23.7031212 109.1256049  42.5486374
  22.8412244 110.2233772  41.9622012  24.4836519 103.8740512  47.7804052
  24.1486352 103.8341282  48.6761702  23.9840465 103.2085228  47.3074462
  18.4580763  99.2808142  53.3056633  18.3200561  98.5488381  53.9068172
  19.3685686  99.1917042  53.0240821  27.4195711 101.2196546  38.0541112
  26.8024881 100.4943375  37.9574164  26.9512199 101.9805907  37.7108186
  21.0863064  98.9928101  52.7940313  21.7962682  98.3521294  52.7526931
  21.0432372  99.2440996  53.7166494  29.0749842 105.9295455  55.7146892
  29.0162388 105.2454675  55.0477475  29.4769361 106.6714445  55.2627518
  19.7991998  95.9793319  54.6135952  19.2629355  95.5284058  55.2657549
  19.2108706  96.1139228  53.8706417  19.2094257  95.4381971  37.1762416
  18.3323723  95.3170772  36.8124663  19.6852010  94.6468049  36.9241305
  29.0767250 103.8935039  53.9460872  28.1894028 103.5560961  54.0687271
  29.6465801 103.1618070  54.1829637  10.7296397 100.2259131  47.2703923
  11.4167437  99.9120861  46.6824939  10.5744525 101.1300495  46.9971175
  15.5331119  95.1149327  51.6988947  15.4489308  94.5074997  50.9639357
  14.7113825  95.6058345  51.6998443  22.6068403 108.5536491  50.9122115
  22.5338574 109.3591463  51.4241420  22.1645796 108.7528457  50.0870136
  22.3958183 107.7908261  44.4224937  21.6125705 108.3329941  44.5163161
  23.0950928 108.3082241  44.8219178  25.7054833  93.6002891  47.0659142
  26.2023532  92.8472853  46.7460212  24.9341814  93.6367207  46.5002351
  33.5584590  99.3043256  48.7077433  33.5474466 100.1867972  48.3371367
  32.6901970  98.9514807  48.5131971  25.0667087 108.4523325  53.0680274
  25.7795059 109.0870790  52.9956175  24.5757115 108.5487191  52.2520276
  26.7884613 102.3574578  44.6397565  25.8540892 102.4776040  44.4702270
  26.9661282 101.4547045  44.3757575  22.2889801  95.7420274  46.7930827
  21.9187589  95.1891314  47.4811732  22.7848894  95.1378407  46.2405827
  30.1757165  98.1991897  45.1747600  30.6417617  99.0319889  45.1007902
  30.6264665  97.7336879  45.8792858  20.1179000 106.2017769  53.8885845
  20.8188460 106.8354252  54.0415239  19.6474115 106.5432500  53.1281484
  28.2433396 104.5435718  42.1733752  28.5193240 104.4292313  43.0827626
  27.3737895 104.1453203  42.1345925  28.1473828  90.5672484  49.2138501
  27.2336907  90.7976711  49.3820708  28.5766929  90.6510928  50.0652533
  27.9180286  98.7562376  51.7138395  27.2651736  99.0038283  51.0590848
  28.2960666  97.9426514  51.3800872  24.8787460 108.7922069  45.8166565
  25.0609854 107.9743725  46.2794317  25.7020446 109.0089761  45.3791455
  25.2129625 107.7190254  43.0781614  25.7417392 107.2082709  42.4651776
  25.4757845 107.4032785  43.9427147  23.9667859  99.4982187  58.2004432
  23.2908496  99.3976316  58.8706807  24.7895493  99.3421401  58.6640429
  15.7146718 105.7354124  50.8216947  16.3000155 104.9897812  50.9544851
  15.5171557 106.0458080  51.7053611  18.5685373 108.7705371  45.8379390
  17.8995749 109.2551499  45.3543430  18.4298243 109.0174591  46.7522768
  10.3064373  98.3059724  49.5421390  10.3448472  97.7723315  50.3358508
   9.8004666  97.7794929  48.9232368  22.7090642 110.8049115  52.4362048
  23.2608950 110.9680736  53.2011133  23.0496835 111.3953552  51.7642073
  17.6855135  93.1524264  53.0383933  17.7496462  94.0139095  52.6261330
  17.6222255  92.5398266  52.3056291  17.1607408  95.2247397  56.6856967
  17.7879446  94.8424474  57.2994491  16.3035327  95.0061599  57.0512659
  27.5601516 105.6310372  58.2910702  28.1041420 106.2440330  57.7965657
  26.9788361 106.1889950  58.8077715  13.9372950  97.0323826  42.6175322
  14.2326392  96.1234504  42.5642375  13.0360986  97.0111565  42.2956324
  25.8459029 108.7531090  49.4225730  25.7210169 107.9520830  48.9136676
  26.5038120 109.2477283  48.9339700  17.4667197  95.1079823  48.6002870
  16.7453783  95.7215790  48.4610344  18.2560453  95.6437587  48.5219516
  27.9093938 106.5540110  51.0505280  26.9624273 106.4345461  50.9783607
  28.2576711 105.6662608  51.1331542  20.2693511  92.4434249  54.8743522
  20.7927913  92.6896546  55.6369831  20.0505844  93.2754284  54.4546659
  15.6660792  94.7137924  42.7414647  15.3373498  93.8335303  42.5589753
  16.0200163  94.6585592  43.6291036  24.9140371 106.3492826  47.2509632
  24.7665333 105.4209534  47.4317202  25.7393864 106.3712917  46.7666708
  18.7802615  95.0010893  43.1090125  19.1198688  95.5296815  42.3868733
  19.2274736  95.3391300  43.8848691  28.5174493 107.1721385  48.3374505
  29.4421040 106.9664246  48.1998956  28.3489796 106.9237786  49.2463847
  21.4746056  93.3847944  52.5593193  21.1342876  92.5855757  52.9613872
  20.7685062  93.6849655  51.9870026  22.1262528  90.4697257  51.0120516
  22.9488597  89.9957735  50.8899406  22.3700591  91.2487740  51.5119202
  20.7670762  93.4985515  41.3083417  21.4879125  93.8766768  40.8047134
  20.1436066  94.2174392  41.4118395  24.9101885  94.2030664  42.2441750
  25.1265500  95.0855302  41.9430578  24.4295952  93.8116877  41.5147392
  19.6501107  97.1616377  48.8212494  19.5045687  97.4756680  49.7136776
  19.1726310  97.7801278  48.2683393  21.5097489  94.1518925  48.8693384
  21.4959058  93.2560019  48.5325682  22.2269918  94.1589589  49.5031670
  23.3623620  94.5856265  50.9146511  23.1041398  95.5073336  50.9130842
  22.8308661  94.1886700  51.6046975  28.3069809 107.6907053  43.6936597
  28.4806686 107.1253475  42.9410449  28.7998700 108.4907947  43.5116087
  14.1246769  99.7021722  51.7600155  13.5800237 100.4781530  51.8920430
  15.0026119 100.0492526  51.6019277  20.9134385  93.0333306  44.1380954
  21.0350297  92.1049952  44.3371841  20.6236428  93.0471991  43.2259269
  23.7825576  90.7188216  47.2747674  23.8047273  90.7827549  46.3199653
  24.1993635  89.8792725  47.4688180  34.1609200 100.4543476  45.3126896
  34.6040346  99.7050801  44.9146020  33.2835710 100.4453612  44.9300628
  29.2944981 107.0073817  40.7933495  29.9895886 107.6280510  41.0120810
  29.6368132 106.1569168  41.0685873  14.9112791  98.8291618  54.6530312
  14.1694527  98.9774253  55.2394943  14.5905535  99.0899884  53.7897062
  31.1936405 104.4573523  42.3220826  31.7187729 104.7960795  41.5970146
  31.1058757 103.5220538  42.1383960  22.8556453 108.3707596  54.4510702
  23.1643580 108.1256743  55.3233402  23.6531935 108.5754235  53.9629573
  22.8777065 110.5245506  46.6816079  22.4382056 110.0321884  47.3748936
  23.6285182 109.9818473  46.4408154  15.3569404 106.7157047  46.6840707
  16.1827424 106.4160819  46.3039350  15.0063456 105.9464669  47.1330496
  20.3250937 106.0683515  48.7538381  19.7030947 105.4054220  48.4540608
  20.9955804 106.0944647  48.0712028  13.5578009 104.6343373  47.6429641
  12.7209918 104.2065547  47.4613642  13.5301655 104.8275816  48.5800432
  20.3975465  94.5465303  58.3470887  20.4463620  95.4227426  57.9648656
  20.9397979  94.0042696  57.7742530  30.8830311 105.0906426  57.6272024
  30.0925854 105.0730565  57.0876523  30.6463665 105.6294720  58.3821060
  31.0028186 101.9398893  54.9404752  31.0526191 101.7748900  55.8820275
  30.8942109 101.0726152  54.5502633  19.8864444 104.6187438  42.2296841
  20.0352565 105.3022903  41.5763514  20.6930888 104.5992528  42.7446297
  28.2931948  97.9229821  56.2564059  29.1941811  97.7836285  55.9648057
  28.3679923  98.0884275  57.1962236  22.6274753  95.2996675  55.1017245
  21.7578063  95.5930241  54.8299834  22.8634234  95.8837120  55.8224509
  32.5046382 104.3595834  55.1846774  32.2131191 104.7225815  56.0210235
  31.8918514 103.6462842  55.0060106  33.7042065 101.9248714  47.7049344
  34.5388956 102.3638518  47.8686904  33.8401194 101.4487367  46.8857590
  30.7533571  99.4828449  53.6526832  31.2287692  99.6756095  52.8445683
  29.8299136  99.5387634  53.4070215  17.6417077 100.6452616  43.2357910
  17.3963119  99.7414946  43.4338120  17.8112992 100.6469766  42.2937388
  25.3313787  91.5176292  52.6182666  25.8495731  92.2537319  52.2929154
  24.9768920  91.8240286  53.4529425  16.9112725  96.3780973  40.7344071
  16.2181970  96.4525328  40.0784107  16.6664477  95.6141317  41.2565588
  25.5826381  87.9376575  48.1383562  25.8628135  87.2699764  48.7643989
  26.3676988  88.1305670  47.6258226  23.3859850 107.1135569  39.7008589
  22.8133817 107.7325756  39.2479060  23.9592644 107.6634930  40.2348510
  29.4535240  96.3594209  51.8855137  30.4052663  96.4592306  51.9067361
  29.2838690  95.5672477  52.3953222  27.4749619  93.4449792  52.0714538
  26.8799551  93.7254805  51.3761027  27.1899316  93.9343693  52.8431279
  26.6057110 107.3972719  40.8317171  27.5387783 107.3318280  41.0350046
  26.5180322 108.2328986  40.3731703  29.2345126 106.7138589  37.7921118
  29.1558758 106.3798453  38.6856876  30.0554793 107.2060357  37.7912591
  31.9323318  99.5800328  50.9997437  31.8999638  98.6416329  51.1857121
  32.5423941  99.6584365  50.2663262  23.7706648  98.4496381  37.0424641
  24.7165753  98.3202590  37.1113059  23.3920893  97.7111043  37.5194069
  32.0817806  96.3711372  51.0455720  31.5656855  95.5869829  50.8585649
  32.9657755  96.0430088  51.2102240  29.7428533  90.1152387  47.0051533
  29.5453354  89.8067476  47.8894865  30.3528238  90.8414026  47.1349463
  37.7499867 100.6416335  50.1403474  38.4803256 100.3801623  50.7011177
  37.1406813  99.9045057  50.1805542  35.8315164  98.7824198  50.7377925
  35.1048328  98.6480163  50.1294417  35.4162451  99.0901026  51.5434643
  23.6545341 102.5014128  58.5025298  24.5748350 102.6792727  58.6965344
  23.6194924 101.5570173  58.3504997  21.9549566  96.3746358  36.9779526
  21.0481021  96.0779471  37.0542240  22.2325547  96.0776176  36.1113812
  12.8727506  97.6952721  47.4278573  12.5530290  96.8418029  47.1352947
  12.3260934  97.9101299  48.1836540  16.6507413 100.4115162  51.1448079
  16.8693423 101.3432270  51.1636113  17.0633187 100.0523137  51.9302883
  23.5711631  90.9183248  43.1323768  22.7612360  90.5730332  43.5079014
  24.2596048  90.6090791  43.7211379  25.5002180  89.9961294  44.7548064
  26.0533218  90.4156748  45.4138087  25.7372266  89.0697042  44.7971020
  21.5235279  95.9848368  60.5350828  21.4232006  96.9342725  60.4662919
  21.3056821  95.6566607  59.6626898  20.7248350  93.2333293  37.1191505
  21.5867514  93.5588191  37.3787323  20.9098694  92.4464789  36.6064571
  12.7415766 101.3155633  49.3971694  12.0479237 100.9009585  48.8841649
  13.4888757 101.3576169  48.8005113  28.8780987  92.1061819  44.2626728
  28.2979656  92.7646624  43.8804781  28.6116919  91.2839164  43.8514146
  27.3284553  91.5066877  46.4648049  27.8284331  91.6183412  45.6562368
  27.9720161  91.2027930  47.1048857  21.3866549  99.4145507  59.3515890
  20.9033631 100.2145867  59.5579779  21.4727488  99.4253452  58.3983334
  14.6552508 101.2473886  47.2737709  14.6323197 101.3461574  46.3219592
  14.9653145 102.0939037  47.5954875  17.3139886 103.3050042  51.3884323
  18.2683140 103.2733984  51.3214255  17.1152410 102.8440665  52.2034549
  17.9039268 101.8751158  53.9555121  18.7232157 102.3695236  53.9789958
  18.1776076 100.9583126  53.9272689  27.6605865  94.2661910  43.3183077
  26.7731720  94.5511560  43.1003271  28.0759854  94.1055673  42.4710354
  31.0120401  94.2908431  47.0337416  31.7880791  94.7804883  47.3062033
  30.2868535  94.7166485  47.4909285  33.4492959  95.0036050  48.0911357
  34.0437450  94.7631786  47.3804665  33.5219543  94.2843181  48.7184893
  15.6690115 108.8469661  48.4054521  15.5344583 108.0870062  47.8392519
  15.2522177 109.5710561  47.9383310  26.8049078 104.0306585  37.4131097
  27.5084928 104.2356587  38.0288752  26.0811727 104.5983346  37.6780180
  27.6346888  99.7816446  43.5333367  27.5782090 100.2384997  42.6940999
  28.1875231  99.0207130  43.3556210  31.4451694  95.5706178  44.3583486
  31.1888629  95.1702813  45.1891694  30.8204562  96.2849972  44.2333625
  35.7564032  98.3102251  46.8654778  35.1963590  98.3795440  47.6386340
  35.1507536  98.1343236  46.1454274  18.8259241 109.7438978  48.6172964
  18.7091625 110.6884411  48.5151654  18.0051687 109.4412540  49.0058763
  28.7135776 104.4689114  39.4629557  29.5481379 104.0370312  39.2807032
  28.5520118 104.2971127  40.3906451  28.3681668 100.9721227  40.8285896
  28.3130471 100.8065498  39.8874340  27.7427723 101.6797260  40.9848086
  13.1574183  96.2089291  54.6547318  13.8033046  95.6988245  55.1434543
  12.9491334  96.9457973  55.2290743  25.6827575 103.2770139  60.1539459
  26.5518734 103.4510791  59.7926094  25.2034326 104.0964556  60.0315188
  21.6777793  90.4729336  40.4071214  21.6656463  91.4171176  40.5639485
  22.5701215  90.2899481  40.1130676  19.8513755 110.3967240  51.8328892
  20.7541002 110.4290850  52.1495387  19.6251125 109.4667691  51.8475228
  21.6067357 109.1498226  48.4938971  20.6562988 109.1500088  48.3803343
  21.9099843 108.4030961  47.9775006  25.4929913  87.0672113  44.6617151
  24.7262308  86.5130599  44.8073834  25.9040618  87.1393981  45.5231303
  17.4971674  93.3556908  58.7522332  18.3603135  92.9993713  58.9625657
  16.9237084  93.0170803  59.4397737  37.3420051 114.9858765  49.5584733
  37.9798461 114.8665512  48.8548074  37.2240893 115.9339609  49.6172686
  34.1509757 114.9386193  49.4946258  33.8128268 114.8227258  48.6066793
  35.0199525 114.5377358  49.4747264  34.6329540 116.0921045  55.4532464
  34.6218181 115.6973843  54.5812967  34.7950179 115.3587117  56.0466235
  31.8518036 113.7074440  38.8263198  32.1043557 113.1855962  38.0646661
  30.9142595 113.5440586  38.9289882  36.8961319 112.7110219  46.6337941
  37.6824408 112.2929642  46.2828359  37.1600023 113.6156311  46.8019590
  42.2969746 112.6485452  47.5370920  43.0294918 112.0784669  47.7708749
  41.5409102 112.2607052  47.9777426  33.9145866 115.0712693  44.7334262
  33.5504073 114.5443314  45.4447184  34.7712982 114.6811162  44.5600748
  39.8195167 106.3607026  51.9965529  39.4878491 107.2302437  51.7726744
  39.2240780 106.0443310  52.6759559  33.5551353 110.1002593  39.7295611
  33.7225755 110.9682829  40.0966082  33.3648522 110.2629875  38.8056900
  39.7123830 111.0802112  49.0758879  38.8040707 111.0117521  48.7817640
  39.6611426 111.5574057  49.9040704  33.5340574 112.5560251  40.7142278
  33.4140199 113.0017301  41.5527758  32.8393162 112.9045568  40.1555816
  33.7864696 112.4991758  57.0193776  33.0098030 113.0585678  57.0096641
  34.4255259 112.9848541  57.5408646  41.5785476 109.2818551  50.8536753
  40.9359857 109.5751084  50.2076547  41.0740405 109.1671471  51.6589949
  39.2325640 113.0281724  41.5422612  40.1443496 113.2609111  41.3670309
  38.7235287 113.6118768  40.9797690  37.5166408 117.4506352  55.1783904
  37.9249764 117.0088762  54.4338537  36.7943669 116.8758979  55.4318097
  33.8697478 112.3878958  52.5517461  34.7158673 112.8118372  52.6952110
  33.8096115 111.7312583  53.2456024  37.0196923 110.0483327  54.2098635
  36.7757855 110.8025387  53.6732911  37.2956853 110.4268674  55.0445882
  38.9735386 116.5921939  52.8875901  39.1852281 117.2353699  52.2110282
  38.9265134 115.7584256  52.4197831  36.5761615 109.2039760  49.7912473
  35.7146094 109.5021013  50.0829210  36.6024049 109.4210159  48.8593505
  32.3292070 113.8705103  43.0075844  33.0316114 114.3226146  43.4749770
  31.9972699 113.2288922  43.6355737  30.7772432 112.4616859  57.3827053
  30.1471092 113.1433140  57.6162450  30.6708520 112.3499941  56.4380191
  26.0717404 112.1288655  48.3092977  25.2816458 112.3846184  47.8333088
  26.5628652 112.9436993  48.4145018  28.0232150 112.4933235  45.2676454
  27.2263313 112.6051929  45.7859949  27.7957742 112.8319887  44.4017344
  48.1787207 115.8132643  47.4083229  47.4250915 115.2440041  47.2527234
  48.3134748 115.7795307  48.3553864  30.0553174 106.7637625  59.7452304
  29.6620120 106.2103824  60.4199948  30.8719315 107.0748204  60.1358822
  32.9721135 108.1795504  57.3372561  33.7130849 108.7802657  57.2577023
  33.2039058 107.4373142  56.7790603  28.1162473 113.3651872  55.6150790
  28.0015989 112.4637129  55.9157889  27.2606991 113.6115568  55.2635607
  36.9178298 104.2076607  51.6136842  36.5742568 105.0978249  51.5375953
  37.2857261 104.0178265  50.7506427  36.8828581 114.1985218  40.1209277
  36.3675205 114.9689823  40.3597665  36.6105890 113.5250354  40.7442339
  34.4675692 109.0434919  45.1794516  33.6117288 108.6541769  45.0000154
  34.8802644 109.1226880  44.3194301  35.9974839 106.5781262  49.5786075
  35.4939634 106.5411397  48.7653881  36.2905446 107.4874005  49.6382732
  32.2417725 106.6619992  48.5852257  33.1070721 106.4662801  48.2258147
  32.3095234 106.4330344  49.5121614  41.8562855 116.9517573  42.0562451
  41.0792298 116.6128732  41.6117613  42.5354336 116.9570196  41.3817416
  36.6714884 112.0712310  41.9469059  36.3665020 112.3858460  42.7979202
  37.6245326 112.1493730  41.9896392  40.0954162 116.4251554  48.7129059
  39.4377837 117.1150816  48.8009187  40.8994561 116.8147986  49.0563045
  29.8480044 108.8922200  45.9568624  30.4223796 108.6697381  45.2241817
  30.4351026 108.9610894  46.7097225  38.9059621 114.7795927  46.7633001
  39.4191503 115.4125919  47.2654710  39.5560845 114.1797122  46.3976361
  30.1749631 110.9226661  39.9764509  29.3386943 111.2601348  40.2973784
  30.0354400 110.7875641  39.0391646  32.1502711 105.7663449  44.6843693
  31.4967124 105.4512466  44.0600308  32.1083186 105.1439189  45.4103516
  33.2613916 116.0482744  36.5996986  32.3540978 115.8171997  36.7988135
  33.7584948 115.2520363  36.7870967  35.3840452 112.2545382  49.0091341
  34.4663013 112.4760329  48.8513029  35.8000595 112.3291693  48.1503048
  36.1675500 113.6536798  44.1394021  36.9147319 114.1658195  43.8301143
  36.4367089 113.3320851  44.9998415  34.4402150 116.1495339  41.1220976
  33.5313369 115.8654372  41.2193445  34.4697234 116.5694417  40.2624282
  38.6154337 110.6893914  46.1212811  37.8777094 110.1771301  46.4523053
  38.8681110 110.2494296  45.3096088  38.7165964 103.4670166  46.7154580
  39.0224841 102.6067530  46.4280495  39.4418569 104.0587787  46.5153574
  32.9887044 113.7623959  47.2230771  33.0435654 112.8097796  47.1473248
  32.1778246 113.9183399  47.7072069  30.9279404 112.3801019  44.9821150
  30.1147269 112.6795190  45.3886342  31.4238398 111.9856708  45.6995632
  36.5253615 112.8442844  53.8136044  36.8803003 113.0714317  54.6730509
  37.1725747 113.1761220  53.1913299  42.2551352 115.9661280  44.5185373
  42.1169251 116.1562876  43.5906562  41.8987571 116.7280662  44.9753424
  30.4193478 109.9519375  50.5982385  31.0592858 109.8108134  49.9005348
  29.5871009 109.6653888  50.2220987  42.2820732 118.0337807  49.5296644
  42.7157239 117.9413096  50.3779698  42.9952313 118.0095307  48.8916660
  27.5036546 113.3964887  42.7877130  26.5734134 113.3349342  43.0047092
  27.5994018 112.8740840  41.9913771  27.4222095 109.9219700  45.3755372
  27.6828912 110.8365033  45.2664532  28.2439267 109.4544142  45.5251984
  28.8947020 111.3357457  52.5454196  29.5670074 111.1274819  51.8966845
  28.0676807 111.1379543  52.1059428  43.1436281 118.0761507  52.0629530
  43.3372172 118.9807318  52.3088805  43.0436900 117.6168926  52.8968115
  34.7972592 107.9619398  54.5619857  34.1500507 108.6609347  54.4684333
  35.5673608 108.3955542  54.9296105  34.9736727 115.8000163  52.6216677
  35.9028787 115.9511322  52.4485644  34.5527757 115.8884183  51.7665323
  29.2974517 114.6100060  53.3056633  29.1594315 113.8780299  53.9068172
  30.2079441 114.5208960  53.0240821  38.2589465 116.5488464  38.0541112
  37.6418636 115.8235292  37.9574164  37.7905954 117.3097824  37.7108186
  31.9256818 114.3220019  52.7940313  32.6356437 113.6813211  52.7526931
  31.8826126 114.5732914  53.7166494  30.6385752 111.3085237  54.6135952
  30.1023109 110.8575976  55.2657549  30.0502461 111.4431146  53.8706417
  30.0488011 110.7673888  37.1762416  29.1717477 110.6462689  36.8124663
  30.5245764 109.9759967  36.9241305  26.3724873 110.4441245  51.6988947
  26.2883062 109.8366914  50.9639357  25.5507580 110.9350263  51.6998443
  36.5448587 108.9294808  47.0659142  37.0417287 108.1764771  46.7460212
  35.7735569 108.9659125  46.5002351  44.3978345 114.6335174  48.7077433
  44.3868221 115.5159889  48.3371367  43.5295724 114.2806725  48.5131971
  33.1283556 111.0712191  46.7930827  32.7581343 110.5183232  47.4811732
  33.6242648 110.4670325  46.2405827  41.0150919 113.5283815  45.1747600
  41.4811371 114.3611806  45.1007902  41.4658420 113.0628796  45.8792858
  38.9867582 105.8964402  49.2138501  38.0730662 106.1268629  49.3820708
  39.4160683 105.9802846  50.0652533  38.7574040 114.0854294  51.7138395
  38.1045491 114.3330201  51.0590848  39.1354420 113.2718432  51.3800872
  34.8061614 114.8274105  58.2004432  34.1302251 114.7268234  58.8706807
  35.6289247 114.6713319  58.6640429  28.5248890 108.4816182  53.0383933
  28.5890216 109.3431013  52.6261330  28.4616010 107.8690184  52.3056291
  28.0001162 110.5539315  56.6856967  28.6273201 110.1716392  57.2994491
  27.1429081 110.3353517  57.0512659  24.7766705 112.3615744  42.6175322
  25.0720146 111.4526422  42.5642375  23.8754741 112.3403483  42.2956324
  28.3060952 110.4371740  48.6002870  27.5847538 111.0507708  48.4610344
  29.0954208 110.9729505  48.5219516  31.1087265 107.7726167  54.8743522
  31.6321667 108.0188463  55.6369831  30.8899599 108.6046202  54.4546659
  26.5054546 110.0429841  42.7414647  26.1767253 109.1627220  42.5589753
  26.8593917 109.9877510  43.6291036  29.6196370 110.3302811  43.1090125
  29.9592442 110.8588732  42.3868733  30.0668490 110.6683217  43.8848691
  32.3139810 108.7139862  52.5593193  31.9736631 107.9147675  52.9613872
  31.6078817 109.0141573  51.9870026  32.9656282 105.7989174  51.0120516
  33.7882352 105.3249652  50.8899406  33.2094346 106.5779658  51.5119202
  31.6064517 108.8277433  41.3083417  32.3272879 109.2058686  40.8047134
  30.9829821 109.5466310  41.4118395  35.7495640 109.5322582  42.2441750
  35.9659254 110.4147220  41.9430578  35.2689707 109.1408795  41.5147392
  30.4894861 112.4908295  48.8212494  30.3439442 112.8048598  49.7136776
  30.0120065 113.1093195  48.2683393  32.3491244 109.4810843  48.8693384
  32.3352813 108.5851936  48.5325682  33.0663672 109.4881507  49.5031670
  34.2017375 109.9148183  50.9146511  33.9435152 110.8365254  50.9130842
  33.6702415 109.5178618  51.6046975  31.7528140 108.3625223  44.1380954
  31.8744051 107.4341869  44.3371841  31.4630182 108.3763909  43.2259269
  34.6219330 106.0480134  47.2747674  34.6441027 106.1119467  46.3199653
  35.0387389 105.2084642  47.4688180  45.0002955 115.7835393  45.3126896
  45.4434101 115.0342718  44.9146020  44.1229465 115.7745530  44.9300628
  31.2369219 109.8757221  58.3470887  31.2857375 110.7519343  57.9648656
  31.7791734 109.3334614  57.7742530  41.8421940 117.2690810  54.9404752
  41.8919945 117.1040818  55.8820275  41.7335863 116.4018069  54.5502633
  39.1325703 113.2521738  56.2564059  40.0335565 113.1128203  55.9648057
  39.2073677 113.4176193  57.1962236  33.4668508 110.6288593  55.1017245
  32.5971817 110.9222159  54.8299834  33.7027988 111.2129038  55.8224509
  44.5435819 117.2540631  47.7049344  45.3782711 117.6930436  47.8686904
  44.6794948 116.7779285  46.8857590  41.5927325 114.8120366  53.6526832
  42.0681447 115.0048013  52.8445683  40.6692891 114.8679552  53.4070215
  36.1707542 106.8468210  52.6182666  36.6889486 107.5829237  52.2929154
  35.8162674 107.1532203  53.4529425  27.7506479 111.7072891  40.7344071
  27.0575724 111.7817246  40.0784107  27.5058231 110.9433235  41.2565588
  36.4220136 103.2668492  48.1383562  36.7021890 102.5991682  48.7643989
  37.2070743 103.4597588  47.6258226  40.2928994 111.6886126  51.8855137
  41.2446417 111.7884224  51.9067361  40.1232445 110.8964395  52.3953222
  38.3143374 108.7741710  52.0714538  37.7193306 109.0546722  51.3761027
  38.0293070 109.2635611  52.8431279  42.7717072 114.9092246  50.9997437
  42.7393392 113.9708247  51.1857121  43.3817696 114.9876283  50.2663262
  34.6100403 113.7788299  37.0424641  35.5559508 113.6494507  37.1113059
  34.2314648 113.0402961  37.5194069  42.9211560 111.7003290  51.0455720
  42.4050609 110.9161746  50.8585649  43.8051509 111.3722006  51.2102240
  40.5822287 105.4444305  47.0051533  40.3847109 105.1359393  47.8894865
  41.1921993 106.1705944  47.1349463  48.5893622 115.9708253  50.1403474
  49.3197010 115.7093541  50.7011177  47.9800567 115.2336975  50.1805542
  46.6708919 114.1116116  50.7377925  45.9442083 113.9772080  50.1294417
  46.2556206 114.4192944  51.5434643  32.7943320 111.7038275  36.9779526
  31.8874775 111.4071388  37.0542240  33.0719301 111.4068094  36.1113812
  34.4105386 106.2475165  43.1323768  33.6006114 105.9022250  43.5079014
  35.0989803 105.9382709  43.7211379  36.3395934 105.3253212  44.7548064
  36.8926973 105.7448665  45.4138087  36.5766020 104.3988960  44.7971020
  32.3629033 111.3140286  60.5350828  32.2625760 112.2634643  60.4662919
  32.1450575 110.9858525  59.6626898  31.5642105 108.5625211  37.1191505
  32.4261269 108.8880109  37.3787323  31.7492449 107.7756707  36.6064571
  39.7174741 107.4353737  44.2626728  39.1373410 108.0938541  43.8804781
  39.4510674 106.6131082  43.8514146  38.1678307 106.8358795  46.4648049
  38.6678086 106.9475329  45.6562368  38.8113915 106.5319848  47.1048857
  32.2260303 114.7437424  59.3515890  31.7427385 115.5437785  59.5579779
  32.3121242 114.7545369  58.3983334  38.4999619 109.5953828  43.3183077
  37.6125474 109.8803478  43.1003271  38.9153608 109.4347591  42.4710354
  41.8514155 109.6200349  47.0337416  42.6274545 110.1096801  47.3062033
  41.1262289 110.0458403  47.4909285  44.2886714 110.3327968  48.0911357
  44.8831205 110.0923704  47.3804665  44.3613298 109.6135098  48.7184893
  38.4740643 115.1108363  43.5333367  38.4175844 115.5676915  42.6940999
  39.0268985 114.3499048  43.3556210  42.2845449 110.8998095  44.3583486
  42.0282383 110.4994731  45.1891694  41.6598317 111.6141889  44.2333625
  46.5957787 113.6394169  46.8654778  46.0357345 113.7087358  47.6386340
  45.9901290 113.4635153  46.1454274  39.2075422 116.3013145  40.8285896
  39.1524226 116.1357416  39.8874340  38.5821477 117.0089178  40.9848086
  23.9967937 111.5381209  54.6547318  24.6426801 111.0280163  55.1434543
  23.7885088 112.2749891  55.2290743  32.5171548 105.8021254  40.4071214
  32.5050217 106.7463094  40.5639485  33.4094970 105.6191399  40.1130676
  36.3323667 102.3964030  44.6617151  35.5656063 101.8422517  44.8073834
  36.7434372 102.4685899  45.5231303  28.3365428 108.6848826  58.7522332
  29.1996890 108.3285631  58.9625657  27.7630839 108.3462721  59.4397737
  47.7572053 119.5368525  51.6136842  47.4136322 120.4270167  51.5375953
  48.1251015 119.3470182  50.7506427  49.5559719 118.7962084  46.7154580
  49.8618595 117.9359447  46.4280495  50.2812323 119.3879704  46.5153574
  49.8261336 121.2256319  49.2138501  48.9124416 121.4560546  49.3820708
  50.2554438 121.3094764  50.0652533  47.2613890 118.5960410  48.1383562
  47.5415644 117.9283599  48.7643989  48.0464497 118.7889506  47.6258226
  51.4216042 120.7736223  47.0051533  51.2240863 120.4651311  47.8894865
  52.0315747 121.4997862  47.1349463  47.1789689 120.6545130  44.7548064
  47.7320727 121.0740583  45.4138087  47.4159775 119.7280878  44.7971020
  47.1717422 117.7255948  44.6617151  46.4049817 117.1714435  44.8073834
  47.5828127 117.7977817  45.5231303   4.8212190  31.5027095  34.1328536
   4.0675898  30.9334493  33.9772540   4.9559731  31.4689759  35.0799171
   1.6427938  31.4729845  32.0372203   2.0859084  30.7237170  31.6391326
   0.7654448  31.4639981  31.6545935   1.1860803  32.9435083  34.4294651
   2.0207694  33.3824887  34.5932211   1.3219931  32.4673737  33.6102896
   5.2318605  31.6602705  36.8648780   5.9621994  31.3987993  37.4256484
   4.6225551  30.9231427  36.9050848   3.3133902  29.8010567  37.4623232
   2.5867066  29.6666532  36.8539723   2.8981189  30.1087396  38.2679950
   0.9311697  26.0222420  34.8156663   1.5256188  25.7818156  34.1049971
   1.0038281  25.3029550  35.4430199   3.2382770  29.3288620  33.5900084
   2.6782328  29.3981810  34.3631646   2.6326273  29.1529605  32.8699581
   4.8238788  46.0045134  36.2830040   5.4617198  45.8851882  35.5793380
   4.7059631  46.9525978  36.3417992   1.6328495  45.9572563  36.2191565
   1.2947006  45.8413627  35.3312100   2.5018263  45.5563728  36.1992571
   2.1148278  47.1107414  42.1777770   2.1036918  46.7160213  41.3058274
   2.2768917  46.3773487  42.7711542   3.0714869  51.4779007  27.5202921
   2.4202849  52.0633087  27.1336934   3.8659232  52.0085202  27.5797958
   4.3780057  43.7296588  33.3583248   5.1643146  43.3116011  33.0073665
   4.6418761  44.6342680  33.5264897   4.5490134  49.1669439  28.0571905
   3.9135967  49.2404065  28.7692810   4.2187541  49.7563037  27.3790984
   9.7788484  43.6671821  34.2616227  10.5113656  43.0971038  34.4954056
   9.0227840  43.2793422  34.7022732   1.3964604  46.0899063  31.4579569
   1.0322811  45.5629684  32.1692491   2.2531720  45.6997532  31.2846055
   7.3013904  37.3793396  38.7210835   6.9697229  38.2488807  38.4972050
   6.7059518  37.0629680  39.4004866   1.0370091  41.1188963  26.4540918
   1.2044493  41.9869199  26.8211389   0.8467260  41.2816244  25.5302207
   3.7945424  49.5805942  38.1206748   3.4946147  50.4830980  38.0122555
   3.4496483  49.3138125  38.9727901   7.1942568  42.0988482  35.8004185
   6.2859445  42.0303890  35.5062946   7.1430163  42.5760427  36.6286011
   1.2683433  43.5178127  43.7439083   0.4916768  44.0772047  43.7341947
   1.9073997  44.0034910  44.2653953   9.0604214  40.3004920  37.5782059
   8.4178594  40.5937453  36.9321854   8.5559143  40.1857840  38.3835256
   6.7144378  44.0468093  28.2667918   7.6262234  44.2795480  28.0915616
   6.2054025  44.6305138  27.7042997   4.9985145  48.4692721  41.9029211
   5.4068501  48.0275132  41.1583843   4.2762407  47.8945349  42.1563404
   1.3516215  43.4065328  39.2762768   2.1977411  43.8304741  39.4197417
   1.2914853  42.7498952  39.9701331   5.3213960  49.0293912  35.6581500
   4.6922822  49.1939626  34.9557568   4.9339622  49.4435521  36.4292464
   9.2003192  49.9648350  33.0125864   8.5154230  50.3447251  32.4622897
   9.2847041  50.5743676  33.7457811   4.5015661  41.0669696  40.9343942
   4.2576593  41.8211757  40.3978217   4.7775591  41.4455044  41.7691189
   6.4554124  47.6108309  39.6121207   6.6671019  48.2540069  38.9355588
   6.4083872  46.7770625  39.1443137   4.0580353  40.2226129  36.5157779
   3.1964832  40.5207383  36.8074517   4.0842787  40.4396528  35.5838812
   0.8741922  48.7668320  32.9231585   1.3380267  49.0456023  32.1336208
   0.6098720  47.8651764  32.7404676   7.5699951  50.4880264  37.7843565
   8.3917395  50.0860451  37.5026246   7.5662354  50.3848498  38.7359680
   1.3356555  50.0364307  39.9404275   1.4000987  50.4984715  40.7762447
   0.6267479  49.4061672  40.0686585  15.6605945  46.8319013  34.1328536
  14.9069653  46.2626411  33.9772540  15.7953486  46.7981677  35.0799171
   1.0504573  51.7032415  29.8083255   0.9150247  52.5483951  30.2368103
   1.5914385  51.9051693  29.0449189   2.6773049  52.3255981  43.9383597
   2.2336903  51.5392360  43.6204502   3.3390263  52.5135132  43.2727488
   4.7754287  52.6058781  41.9664999   4.7572762  53.4267662  41.4745268
   5.6974207  52.4812857  42.1915140   1.2327341  50.1202911  42.8088507
   1.7655678  49.3591199  42.5787815   0.7041422  49.8276563  43.5512662
   4.3997036  35.2262977  38.3382149   4.0561306  36.1164618  38.2621259
   4.7675999  35.0364634  37.4751734   4.3647319  45.2171588  26.8454584
   3.8493942  45.9876192  27.0842971   4.0924627  44.5436724  27.4687645
   1.9494430  40.0621289  31.9039822   1.0936026  39.6728139  31.7245461
   2.3621382  40.1413249  31.0439608   3.4793577  37.5967632  36.3031382
   2.9758372  37.5597767  35.4899187   3.7724183  38.5060375  36.3628039
   9.3381593  47.9703943  28.7807757   8.5611036  47.6315102  28.3362920
  10.0173074  47.9756566  28.1062723   4.1533622  43.0898680  28.6714365
   3.8483758  43.4044829  29.5224508   5.1064064  43.1680100  28.7141698
   2.5980054  49.2488903  30.3207319   2.0701415  48.5141663  30.0080557
   2.0967557  50.0263580  30.0747287   7.5772900  47.4437924  35.4374365
   6.9196574  48.1337185  35.5254494   8.3813299  47.8334356  35.7808352
   6.3878359  45.7982296  33.4878307   6.9010240  46.4312288  33.9900017
   7.0379583  45.1983492  33.1221667   3.6500733  55.7766621  26.2438978
   2.9762432  56.0798317  26.8523936   4.0366555  56.5795701  25.8944435
   2.8659190  43.2731752  35.7336648   1.9481751  43.4946699  35.5758336
   3.2819333  43.3478062  34.8748355   3.6494237  44.6723168  30.8639328
   4.3966056  45.1844565  30.5546450   3.9185827  44.3507220  31.7243722
   1.9220888  47.1681708  27.8466282   1.0132107  46.8840741  27.9438752
   1.9515971  47.5880787  26.9869589   7.1540155  50.7788298  31.6157450
   6.7002482  49.9379208  31.6722640   6.5234122  51.4149696  31.9532230
   6.0973075  41.7080284  32.8458117   5.3595831  41.1957670  33.1768360
   6.3499848  41.2680666  32.0341394   5.5973094  52.6164795  32.5507268
   5.8896069  53.1769852  31.8319634   6.1071715  52.9093356  33.3060427
   6.1984702  34.4856536  33.4399887   6.5043579  33.6253899  33.1525802
   6.9237307  35.0774156  33.2398880   1.6196975  48.7090452  25.1854361
   1.1816405  47.9926311  24.7259998   2.3607416  48.9366567  24.6239452
   0.5606719  53.3945146  33.6400721   0.5182898  53.6205992  32.7109253
   1.4769418  53.1608520  33.7886522   4.0072353  43.8629213  40.5381350
   4.3621741  44.0900686  41.3975816   4.6544484  44.1947590  39.9158606
   9.7370090  46.9847649  31.2430679   9.5987989  47.1749245  30.3151869
   9.3806309  47.7467032  31.6998731   9.7639470  49.0524176  36.2541951
  10.1975976  48.9599465  37.1025005  10.4771050  49.0281677  35.6161967
   3.4967365  52.6526270  37.7875052   3.5504387  53.2217207  38.5552767
   2.6282146  52.8228155  37.4229089  10.6255019  49.0947877  38.7874836
  10.8190909  49.9993687  39.0334111  10.5255637  48.6355296  39.6213421
   2.2791330  38.9805767  41.2865164   1.6319245  39.6795717  41.1929640
   3.0492345  39.4141911  41.6541412   5.6870128  49.2454620  44.3615717
   5.5355634  49.0165171  43.4445801   5.6774807  50.2025221  44.3747062
   2.4555464  46.8186532  39.3461983   3.3847524  46.9697692  39.1730951
   2.0346494  46.9070553  38.4910630   1.8491948  55.9446293  28.4586058
   2.0243704  55.4734336  29.2731680   1.1624736  56.5712059  28.6867318
   2.8049011  50.2218799  34.5049359   2.4698844  50.1819569  35.4007009
   2.3052957  49.5563515  34.0319769   5.7408203  47.5674834  24.7786418
   5.1237374  46.8421662  24.6819471   5.2724691  48.3284194  24.4353493
   7.3962335  52.2773742  42.4392199   7.3374881  51.5932962  41.7722782
   7.7981853  53.0192732  41.9872825   7.3979742  50.2413326  40.6706178
   6.5106521  49.9039248  40.7932577   7.9678293  49.5096357  40.9074944
   0.9280895  54.9014778  37.6367422   0.8551067  55.7069750  38.1486726
   0.4858288  55.1006744  36.8115443   4.0267325  39.9481178  33.7904449
   4.5236025  39.1951140  33.4705519   3.2554307  39.9845494  33.2247658
  11.8797082  45.6521543  35.4322740  11.8686959  46.5346259  35.0616673
  11.0114462  45.2993094  35.2377277   3.3879579  54.8001612  39.7925580
   4.1007551  55.4349077  39.7201482   2.8969607  54.8965478  38.9765582
   5.1097106  48.7052865  31.3642872   4.1753384  48.8254328  31.1947576
   5.2873774  47.8025332  31.1002882   8.4969657  44.5470184  31.8992906
   8.9630109  45.3798176  31.8253209   8.9477158  44.0815166  32.6038165
   6.5645888  50.8914006  28.8979058   6.8405732  50.7770600  29.8072932
   5.6950387  50.4931490  28.8591231   6.4686320  36.9150771  35.9383807
   5.5549400  37.1454998  36.1066014   6.8979421  36.9989215  36.7897840
   6.2392778  45.1040663  38.4383701   5.5864229  45.3516571  37.7836154
   6.6173158  44.2904801  38.1046179   3.1999952  55.1400356  32.5411872
   3.3822347  54.3222012  33.0039624   4.0232938  55.3568049  32.1036762
   3.5342118  54.0668542  29.8026920   4.0629884  53.5560996  29.1897082
   3.7970337  53.7511072  30.6672453   2.2880351  45.8460474  44.9249739
   1.6120988  45.7454604  45.5952114   3.1107985  45.6899688  45.3885736
   1.0303134  57.1527402  39.1607355   1.5821442  57.3159023  39.9256440
   1.3709328  57.7431840  38.4887379   5.8814009  51.9788659  45.0156009
   6.4253912  52.5918618  44.5210964   5.3000853  52.5368238  45.5323022
   4.1671521  55.1009377  36.1471037   4.0422661  54.2999117  35.6381982
   4.8250613  55.5955571  35.6585007   6.2306430  52.9018397  37.7750587
   5.2836765  52.7823749  37.7028914   6.5789203  52.0140895  37.8576848
   3.2352863  52.6971114  33.9754939   3.0877826  51.7687821  34.1562509
   4.0606357  52.7191204  33.4912014   6.8386985  53.5199672  35.0619812
   7.7633532  53.3142534  34.9244263   6.6702288  53.2716074  35.9709153
   3.2314377  40.5508951  28.9687056   3.4477992  41.4333589  28.6675884
   2.7508445  40.1595165  28.2392698   1.6836112  40.9334553  37.6391818
   1.4253890  41.8551623  37.6376148   1.1521153  40.5364987  38.3292282
   6.6282301  54.0385340  30.4181903   6.8019179  53.4731762  29.6655756
   7.1211192  54.8386235  30.2361393   2.1038068  37.0666503  33.9992980
   2.1259765  37.1305836  33.0444960   2.5206127  36.2271012  34.1933487
  12.4821692  46.8021763  32.0372203  12.9252838  46.0529088  31.6391326
  11.6048203  46.7931899  31.6545935   7.6157474  53.3552104  27.5178802
   8.3108378  53.9758797  27.7366116   7.9580624  52.5047455  27.7931179
   9.5148897  50.8051810  29.0466132  10.0400221  51.1439083  28.3215452
   9.4271249  49.8698825  28.8629267   1.1768946  54.7185883  41.1756009
   1.4856072  54.4735030  42.0478709   1.9744428  54.9232522  40.6874879
   1.1989558  56.8723793  33.4061385   0.7594548  56.3800172  34.0994242
   1.9497675  56.3296761  33.1653461   9.2042803  51.4384713  44.3517330
   8.4138347  51.4208852  43.8121830   8.9676157  51.9773007  45.1066367
   9.3240678  48.2877180  41.6650059   9.3738683  48.1227187  42.6065582
   9.2154601  47.4204439  41.2747940   6.6144440  44.2708108  42.9809366
   7.5154303  44.1314573  42.6893363   6.6892415  44.4362563  43.9207543
  10.8258875  50.7074121  41.9092080  10.5343683  51.0704102  42.7455541
  10.2131006  49.9941130  41.7305412  12.0254557  48.2727001  34.4294651
  12.8601448  48.7116805  34.5932211  12.1613686  47.7965654  33.6102896
   9.0746063  45.8306736  40.3772138   9.5500185  46.0234382  39.5690990
   8.1511628  45.8865922  40.1315522   3.6526279  37.8654579  39.3427972
   4.1708223  38.6015606  39.0174461   3.2981412  38.1718573  40.1774731
   3.9038874  34.2854862  34.8628869   4.1840627  33.6178051  35.4889295
   4.6889481  34.4783958  34.3503533   1.7072342  53.4613856  26.4253895
   1.1346309  54.0804043  25.9724367   2.2805136  54.0113218  26.9593817
   7.7747732  42.7072496  38.6100444   8.7265155  42.8070594  38.6312668
   7.6051182  41.9150765  39.1198528   5.7962111  39.7928079  38.7959845
   5.2012044  40.0733092  38.1006333   5.5111808  40.2821980  39.5676586
   4.9269602  53.7451006  27.5562477   5.8600275  53.6796568  27.7595353
   4.8392815  54.5807273  27.0977010   7.5557619  53.0616876  24.5166425
   7.4771250  52.7276740  25.4102183   8.3767285  53.5538644  24.5157897
  10.2535810  45.9278616  37.7242744  10.2212130  44.9894616  37.9102427
  10.8636433  46.0062652  36.9908568   2.0919141  44.7974669  23.7669948
   3.0378245  44.6680877  23.8358366   1.7133386  44.0589331  24.2439376
  10.4030298  42.7189659  37.7701027   9.8869347  41.9348116  37.5830956
  11.2870247  42.3908376  37.9347546   8.0641025  36.4630675  33.7296839
   7.8665846  36.1545763  34.6140171   8.6740731  37.1892314  33.8594769
  16.0712360  46.9894623  36.8648780  16.8015748  46.7279911  37.4256484
  15.4619305  46.2523344  36.9050848  14.1527657  45.1302485  37.4623232
  13.4260820  44.9958450  36.8539723  13.7374944  45.4379314  38.2679950
   1.9757833  48.8492415  45.2270605   2.8960843  49.0271014  45.4210651
   1.9407416  47.9048460  45.0750304   1.8924124  37.2661535  29.8569074
   1.0824852  36.9208620  30.2324320   2.5808540  36.9569078  30.4456686
   3.8214672  36.3439582  31.4793371   4.3745710  36.7635035  32.1383394
   4.0584758  35.4175330  31.5216327   7.1993479  38.4540107  30.9872035
   6.6192148  39.1124911  30.6050087   6.9329412  37.6317451  30.5759453
   5.6497045  37.8545164  33.1893355   6.1496824  37.9661699  32.3807674
   6.2932653  37.5506217  33.8294164   5.9818357  40.6140197  30.0428383
   5.0944212  40.8989848  29.8248578   6.3972346  40.4533960  29.1955660
   9.3332893  40.6386718  33.7582723  10.1093283  41.1283171  34.0307339
   8.6081027  41.0644772  34.2154592  11.7705452  41.3514337  34.8156663
  12.3649942  41.1110073  34.1049971  11.8432035  40.6321468  35.4430199
   5.1261570  50.3784872  24.1376403   5.8297421  50.5834874  24.7534059
   4.4024219  50.9461634  24.4025487   5.9559381  46.1294733  30.2578673
   5.8994582  46.5863284  29.4186306   6.5087723  45.3685418  30.0801516
   9.7664187  41.9184465  31.0828793   9.5101121  41.5181101  31.9137001
   9.1417055  42.6328259  30.9578932  14.0776524  44.6580538  33.5900084
  13.5176082  44.7273727  34.3631646  13.4720028  44.4821523  32.8699581
   7.0348268  50.8167401  26.1874863   7.8693872  50.3848599  26.0052338
   6.8732611  50.6449415  27.1151758   6.6894160  47.3199514  27.5531203
   6.6342964  47.1543786  26.6119647   6.0640215  48.0275547  27.7093392
   4.0040067  49.6248426  46.8784765   4.8731227  49.7989078  46.5171400
   3.5246819  50.4442843  46.7560495   3.8142405  33.4150400  31.3862458
   3.0474801  32.8608887  31.5319140   4.2253110  33.4872269  32.2476609
  15.6632543  61.3337052  36.2830040  16.3010953  61.2143799  35.5793380
  15.5453386  62.2817896  36.3417992  12.4722249  61.2864480  36.2191565
  12.1340761  61.1705545  35.3312100  13.3412017  60.8855645  36.1992571
   8.3309065  63.1399957  32.2088456   7.7673930  63.0489894  31.4404743
   8.2161460  62.3199861  32.6890948  12.9542032  62.4399332  42.1777770
  12.9430673  62.0452130  41.3058274  13.1162672  61.7065405  42.7711542
   5.8773497  64.6351148  35.0472676   6.6694789  64.2941973  34.6318975
   6.1170147  64.7446123  35.9674830  13.9108624  66.8070924  27.5202921
  13.2596603  67.3925005  27.1336934  14.7052986  67.3377119  27.5797958
   7.8364251  63.8960061  27.9190055   8.6095127  63.3489049  27.7802931
   8.1889650  64.7604311  28.1304516   9.6749293  65.2236444  41.1256954
   9.3839159  66.1282075  41.0103621  10.3106278  65.2652971  41.8401024
  10.6005500  62.6013292  37.7158314  11.1969072  62.3769315  37.0015277
  10.6580472  61.8598038  38.3183762  10.1730529  60.0552728  25.5508505
  10.4256049  59.5334249  24.7891968   9.2355088  59.8918873  25.6535189
  15.2173811  59.0588506  33.3583248  16.0036901  58.6407929  33.0073665
  15.4812516  59.9634598  33.5264897  15.3883889  64.4961356  28.0571905
  14.7529722  64.5695983  28.7692810  15.0581295  65.0854955  27.3790984
  20.6182239  58.9963739  34.2616227  21.3507410  58.4262956  34.4954056
  19.8621594  58.6085340  34.7022732   9.8926817  61.9580834  27.7532880
   9.7763075  61.2825737  28.4213964  10.0029077  61.4713207  26.9365033
  12.2358358  61.4190981  31.4579569  11.8716565  60.8921602  32.1692491
  13.0925474  61.0289450  31.2846055  18.1407659  52.7085313  38.7210835
  17.8090984  53.5780724  38.4972050  17.5453272  52.3921597  39.4004866
  11.8763845  56.4480880  26.4540918  12.0438248  57.3161117  26.8211389
  11.6861014  56.6108162  25.5302207  14.6339178  64.9097859  38.1206748
  14.3339901  65.8122898  38.0122555  14.2890238  64.6430042  38.9727901
   8.0851660  61.3611656  34.1543452   7.1602156  61.2287870  34.3621144
   8.3336073  62.1405875  34.6513395  18.0336322  57.4280399  35.8004185
  17.1253200  57.3595808  35.5062946  17.9823918  57.9052344  36.6286011
  11.8553066  58.9038538  27.4387584  11.7352691  59.3495589  28.2773065
  11.1605654  59.2523856  26.8801123   5.4460471  61.0044930  34.9887241
   5.5752852  61.2579409  35.9026653   4.7657922  61.5972638  34.6691897
   9.6159958  71.6742180  31.0877716   9.5383988  72.6250005  31.1666196
   9.0121602  71.3288052  31.7452642  12.1077188  58.8470045  43.7439083
  11.3310522  59.4063965  43.7341947  12.7467751  59.3326828  44.2653953
  19.8997969  55.6296838  37.5782059  19.2572349  55.9229371  36.9321854
  19.3952897  55.5149758  38.3835256  17.5538132  59.3760011  28.2667918
  18.4655988  59.6087398  28.0915616  17.0447779  59.9597055  27.7042997
  10.3623560  61.6555498  43.3057050  11.1038245  62.1940542  43.0291873
   9.6560546  62.2821787  43.4628601  15.8378900  63.7984639  41.9029211
  16.2462256  63.3567049  41.1583843  15.1156161  63.2237266  42.1563404
  12.1909970  58.7357246  39.2762768  13.0371165  59.1596659  39.4197417
  12.1308608  58.0790870  39.9701331  16.1607715  64.3585829  35.6581500
  15.5316577  64.5231544  34.9557568  15.7733377  64.7727439  36.4292464
  20.0396946  65.2940267  33.0125864  19.3547985  65.6739169  32.4622897
  20.1240796  65.9035594  33.7457811  15.3409415  56.3961614  40.9343942
  15.0970347  57.1503674  40.3978217  15.6169346  56.7746962  41.7691189
  17.2947878  62.9400226  39.6121207  17.5064773  63.5831986  38.9355588
  17.2477626  62.1062543  39.1443137  14.8974107  55.5518047  36.5157779
  14.0358586  55.8499301  36.8074517  14.9236542  55.7688446  35.5838812
  11.7135676  64.0960238  32.9231585  12.1774022  64.3747941  32.1336208
  11.4492475  63.1943682  32.7404676   8.6059757  63.6431719  35.8611348
   9.1761115  64.0718987  35.2228833   9.1967869  63.3614304  36.5595534
  10.6504562  60.2183390  29.7321150  11.3528606  60.6704434  30.1995077
  10.3185191  59.5767209  30.3601043   9.0984924  58.8095147  44.1072360
   8.4683585  59.4911427  44.3407756   8.9921012  58.6978228  43.1625498
   4.3929896  58.4766943  35.0338284   3.6028950  58.7324471  34.5578394
   4.8841144  59.2915280  35.1390324  18.4093706  65.8172182  37.7843565
  19.2311150  65.4152369  37.5026246  18.4056109  65.7140416  38.7359680
   6.3444642  58.8411522  31.9921760   5.5475805  58.9530216  32.5105256
   6.1170234  59.1798174  31.1262651  12.1750309  65.3656225  39.9404275
  12.2394742  65.8276632  40.7762447  11.4661233  64.7353590  40.0686585
   2.6767599  58.7297433  37.4653275   2.9275638  59.6144443  37.7310850
   3.2127148  58.5502035  36.6928366  26.4999699  62.1610930  34.1328536
  25.7463407  61.5918328  33.9772540  26.6347240  62.1273595  35.0799171
  11.8898327  67.0324333  29.8083255  11.7544002  67.8775868  30.2368103
  12.4308140  67.2343610  29.0449189   8.3765667  53.1115912  46.4697611
   7.9832612  52.5582111  47.1445255   9.1931807  53.4226491  46.8604128
   5.3427724  64.5499771  30.3811180   5.8552245  65.3443021  30.5316745
   5.9950437  63.8526061  30.3144782   7.1522609  67.6665527  32.4633934
   7.3289238  68.5883492  32.2754918   7.9479443  67.3523946  32.8928313
  11.2933628  54.5273791  44.0617867  12.0343341  55.1280945  43.9822330
  11.5251551  53.7851429  43.5035910   6.4374966  59.7130159  42.3396097
   6.3228481  58.8115416  42.6403196   5.5819483  59.9593856  41.9880913
  13.5166803  67.6547899  43.9383597  13.0730658  66.8684278  43.6204502
  14.1784017  67.8427050  43.2727488   8.2753925  69.1843701  38.4644276
   8.8261350  69.0560764  37.6921270   7.4365401  69.4838590  38.1139169
  15.6148042  67.9350699  41.9664999  15.5966517  68.7559580  41.4745268
  16.5367962  67.8104774  42.1915140  12.0721096  65.4494828  42.8088507
  12.6049432  64.6883117  42.5787815  11.5435177  65.1568480  43.5512662
  15.2390791  50.5554894  38.3382149  14.8955060  51.4456536  38.2621259
  15.6069753  50.3656552  37.4751734   3.3076641  62.8788425  31.1570751
   4.1451863  63.2885433  30.9404459   3.4854909  61.9387867  31.1270945
  15.2041073  60.5463506  26.8454584  14.6887697  61.3168110  27.0842971
  14.9318382  59.8728642  27.4687645  12.7888184  55.3913206  31.9039822
  11.9329781  55.0020057  31.7245461  13.2015136  55.4705167  31.0439608
  14.3187331  52.9259550  36.3031382  13.8152127  52.8889685  35.4899187
  14.6117938  53.8352292  36.3628039  10.5630217  53.0098279  35.3097564
  11.4283214  52.8141088  34.9503453  10.6307726  52.7808631  36.2366921
  20.1775348  63.2995860  28.7807757  19.4004790  62.9607020  28.3362920
  20.8566828  63.3048483  28.1062723  14.9927377  58.4190598  28.6714365
  14.6877512  58.7336747  29.5224508  15.9457819  58.4972018  28.7141698
  13.4373808  64.5780821  30.3207319  12.9095170  63.8433581  30.0080557
  12.9361311  65.3555497  30.0747287  18.4166654  62.7729841  35.4374365
  17.7590329  63.4629103  35.5254494  19.2207054  63.1626273  35.7808352
   8.1692536  55.2400487  32.6813931   8.7436288  55.0175669  31.9487124
   8.7563518  55.3089182  33.4342532  17.2272113  61.1274214  33.4878307
  17.7403995  61.7604206  33.9900017  17.8773337  60.5275410  33.1221667
   8.4962123  57.2704948  26.7009816   7.6599435  57.6079635  27.0219091
   8.3566893  57.1353928  25.7636953  10.4715204  52.1141736  31.4089000
   9.8179616  51.7990753  30.7845615  10.4295678  51.4917477  32.1348823
  11.5826409  62.3961031  23.3242292  10.6753470  62.1650285  23.5233441
  12.0797441  61.5998650  23.5116274  14.4894487  71.1058538  26.2438978
  13.8156186  71.4090235  26.8523936  14.8760309  71.9087619  25.8944435
  13.7052944  58.6023670  35.7336648  12.7875505  58.8238617  35.5758336
  14.1213088  58.6769980  34.8748355  14.4887992  60.0015085  30.8639328
  15.2359811  60.5136483  30.5546450  14.7579581  59.6799138  31.7243722
  12.7614642  62.4973626  27.8466282  11.8525861  62.2132659  27.9438752
  12.7909726  62.9172705  26.9869589  17.9933909  66.1080216  31.6157450
  17.5396237  65.2671125  31.6722640  17.3627876  66.7441614  31.9532230
  16.9366829  57.0372202  32.8458117  16.1989586  56.5249588  33.1768360
  17.1893603  56.5972583  32.0341394  16.4366849  67.9456712  32.5507268
  16.7289823  68.5061769  31.8319634  16.9465469  68.2385273  33.3060427
  17.0378456  49.8148454  33.4399887  17.3437333  48.9545817  33.1525802
  17.7631061  50.4066074  33.2398880   3.3302812  60.2179140  31.8281484
   3.1327212  59.6248501  31.1032551   2.7749476  59.9131350  32.5457423
  11.3099536  60.1102247  33.9476078  11.3648146  59.1576083  33.8718554
  10.4990738  60.2661686  34.4317376  12.4590730  64.0382370  25.1854361
  12.0210160  63.3218229  24.7259998  13.2001171  64.2658485  24.6239452
   9.2491896  58.7279306  31.7066456   8.4359762  59.0273477  32.1131649
   9.7450890  58.3334995  32.4240939  11.4000474  68.7237063  33.6400721
  11.3576653  68.9497910  32.7109253  12.3163173  68.4900438  33.7886522
  14.8466108  59.1921131  40.5381350  15.2015495  59.4192604  41.3975816
  15.4938239  59.5239508  39.9158606  20.5763845  62.3139567  31.2430679
  20.4381743  62.5041163  30.3151869  20.2200063  63.0758950  31.6998731
   8.7405971  56.2997662  37.3227691   9.3805350  56.1586421  36.6250655
   7.9083501  56.0132175  36.9466293  20.6033224  64.3816094  36.2541951
  21.0369731  64.2891383  37.1025005  21.3164805  64.3573594  35.6161967
   9.5166275  65.6000092  33.4362684  10.3106873  65.1050413  33.2345259
   8.8057967  65.0717956  33.0730389  14.3361119  67.9818188  37.7875052
  14.3898141  68.5509124  38.5552767  13.4675900  68.1520073  37.4229089
   5.8249038  59.7443174  29.5122437   4.8946626  59.6827630  29.7292399
   5.9206510  59.2219127  28.7159078   5.7434587  56.2697987  32.1000678
   6.0041404  57.1843320  31.9909839   6.5651759  55.8022430  32.2497291
   7.2159512  57.6835744  39.2699503   7.8882566  57.4753106  38.6212152
   6.3889299  57.4857830  38.8304735  21.4648774  64.4239794  38.7874836
  21.6584664  65.3285605  39.0334111  21.3649392  63.9647214  39.6213421
  13.1185084  54.3097685  41.2865164  12.4713000  55.0087635  41.1929640
  13.8886100  54.7433829  41.6541412  16.5263882  64.5746537  44.3615717
  16.3749389  64.3457089  43.4445801  16.5168562  65.5317139  44.3747062
  13.2949219  62.1478450  39.3461983  14.2241279  62.2989610  39.1730951
  12.8740249  62.2362471  38.4910630  12.0937551  66.1729114  37.1160521
  11.9548636  65.8047899  37.9886459  11.3052147  66.6876754  36.9444479
  12.6885703  71.2738211  28.4586058  12.8637458  70.8026254  29.2731680
  12.0018491  71.9003977  28.6867318  13.6442766  65.5510717  34.5049359
  13.3092598  65.5111487  35.4007009  13.1446711  64.8855433  34.0319769
   7.6187010  60.9578347  40.0301940   7.4806808  60.2258586  40.6313479
   8.5291933  60.8687247  39.7486128  16.5801957  62.8966751  24.7786418
  15.9631128  62.1713580  24.6819471  16.1118446  63.6576112  24.4353493
  10.2469310  60.6698306  39.5185620  10.9568929  60.0291499  39.4772238
  10.2038619  60.9211201  40.4411800  18.2356089  67.6065660  42.4392199
  18.1768635  66.9224880  41.7722782  18.6375607  68.3484650  41.9872825
   8.9598244  57.6563524  41.3381259   8.4235601  57.2054263  41.9902855
   8.3714953  57.7909433  40.5951723   7.2546788  74.4227574  35.2325918
   7.4943386  75.0546098  35.9104936   6.4115984  74.0715614  35.5191277
   8.3700503  57.1152176  23.9007723   7.4929970  56.9940976  23.5369969
   8.8458256  56.3238254  23.6486611  18.2373496  65.5705244  40.6706178
  17.3500275  65.2331165  40.7932577  18.8072047  64.8388275  40.9074944
   4.6937366  56.7919532  38.4234254   4.6095554  56.1845202  37.6884663
   3.8720072  57.2828550  38.4243750  11.7674650  70.2306696  37.6367422
  11.6944821  71.0361668  38.1486726  11.3252043  70.4298662  36.8115443
  11.5564429  69.4678466  31.1470243  10.7731951  70.0100146  31.2408468
  12.2557175  69.9852446  31.5464484  14.8661079  55.2773096  33.7904449
  15.3629779  54.5243058  33.4705519  14.0948061  55.3137412  33.2247658
  22.7190837  60.9813461  35.4322740  22.7080713  61.8638176  35.0616673
  21.8508216  60.6285012  35.2377277  14.2273333  70.1293530  39.7925580
  14.9401305  70.7640995  39.7201482  13.7363362  70.2257396  38.9765582
  15.9490860  64.0344783  31.3642872  15.0147139  64.1546245  31.1947576
  16.1267529  63.1317250  31.1002882  11.4496048  57.4190479  33.5176133
  11.0793836  56.8661519  34.2057039  11.9455141  56.8148612  32.9651133
  19.3363412  59.8762102  31.8992906  19.8023864  60.7090094  31.8253209
  19.7870912  59.4107084  32.6038165   9.2785247  67.8787974  40.6131151
   9.9794706  68.5124456  40.7660545   8.8080362  68.2202705  39.8526790
  17.4039643  66.2205923  28.8979058  17.6799487  66.1062518  29.8072932
  16.5344141  65.8223408  28.8591231  17.3080074  52.2442689  35.9383807
  16.3943154  52.4746916  36.1066014  17.7373176  52.3281133  36.7897840
  17.0786533  60.4332581  38.4383701  16.4257983  60.6808488  37.7836154
  17.4566913  59.6196719  38.1046179  14.0393707  70.4692274  32.5411872
  14.2216101  69.6513930  33.0039624  14.8626693  70.6859966  32.1036762
  14.3735872  69.3960459  29.8026920  14.9023639  68.8852914  29.1897082
  14.6364092  69.0802989  30.6672453  13.1274106  61.1752392  44.9249739
  12.4514743  61.0746521  45.5952114  13.9501740  61.0191606  45.3885736
   4.8752965  67.4124329  37.5462254   5.4606402  66.6668016  37.6790158
   4.6777803  67.7228285  38.4298918   7.7291620  70.4475576  32.5624696
   7.0601995  70.9321704  32.0788736   7.5904490  70.6944796  33.4768075
  11.8696889  72.4819319  39.1607355  12.4215197  72.6450941  39.9256440
  12.2103082  73.0723757  38.4887379   6.8461382  54.8294469  39.7629239
   6.9102708  55.6909300  39.3506637   6.7828502  54.2168471  39.0301598
   6.3213654  56.9017602  43.4102274   6.9485693  56.5194679  44.0239798
   5.4641573  56.6831804  43.7757966  16.7207763  67.3080577  45.0156009
  17.2647667  67.9210535  44.5210964  16.1394608  67.8660155  45.5323022
   3.0979197  58.7094031  29.3420628   3.3932638  57.8004709  29.2887682
   2.1967233  58.6881770  29.0201631  15.0065276  70.4301295  36.1471037
  14.8816415  69.6291035  35.6381982  15.6644367  70.9247488  35.6585007
   6.6273444  56.7850028  35.3248177   5.9060030  57.3985995  35.1855650
   7.4166700  57.3207792  35.2464823  17.0700184  68.2310315  37.7750587
  16.1230520  68.1115666  37.7028914  17.4182957  67.3432813  37.8576848
   9.4299758  54.1204454  41.5988829   9.9534160  54.3666751  42.3615138
   9.2112091  54.9524489  41.1791966   4.8267039  56.3908129  29.4659954
   4.4979745  55.5105508  29.2835059   5.1806409  56.3355797  30.3536343
  14.0746618  68.0263031  33.9754939  13.9271580  67.0979739  34.1562509
  14.9000111  68.0483122  33.4912014   7.9408862  56.6781098  29.8335431
   8.2804934  57.2067020  29.1114040   8.3880982  57.0161505  30.6093998
  17.6780739  68.8491590  35.0619812  18.6027287  68.6434451  34.9244263
  17.5096043  68.6007991  35.9709153  10.6352303  55.0618149  39.2838499
  10.2949123  54.2625962  39.6859179   9.9291309  55.3619860  38.7115332
  11.2868775  52.1467462  37.7365822  12.1094844  51.6727940  37.6144713
  11.5306838  52.9257945  38.2364509   9.9277009  55.1755720  28.0328724
  10.6485372  55.5536973  27.5292441   9.3042313  55.8944597  28.1363702
  14.0708132  55.8800869  28.9687056  14.2871746  56.7625507  28.6675884
  13.5902199  55.4887082  28.2392698   8.8107353  58.8386582  35.5457801
   8.6651934  59.1526885  36.4382082   8.3332557  59.4571483  34.9928700
  10.6703736  55.8289130  35.5938690  10.6565305  54.9330223  35.2570988
  11.3876164  55.8359794  36.2276976  12.5229867  56.2626470  37.6391818
  12.2647645  57.1843541  37.6376148  11.9914907  55.8656905  38.3292282
  17.4676056  69.3677257  30.4181903  17.6412933  68.8023680  29.6655756
  17.9604947  70.1678152  30.2361393   3.2853015  61.3791927  38.4845462
   2.7406484  62.1551735  38.6165736   4.1632365  61.7262731  38.3264583
  10.0740632  54.7103510  30.8626261  10.1956543  53.7820157  31.0617148
   9.7842675  54.7242196  29.9504576  12.9431823  52.3958421  33.9992980
  12.9653519  52.4597754  33.0444960  13.3599882  51.5562930  34.1933487
  23.3215447  62.1313680  32.0372203  23.7646593  61.3821006  31.6391326
  22.4441957  62.1223817  31.6545935  18.4551228  68.6844022  27.5178802
  19.1502133  69.3050715  27.7366116  18.7974378  67.8339373  27.7931179
   4.0719037  60.5061823  41.3775619   3.3300773  60.6544458  41.9640249
   3.7511782  60.7670088  40.5142368  20.3542651  66.1343727  29.0466132
  20.8793975  66.4731000  28.3215452  20.2665004  65.1990743  28.8629267
  12.0162700  70.0477801  41.1756009  12.3249826  69.8026948  42.0478709
  12.8138182  70.2524440  40.6874879  12.0383312  72.2015711  33.4061385
  11.5988302  71.7092089  34.0994242  12.7891429  71.6588678  33.1653461
   4.5175651  68.3927252  33.4086014   5.3433671  68.0931023  33.0284657
   4.1669703  67.6234874  33.8575802   9.4857184  67.7453720  35.4783687
   8.8637193  67.0824425  35.1785915  10.1562051  67.7714852  34.7957335
   2.7184256  66.3113578  34.3674947   1.8816164  65.8835752  34.1858948
   2.6907902  66.5046021  35.3045738   9.5581712  56.2235508  45.0716193
   9.6069867  57.0997631  44.6893963  10.1004226  55.6812901  44.4987836
  20.0436557  66.7676631  44.3517330  19.2532101  66.7500770  43.8121830
  19.8069912  67.3064925  45.1066367  20.1634432  63.6169097  41.6650059
  20.2132437  63.4519105  42.6065582  20.0548356  62.7496356  41.2747940
   9.0470691  66.2957643  28.9542148   9.1958811  66.9793108  28.3008820
   9.8537135  66.2762733  29.4691603  17.4538195  59.6000025  42.9809366
  18.3548058  59.4606490  42.6893363  17.5286169  59.7654480  43.9207543
  11.7881000  56.9766880  41.8262552  10.9184310  57.2700446  41.5545140
  12.0240480  57.5607325  42.5469815  21.6652629  66.0366039  41.9092080
  21.3737438  66.3996020  42.7455541  21.0524761  65.3233047  41.7305412
  22.8648312  63.6018919  34.4294651  23.6995203  64.0408723  34.5932211
  23.0007440  63.1257572  33.6102896  19.9139817  61.1598654  40.3772138
  20.3893939  61.3526300  39.5690990  18.9905383  61.2157839  40.1315522
   6.8023324  62.3222821  29.9603217   6.5569366  61.4185151  30.1583427
   6.9719239  62.3239971  29.0182695  14.4920034  53.1946497  39.3427972
  15.0101978  53.9307524  39.0174461  14.1375167  53.5010490  40.1774731
   6.0718972  58.0551178  27.4589378   5.3788217  58.1295533  26.8029414
   5.8270724  57.2911522  27.9810895  14.7432628  49.6146780  34.8628869
  15.0234382  48.9469969  35.4889295  15.5283235  49.8075875  34.3503533
  12.5466097  68.7905774  26.4253895  11.9740064  69.4095961  25.9724367
  13.1198890  69.3405135  26.9593817  18.6141486  58.0364414  38.6100444
  19.5658909  58.1362511  38.6312668  18.4444937  57.2442682  39.1198528
  16.6355866  55.1219997  38.7959845  16.0405798  55.4025010  38.1006333
  16.3505563  55.6113898  39.5676586  15.7663356  69.0742924  27.5562477
  16.6994030  69.0088485  27.7595353  15.6786569  69.9099191  27.0977010
  18.3951373  68.3908794  24.5166425  18.3165005  68.0568658  25.4102183
  19.2161040  68.8830562  24.5157897  21.0929564  61.2570533  37.7242744
  21.0605884  60.3186534  37.9102427  21.7030188  61.3354570  36.9908568
  12.9312895  60.1266586  23.7669948  13.8772000  59.9972794  23.8358366
  12.5527140  59.3881248  24.2439376  21.2424053  58.0481577  37.7701027
  20.7263101  57.2640033  37.5830956  22.1264001  57.7200293  37.9347546
  18.9034780  51.7922592  33.7296839  18.7059601  51.4837681  34.6140171
  19.5134485  52.5184231  33.8594769  26.9106114  62.3186540  36.8648780
  27.6409503  62.0571828  37.4256484  26.3013060  61.5815262  36.9050848
  24.9921411  60.4594403  37.4623232  24.2654575  60.3250368  36.8539723
  24.5768698  60.7671231  38.2679950  12.8151588  64.1784332  45.2270605
  13.7354597  64.3562931  45.4210651  12.7801171  63.2340378  45.0750304
  11.1155812  58.0516563  23.7024833  10.2087268  57.7549675  23.7787546
  11.3931793  57.7546381  22.8359119   2.0333753  59.3722926  34.1523879
   1.7136537  58.5188234  33.8598253   1.4867181  59.5871504  34.9081847
   5.8113660  62.0885367  37.8693386   6.0299670  63.0202475  37.8881420
   6.2239434  61.7293342  38.6548190  12.7317878  52.5953452  29.8569074
  11.9218606  52.2500537  30.2324320  13.4202295  52.2860996  30.4456686
  14.6608426  51.6731499  31.4793371  15.2139465  52.0926953  32.1383394
  14.8978513  50.7467247  31.5216327  10.6841526  57.6618573  47.2596135
  10.5838252  58.6112930  47.1908226  10.4663068  57.3336812  46.3872205
   9.8854597  54.9103498  23.8436812  10.7473761  55.2358396  24.1032629
  10.0704941  54.1234994  23.3309878   1.9022013  62.9925838  36.1217001
   1.2085484  62.5779790  35.6086955   2.6495004  63.0346374  35.5250420
  18.0387233  53.7832024  30.9872035  17.4585902  54.4416828  30.6050087
  17.7723166  52.9609369  30.5759453  16.4890800  53.1837082  33.1893355
  16.9890578  53.2953617  32.3807674  17.1326408  52.8798135  33.8294164
  10.5472796  61.0915712  46.0761196  10.0639877  61.8916072  46.2825085
  10.6333735  61.1023657  45.1228640   3.8158755  62.9244091  33.9983016
   3.7929443  63.0231779  33.0464899   4.1259392  63.7709242  34.3200182
   6.4746133  64.9820246  38.1129630   7.4289387  64.9504189  38.0459562
   6.2758657  64.5210870  38.9279856   7.0645515  63.5521362  40.6800428
   7.8838404  64.0465441  40.7035265   7.3382323  62.6353331  40.6517995
  16.8212111  55.9432115  30.0428383  15.9337966  56.2281765  29.8248578
  17.2366100  55.7825878  29.1955660  20.1726648  55.9678636  33.7582723
  20.9487038  56.4575088  34.0307339  19.4474782  56.3936690  34.2154592
  22.6099206  56.6806255  34.8156663  23.2043697  56.4401991  34.1049971
  22.6825790  55.9613386  35.4430199   4.8296362  70.5239866  35.1299828
   4.6950830  69.7640267  34.5637826   4.4128424  71.2480766  34.6628617
  15.9655325  65.7076789  24.1376403  16.6691175  65.9126792  24.7534059
  15.2417974  66.2753551  24.4025487  16.7953135  61.4586651  30.2578673
  16.7388337  61.9155202  29.4186306  17.3481478  60.6977335  30.0801516
  20.6057941  57.2476383  31.0828793  20.3494875  56.8473018  31.9137001
  19.9810809  57.9620177  30.9578932  24.9170279  59.9872456  33.5900084
  24.3569837  60.0565645  34.3631646  24.3113782  59.8113440  32.8699581
   7.9865488  71.4209183  35.3418271   7.8697872  72.3654615  35.2396961
   7.1657934  71.1182744  35.7304070  17.8742022  66.1459319  26.1874863
  18.7087626  65.7140517  26.0052338  17.7126365  65.9741332  27.1151758
  17.5287914  62.6491432  27.5531203  17.4736718  62.4835703  26.6119647
  16.9033970  63.3567465  27.7093392   2.3180429  57.8859496  41.3792625
   2.9639293  57.3758450  41.8679850   2.1097581  58.6228178  41.9536050
  14.8433822  64.9540344  46.8784765  15.7124981  65.1280996  46.5171400
  14.3640573  65.7734761  46.7560495  10.8384040  52.1499541  27.1316521
  10.8262710  53.0941381  27.2884792  11.7307462  51.9669686  26.8375982
   9.0120002  72.0737445  38.5574199   9.9147249  72.1061055  38.8740694
   8.7857372  71.1437896  38.5720535  10.7673604  70.8268431  35.2184278
   9.8169235  70.8270293  35.1048650  11.0706090  70.0801166  34.7020312
  14.6536159  48.7442318  31.3862458  13.8868555  48.1900804  31.5319140
  15.0646864  48.8164186  32.2476609   6.6577920  55.0327113  45.4767639
   7.5209382  54.6763918  45.6870964   6.0843331  54.6941008  46.1643043
  26.5026297  76.6628970  36.2830040  27.1404707  76.5435717  35.5793380
  26.3847140  77.6109814  36.3417992  23.3116004  76.6156398  36.2191565
  22.9734515  76.4997463  35.3312100  24.1805772  76.2147563  36.1992571
  19.1702819  78.4691874  32.2088456  18.6067684  78.3781811  31.4404743
  19.0555214  77.6491779  32.6890948  23.7935787  77.7691250  42.1777770
  23.7824427  77.3744048  41.3058274  23.9556426  77.0357322  42.7711542
  16.7167251  79.9643066  35.0472676  17.5088543  79.6233891  34.6318975
  16.9563901  80.0738041  35.9674830  24.7502378  82.1362842  27.5202921
  24.0990358  82.7216922  27.1336934  25.5446741  82.6669037  27.5797958
  18.6758005  79.2251979  27.9190055  19.4488881  78.6780966  27.7802931
  19.0283404  80.0896228  28.1304516  20.5143048  80.5528361  41.1256954
  20.2232914  81.4573992  41.0103621  21.1500032  80.5944889  41.8401024
  21.4399255  77.9305210  37.7158314  22.0362827  77.7061232  37.0015277
  21.4974226  77.1889955  38.3183762  21.0124283  75.3844645  25.5508505
  21.2649804  74.8626167  24.7891968  20.0748842  75.2210791  25.6535189
  26.0567566  74.3880424  33.3583248  26.8430655  73.9699847  33.0073665
  26.3206270  75.2926516  33.5264897  26.2277643  79.8253274  28.0571905
  25.5923476  79.8987900  28.7692810  25.8975050  80.4146873  27.3790984
  31.4575993  74.3255657  34.2616227  32.1901165  73.7554874  34.4954056
  30.7015349  73.9377257  34.7022732  20.7320572  77.2872751  27.7532880
  20.6156830  76.6117655  28.4213964  20.8422832  76.8005125  26.9365033
  23.0752113  76.7482898  31.4579569  22.7110320  76.2213519  32.1692491
  23.9319229  76.3581367  31.2846055  28.9801413  68.0377231  38.7210835
  28.6484738  68.9072642  38.4972050  28.3847027  67.7213515  39.4004866
  22.7157600  71.7772798  26.4540918  22.8832002  72.6453034  26.8211389
  22.5254769  71.9400080  25.5302207  25.4732933  80.2389777  38.1206748
  25.1733656  81.1414816  38.0122555  25.1283992  79.9721960  38.9727901
  18.9245414  76.6903574  34.1543452  17.9995911  76.5579788  34.3621144
  19.1729828  77.4697793  34.6513395  28.8730077  72.7572317  35.8004185
  27.9646954  72.6887726  35.5062946  28.8217672  73.2344262  36.6286011
  22.6946821  74.2330456  27.4387584  22.5746446  74.6787506  28.2773065
  21.9999409  74.5815773  26.8801123  16.2854225  76.3336847  34.9887241
  16.4146607  76.5871326  35.9026653  15.6051677  76.9264555  34.6691897
  20.4553713  87.0034097  31.0877716  20.3777742  87.9541922  31.1666196
  19.8515356  86.6579970  31.7452642  22.9470942  74.1761963  43.7439083
  22.1704276  74.7355883  43.7341947  23.5861505  74.6618746  44.2653953
  30.7391723  70.9588755  37.5782059  30.0966103  71.2521289  36.9321854
  30.2346652  70.8441676  38.3835256  28.3931887  74.7051929  28.2667918
  29.3049743  74.9379315  28.0915616  27.8841534  75.2888973  27.7042997
  21.2017315  76.9847416  43.3057050  21.9431999  77.5232460  43.0291873
  20.4954300  77.6113705  43.4628601  26.6772654  79.1276557  41.9029211
  27.0856010  78.6858967  41.1583843  25.9549916  78.5529184  42.1563404
  23.0303724  74.0649163  39.2762768  23.8764920  74.4888577  39.4197417
  22.9702362  73.4082788  39.9701331  27.0001469  79.6877747  35.6581500
  26.3710331  79.8523461  34.9557568  26.6127131  80.1019357  36.4292464
  30.8790701  80.6232185  33.0125864  30.1941739  81.0031086  32.4622897
  30.9634550  81.2327512  33.7457811  26.1803170  71.7253532  40.9343942
  25.9364102  72.4795592  40.3978217  26.4563100  72.1038879  41.7691189
  28.1341633  78.2692144  39.6121207  28.3458528  78.9123904  38.9355588
  28.0871381  77.4354461  39.1443137  25.7367861  70.8809965  36.5157779
  24.8752341  71.1791218  36.8074517  25.7630296  71.0980364  35.5838812
  22.5529431  79.4252155  32.9231585  23.0167776  79.7039858  32.1336208
  22.2886229  78.5235600  32.7404676  19.4453512  78.9723637  35.8611348
  20.0154869  79.4010905  35.2228833  20.0361624  78.6906221  36.5595534
  21.4898317  75.5475308  29.7321150  22.1922360  75.9996351  30.1995077
  21.1578945  74.9059126  30.3601043  19.9378678  74.1387064  44.1072360
  19.3077339  74.8203345  44.3407756  19.8314766  74.0270146  43.1625498
  15.2323651  73.8058860  35.0338284  14.4422705  74.0616389  34.5578394
  15.7234898  74.6207198  35.1390324  29.2487460  81.1464099  37.7843565
  30.0704904  80.7444287  37.5026246  29.2449863  81.0432334  38.7359680
  17.1838396  74.1703440  31.9921760  16.3869560  74.2822134  32.5105256
  16.9563988  74.5090092  31.1262651  23.0144064  80.6948143  39.9404275
  23.0788496  81.1568550  40.7762447  22.3054988  80.0645508  40.0686585
  13.5161354  74.0589351  37.4653275  13.7669392  74.9436361  37.7310850
  14.0520902  73.8793952  36.6928366  37.3393454  77.4902848  34.1328536
  36.5857162  76.9210246  33.9772540  37.4740995  77.4565512  35.0799171
  22.7292082  82.3616250  29.8083255  22.5937756  83.2067786  30.2368103
  23.2701894  82.5635528  29.0449189  19.2159421  68.4407830  46.4697611
  18.8226367  67.8874029  47.1445255  20.0325562  68.7518409  46.8604128
  16.1821479  79.8791688  30.3811180  16.6946000  80.6734939  30.5316745
  16.8344192  79.1817979  30.3144782  17.9916364  82.9957445  32.4633934
  18.1682992  83.9175409  32.2754918  18.7873197  82.6815864  32.8928313
  22.1327382  69.8565709  44.0617867  22.8737096  70.4572862  43.9822330
  22.3645305  69.1143347  43.5035910  17.2768720  75.0422076  42.3396097
  17.1622235  74.1407334  42.6403196  16.4213238  75.2885773  41.9880913
  24.3560558  82.9839817  43.9383597  23.9124412  82.1976195  43.6204502
  25.0177772  83.1718967  43.2727488  19.1147679  84.5135618  38.4644276
  19.6655104  84.3852682  37.6921270  18.2759155  84.8130507  38.1139169
  26.4541796  83.2642617  41.9664999  26.4360271  84.0851498  41.4745268
  27.3761716  83.1396692  42.1915140  22.9114850  80.7786746  42.8088507
  23.4443187  80.0175034  42.5787815  22.3828931  80.4860398  43.5512662
  26.0784545  65.8846812  38.3382149  25.7348815  66.7748454  38.2621259
  26.4463508  65.6948470  37.4751734  14.1470396  78.2080343  31.1570751
  14.9845618  78.6177351  30.9404459  14.3248663  77.2679785  31.1270945
  26.0434828  75.8755423  26.8454584  25.5281451  76.6460028  27.0842971
  25.7712136  75.2020559  27.4687645  23.6281939  70.7205124  31.9039822
  22.7723535  70.3311974  31.7245461  24.0408891  70.7997085  31.0439608
  25.1581086  68.2551467  36.3031382  24.6545881  68.2181602  35.4899187
  25.4511692  69.1644210  36.3628039  21.4023971  68.3390197  35.3097564
  22.2676968  68.1433006  34.9503453  21.4701480  68.1100549  36.2366921
  31.0169102  78.6287778  28.7807757  30.2398545  78.2898937  28.3362920
  31.6960583  78.6340401  28.1062723  25.8321131  73.7482515  28.6714365
  25.5271267  74.0628664  29.5224508  26.7851573  73.8263935  28.7141698
  24.2767563  79.9072739  30.3207319  23.7488924  79.1725498  30.0080557
  23.7755066  80.6847415  30.0747287  29.2560409  78.1021759  35.4374365
  28.5984083  78.7921021  35.5254494  30.0600808  78.4918191  35.7808352
  19.0086290  70.5692405  32.6813931  19.5830042  70.3467586  31.9487124
  19.5957273  70.6381099  33.4342532  28.0665868  76.4566132  33.4878307
  28.5797749  77.0896124  33.9900017  28.7167092  75.8567327  33.1221667
  19.3355878  72.5996866  26.7009816  18.4993190  72.9371552  27.0219091
  19.1960647  72.4645846  25.7636953  21.3108958  67.4433654  31.4089000
  20.6573371  67.1282671  30.7845615  21.2689432  66.8209394  32.1348823
  22.4220163  77.7252949  23.3242292  21.5147225  77.4942202  23.5233441
  22.9191195  76.9290568  23.5116274  25.3288242  86.4350456  26.2438978
  24.6549941  86.7382153  26.8523936  25.7154064  87.2379536  25.8944435
  24.5446699  73.9315587  35.7336648  23.6269260  74.1530534  35.5758336
  24.9606842  74.0061898  34.8748355  25.3281746  75.3307003  30.8639328
  26.0753565  75.8428400  30.5546450  25.5973336  75.0091056  31.7243722
  23.6008397  77.8265544  27.8466282  22.6919616  77.5424577  27.9438752
  23.6303480  78.2464622  26.9869589  28.8327664  81.4372133  31.6157450
  28.3789991  80.5963043  31.6722640  28.2021631  82.0733532  31.9532230
  27.7760583  72.3664119  32.8458117  27.0383340  71.8541505  33.1768360
  28.0287357  71.9264501  32.0341394  27.2760603  83.2748630  32.5507268
  27.5683578  83.8353687  31.8319634  27.7859224  83.5677191  33.3060427
  27.8772211  65.1440371  33.4399887  28.1831088  64.2837735  33.1525802
  28.6024816  65.7357991  33.2398880  14.1696567  75.5471058  31.8281484
  13.9720967  74.9540419  31.1032551  13.6143231  75.2423268  32.5457423
  22.1493291  75.4394164  33.9476078  22.2041900  74.4868001  33.8718554
  21.3384493  75.5953603  34.4317376  23.2984484  79.3674287  25.1854361
  22.8603914  78.6510146  24.7259998  24.0394925  79.5950402  24.6239452
  20.0885650  74.0571224  31.7066456  19.2753516  74.3565395  32.1131649
  20.5844645  73.6626913  32.4240939  22.2394228  84.0528981  33.6400721
  22.1970407  84.2789827  32.7109253  23.1556927  83.8192356  33.7886522
  25.6859862  74.5213049  40.5381350  26.0409250  74.7484522  41.3975816
  26.3331993  74.8531425  39.9158606  31.4157599  77.6431484  31.2430679
  31.2775498  77.8333080  30.3151869  31.0593818  78.4050867  31.6998731
  19.5799725  71.6289580  37.3227691  20.2199105  71.4878339  36.6250655
  18.7477256  71.3424093  36.9466293  31.4426979  79.7108011  36.2541951
  31.8763485  79.6183301  37.1025005  32.1558559  79.6865512  35.6161967
  20.3560029  80.9292010  33.4362684  21.1500628  80.4342330  33.2345259
  19.6451722  80.4009873  33.0730389  25.1754874  83.3110106  37.7875052
  25.2291896  83.8801042  38.5552767  24.3069655  83.4811991  37.4229089
  16.6642793  75.0735092  29.5122437  15.7340381  75.0119547  29.7292399
  16.7600265  74.5511045  28.7159078  16.5828342  71.5989905  32.1000678
  16.8435159  72.5135238  31.9909839  17.4045514  71.1314347  32.2497291
  18.0553267  73.0127662  39.2699503  18.7276320  72.8045024  38.6212152
  17.2283054  72.8149748  38.8304735  32.3042528  79.7531712  38.7874836
  32.4978418  80.6577523  39.0334111  32.2043146  79.2939131  39.6213421
  23.9578839  69.6389603  41.2865164  23.3106754  70.3379552  41.1929640
  24.7279854  70.0725747  41.6541412  27.3657637  79.9038455  44.3615717
  27.2143143  79.6749007  43.4445801  27.3562316  80.8609056  44.3747062
  24.1342973  77.4770368  39.3461983  25.0635033  77.6281527  39.1730951
  23.7134003  77.5654388  38.4910630  22.9331305  81.5021032  37.1160521
  22.7942391  81.1339816  37.9886459  22.1445901  82.0168671  36.9444479
  23.5279457  86.6030128  28.4586058  23.7031213  86.1318172  29.2731680
  22.8412245  87.2295895  28.6867318  24.4836520  80.8802635  34.5049359
  24.1486353  80.8403405  35.4007009  23.9840466  80.2147351  34.0319769
  18.4580764  76.2870265  40.0301940  18.3200562  75.5550504  40.6313479
  19.3685688  76.1979165  39.7486128  27.4195712  78.2258669  24.7786418
  26.8024883  77.5005497  24.6819471  26.9512200  78.9868029  24.4353493
  21.0863065  75.9990224  39.5185620  21.7962683  75.3583416  39.4772238
  21.0432373  76.2503119  40.4411800  29.0749844  82.9357577  42.4392199
  29.0162390  82.2516798  41.7722782  29.4769362  83.6776567  41.9872825
  19.7991999  72.9855442  41.3381259  19.2629356  72.5346180  41.9902855
  19.2108707  73.1201351  40.5951723  18.0940542  89.7519491  35.2325918
  18.3337141  90.3838015  35.9104936  17.2509739  89.4007531  35.5191277
  19.2094258  72.4444093  23.9007723  18.3323724  72.3232894  23.5369969
  19.6852011  71.6530172  23.6486611  29.0767251  80.8997161  40.6706178
  28.1894030  80.5623083  40.7932577  29.6465802  80.1680193  40.9074944
  10.7296398  77.2321253  33.9949230  11.4167438  76.9182983  33.4070245
  10.5744527  78.1362618  33.7216481  15.5331120  72.1211450  38.4234254
  15.4489309  71.5137119  37.6884663  14.7113827  72.6120468  38.4243750
  22.6068404  85.5598614  37.6367422  22.5338576  86.3653585  38.1486726
  22.1645797  85.7590580  36.8115443  22.3958184  84.7970384  31.1470243
  21.6125706  85.3392064  31.2408468  23.0950929  85.3144363  31.5464484
  25.7054834  70.6065013  33.7904449  26.2023534  69.8534976  33.4705519
  24.9341815  70.6429330  33.2247658  33.5584591  76.3105379  35.4322740
  33.5474468  77.1930094  35.0616673  32.6901971  75.9576930  35.2377277
  25.0667088  85.4585448  39.7925580  25.7795060  86.0932913  39.7201482
  24.5757116  85.5549314  38.9765582  26.7884615  79.3636700  31.3642872
  25.8540893  79.4838163  31.1947576  26.9661283  78.4609167  31.1002882
  22.2889803  72.7482396  33.5176133  21.9187590  72.1953437  34.2057039
  22.7848895  72.1440530  32.9651133  30.1757166  75.2054020  31.8992906
  30.6417618  76.0382011  31.8253209  30.6264667  74.7399001  32.6038165
  20.1179001  83.2079891  40.6131151  20.8188461  83.8416374  40.7660545
  19.6474116  83.5494623  39.8526790  28.2433397  81.5497841  28.8979058
  28.5193241  81.4354436  29.8072932  27.3737896  81.1515326  28.8591231
  28.1473829  67.5734607  35.9383807  27.2336909  67.8038834  36.1066014
  28.5766930  67.6573051  36.7897840  27.9180287  75.7624499  38.4383701
  27.2651738  76.0100406  37.7836154  28.2960667  74.9488637  38.1046179
  24.8787461  85.7984192  32.5411872  25.0609856  84.9805848  33.0039624
  25.7020447  86.0151884  32.1036762  25.2129627  84.7252377  29.8026920
  25.7417393  84.2144832  29.1897082  25.4757846  84.4094907  30.6672453
  23.9667860  76.5044310  44.9249739  23.2908497  76.4038439  45.5952114
  24.7895494  76.3483523  45.3885736  15.7146719  82.7416246  37.5462254
  16.3000156  81.9959934  37.6790158  15.5171558  83.0520203  38.4298918
  18.5685375  85.7767494  32.5624696  17.8995750  86.2613621  32.0788736
  18.4298244  86.0236714  33.4768075  10.3064374  75.3121846  36.2666697
  10.3448474  74.7785437  37.0603815   9.8004667  74.7857052  35.6477674
  22.7090643  87.8111237  39.1607355  23.2608951  87.9742859  39.9256440
  23.0496837  88.4015675  38.4887379  17.6855136  70.1586387  39.7629239
  17.7496463  71.0201218  39.3506637  17.6222257  69.5460389  39.0301598
  17.1607409  72.2309520  43.4102274  17.7879448  71.8486597  44.0239798
  16.3035328  72.0123721  43.7757966  27.5601517  82.6372495  45.0156009
  28.1041421  83.2502453  44.5210964  26.9788362  83.1952073  45.5323022
  13.9372952  74.0385949  29.3420628  14.2326393  73.1296627  29.2887682
  13.0360987  74.0173688  29.0201631  25.8459030  85.7593213  36.1471037
  25.7210170  84.9582953  35.6381982  26.5038122  86.2539406  35.6585007
  17.4667199  72.1141945  35.3248177  16.7453784  72.7277913  35.1855650
  18.2560454  72.6499710  35.2464823  27.9093939  83.5602233  37.7750587
  26.9624274  83.4407584  37.7028914  28.2576712  82.6724731  37.8576848
  20.2693512  69.4496372  41.5988829  20.7927914  69.6958668  42.3615138
  20.0505845  70.2816406  41.1791966  15.6660793  71.7200046  29.4659954
  15.3373499  70.8397425  29.2835059  16.0200164  71.6647715  30.3536343
  24.9140372  83.3554949  33.9754939  24.7665335  82.4271656  34.1562509
  25.7393866  83.3775040  33.4912014  18.7802616  72.0073016  29.8335431
  19.1198689  72.5358937  29.1114040  19.2274737  72.3453422  30.6093998
  28.5174494  84.1783508  35.0619812  29.4421041  83.9726369  34.9244263
  28.3489797  83.9299909  35.9709153  21.4746057  70.3910067  39.2838499
  21.1342878  69.5917880  39.6859179  20.7685064  70.6911778  38.7115332
  22.1262529  67.4759379  37.7365822  22.9488598  67.0019857  37.6144713
  22.3700593  68.2549863  38.2364509  20.7670764  70.5047638  28.0328724
  21.4879126  70.8828890  27.5292441  20.1436068  71.2236514  28.1363702
  24.9101886  71.2092787  28.9687056  25.1265501  72.0917425  28.6675884
  24.4295954  70.8179000  28.2392698  19.6501108  74.1678500  35.5457801
  19.5045689  74.4818803  36.4382082  19.1726311  74.7863400  34.9928700
  21.5097491  71.1581048  35.5938690  21.4959059  70.2622141  35.2570988
  22.2269919  71.1651712  36.2276976  23.3623621  71.5918388  37.6391818
  23.1041399  72.5135459  37.6376148  22.8308662  71.1948823  38.3292282
  28.3069810  84.6969175  30.4181903  28.4806688  84.1315598  29.6655756
  28.7998701  85.4970070  30.2361393  14.1246770  76.7083844  38.4845462
  13.5800238  77.4843652  38.6165736  15.0026120  77.0554649  38.3264583
  20.9134387  70.0395428  30.8626261  21.0350298  69.1112074  31.0617148
  20.6236429  70.0534114  29.9504576  23.7825577  67.7250339  33.9992980
  23.8047274  67.7889672  33.0444960  24.1993636  66.8854847  34.1933487
  34.1609201  77.4605598  32.0372203  34.6040347  76.7112923  31.6391326
  33.2835712  77.4515734  31.6545935  29.2944983  84.0135940  27.5178802
  29.9895887  84.6342632  27.7366116  29.6368133  83.1631291  27.7931179
  14.9112792  75.8353741  41.3775619  14.1694528  75.9836376  41.9640249
  14.5905536  76.0962006  40.5142368  31.1936406  81.4635645  29.0466132
  31.7187730  81.8022918  28.3215452  31.1058758  80.5282660  28.8629267
  22.8556454  85.3769719  41.1756009  23.1643581  85.1318866  42.0478709
  23.6531937  85.5816357  40.6874879  22.8777067  87.5307628  33.4061385
  22.4382057  87.0384007  34.0994242  23.6285183  86.9880596  33.1653461
  15.3569406  83.7219169  33.4086014  16.1827425  83.4222941  33.0284657
  15.0063458  82.9526792  33.8575802  20.3250939  83.0745637  35.4783687
  19.7030948  82.4116342  35.1785915  20.9955806  83.1006769  34.7957335
  13.5578011  81.6405496  34.3674947  12.7209919  81.2127670  34.1858948
  13.5301656  81.8337939  35.3045738  20.3975466  71.5527425  45.0716193
  20.4463622  72.4289548  44.6893963  20.9397980  71.0104819  44.4987836
  30.8830312  82.0968549  44.3517330  30.0925856  82.0792688  43.8121830
  30.6463666  82.6356842  45.1066367  31.0028187  78.9461015  41.6650059
  31.0526192  78.7811023  42.6065582  30.8942110  78.0788274  41.2747940
  19.8864446  81.6249561  28.9542148  20.0352566  82.3085025  28.3008820
  20.6930889  81.6054651  29.4691603  28.2931949  74.9291943  42.9809366
  29.1941812  74.7898408  42.6893363  28.3679924  75.0946398  43.9207543
  22.6274755  72.3058798  41.8262552  21.7578064  72.5992364  41.5545140
  22.8634235  72.8899243  42.5469815  32.5046384  81.3657957  41.9092080
  32.2131192  81.7287937  42.7455541  31.8918515  80.6524965  41.7305412
  33.7042066  78.9310836  34.4294651  34.5388957  79.3700640  34.5932211
  33.8401195  78.4549490  33.6102896  30.7533572  76.4890571  40.3772138
  31.2287694  76.6818218  39.5690990  29.8299137  76.5449757  40.1315522
  17.6417079  77.6514738  29.9603217  17.3963121  76.7477068  30.1583427
  17.8112993  77.6531889  29.0182695  25.3313788  68.5238415  39.3427972
  25.8495732  69.2599442  39.0174461  24.9768921  68.8302408  40.1774731
  16.9112726  73.3843096  27.4589378  16.2181971  73.4587451  26.8029414
  16.6664478  72.6203440  27.9810895  25.5826383  64.9438697  34.8628869
  25.8628136  64.2761886  35.4889295  26.3676990  65.1367793  34.3503533
  23.3859851  84.1197691  26.4253895  22.8133818  84.7387878  25.9724367
  23.9592645  84.6697053  26.9593817  29.4535241  73.3656331  38.6100444
  30.4052664  73.4654429  38.6312668  29.2838691  72.5734600  39.1198528
  27.4749620  70.4511915  38.7959845  26.8799553  70.7316927  38.1006333
  27.1899317  70.9405815  39.5676586  26.6057111  84.4034841  27.5562477
  27.5387784  84.3380403  27.7595353  26.5180324  85.2391108  27.0977010
  29.2345128  83.7200712  24.5166425  29.1558759  83.3860575  25.4102183
  30.0554794  84.2122480  24.5157897  31.9323319  76.5862451  37.7242744
  31.8999639  75.6478452  37.9102427  32.5423942  76.6646488  36.9908568
  23.7706650  75.4558504  23.7669948  24.7165754  75.3264712  23.8358366
  23.3920895  74.7173166  24.2439376  32.0817807  73.3773494  37.7701027
  31.5656856  72.5931951  37.5830956  32.9657756  73.0492211  37.9347546
  29.7428534  67.1214510  33.7296839  29.5453355  66.8129598  34.6140171
  30.3528240  67.8476149  33.8594769  37.7499869  77.6478458  36.8648780
  38.4803257  77.3863746  37.4256484  37.1406814  76.9107180  36.9050848
  35.8315166  75.7886320  37.4623232  35.1048329  75.6542285  36.8539723
  35.4162453  76.0963149  38.2679950  23.6545342  79.5076250  45.2270605
  24.5748352  79.6854849  45.4210651  23.6194925  78.5632295  45.0750304
  21.9549567  73.3808480  23.7024833  21.0481022  73.0841593  23.7787546
  22.2325548  73.0838298  22.8359119  12.8727507  74.7014844  34.1523879
  12.5530291  73.8480152  33.8598253  12.3260935  74.9163422  34.9081847
  16.6507415  77.4177285  37.8693386  16.8693424  78.3494393  37.8881420
  17.0633189  77.0585259  38.6548190  23.5711632  67.9245370  29.8569074
  22.7612361  67.5792455  30.2324320  24.2596049  67.6152914  30.4456686
  25.5002181  67.0023417  31.4793371  26.0533219  67.4218870  32.1383394
  25.7372267  66.0759165  31.5216327  21.5235280  72.9910491  47.2596135
  21.4232007  73.9404848  47.1908226  21.3056822  72.6628729  46.3872205
  20.7248351  70.2395416  23.8436812  21.5867515  70.5650314  24.1032629
  20.9098696  69.4526912  23.3309878  12.7415767  78.3217755  36.1217001
  12.0479239  77.9071708  35.6086955  13.4888758  78.3638292  35.5250420
  28.8780988  69.1123942  30.9872035  28.2979657  69.7708746  30.6050087
  28.6116921  68.2901287  30.5759453  27.3284554  68.5129000  33.1893355
  27.8284333  68.6245534  32.3807674  27.9720162  68.2090053  33.8294164
  21.3866550  76.4207629  46.0761196  20.9033632  77.2207990  46.2825085
  21.4727489  76.4315574  45.1228640  14.6552510  78.2536009  33.9983016
  14.6323198  78.3523696  33.0464899  14.9653146  79.1001160  34.3200182
  17.3139888  80.3112164  38.1129630  18.2683141  80.2796106  38.0459562
  17.1152411  79.8502788  38.9279856  17.9039270  78.8813280  40.6800428
  18.7232159  79.3757359  40.7035265  18.1776077  77.9645248  40.6517995
  27.6605866  71.2724032  30.0428383  26.7731721  71.5573683  29.8248578
  28.0759855  71.1117796  29.1955660  31.0120402  71.2970553  33.7582723
  31.7880792  71.7867006  34.0307339  30.2868536  71.7228608  34.2154592
  33.4492961  72.0098173  34.8156663  34.0437451  71.7693909  34.1049971
  33.5219544  71.2905303  35.4430199  15.6690116  85.8531784  35.1299828
  15.5344584  85.0932184  34.5637826  15.2522179  86.5772683  34.6628617
  26.8049079  81.0368707  24.1376403  27.5084929  81.2418710  24.7534059
  26.0811728  81.6045469  24.4025487  27.6346890  76.7878568  30.2578673
  27.5782091  77.2447120  29.4186306  28.1875232  76.0269253  30.0801516
  31.4451696  72.5768300  31.0828793  31.1888630  72.1764936  31.9137001
  30.8204564  73.2912094  30.9578932  35.7564033  75.3164374  33.5900084
  35.1963591  75.3857563  34.3631646  35.1507537  75.1405358  32.8699581
  18.8259242  86.7501101  35.3418271  18.7091626  87.6946533  35.2396961
  18.0051688  86.4474662  35.7304070  28.7135777  81.4751236  26.1874863
  29.5481381  81.0432435  26.0052338  28.5520120  81.3033250  27.1151758
  28.3681669  77.9783350  27.5531203  28.3130473  77.8127621  26.6119647
  27.7427724  78.6859383  27.7093392  13.1574184  73.2151414  41.3792625
  13.8033048  72.7050368  41.8679850  12.9491335  73.9520096  41.9536050
  25.6827576  80.2832261  46.8784765  26.5518736  80.4572914  46.5171400
  25.2034328  81.1026678  46.7560495  21.6777794  67.4791459  27.1316521
  21.6656464  68.4233299  27.2884792  22.5701216  67.2961604  26.8375982
  19.8513756  87.4029363  38.5574199  20.7541003  87.4352973  38.8740694
  19.6251126  86.4729813  38.5720535  21.6067358  86.1560349  35.2184278
  20.6562989  86.1562211  35.1048650  21.9099845  85.4093084  34.7020312
  25.4929914  64.0734235  31.3862458  24.7262310  63.5192722  31.5319140
  25.9040619  64.1456104  32.2476609  17.4971675  70.3619031  45.4767639
  18.3603136  70.0055836  45.6870964  16.9237086  70.0232926  46.1643043
  37.3420052  91.9920887  36.2830040  37.9798462  91.8727635  35.5793380
  37.2240895  92.9401731  36.3417992  34.1509758  91.9448316  36.2191565
  33.8128270  91.8289380  35.3312100  35.0199526  91.5439481  36.1992571
  30.0096574  93.7983792  32.2088456  29.4461439  93.7073729  31.4404743
  29.8948969  92.9783696  32.6890948  34.6329541  93.0983167  42.1777770
  34.6218182  92.7035966  41.3058274  34.7950181  92.3649240  42.7711542
  27.5561006  95.2934984  35.0472676  28.3482298  94.9525808  34.6318975
  27.7957656  95.4029959  35.9674830  35.5896133  97.4654760  27.5202921
  34.9384112  98.0508840  27.1336934  36.3840495  97.9960955  27.5797958
  29.5151760  94.5543897  27.9190055  30.2882636  94.0072884  27.7802931
  29.8677159  95.4188146  28.1304516  31.3536802  95.8820279  41.1256954
  31.0626668  96.7865910  41.0103621  31.9893787  95.9236807  41.8401024
  32.2793009  93.2597128  37.7158314  32.8756581  93.0353150  37.0015277
  32.3367981  92.5181873  38.3183762  31.8518038  90.7136563  25.5508505
  32.1043558  90.1918084  24.7891968  30.9142597  90.5502708  25.6535189
  36.8961320  89.7172341  33.3583248  37.6824410  89.2991764  33.0073665
  37.1600025  90.6218433  33.5264897  37.0671398  95.1545192  28.0571905
  36.4317231  95.2279818  28.7692810  36.7368804  95.7438790  27.3790984
  42.2969747  89.6547574  34.2616227  43.0294919  89.0846791  34.4954056
  41.5409103  89.2669175  34.7022732  31.5714326  92.6164669  27.7532880
  31.4550584  91.9409572  28.4213964  31.6816586  92.1297043  26.9365033
  33.9145867  92.0774816  31.4579569  33.5504074  91.5505437  32.1692491
  34.7712983  91.6873285  31.2846055  39.8195168  83.3669149  38.7210835
  39.4878493  84.2364560  38.4972050  39.2240781  83.0505433  39.4004866
  33.5551354  87.1064716  26.4540918  33.7225757  87.9744952  26.8211389
  33.3648523  87.2691997  25.5302207  36.3126687  95.5681695  38.1206748
  36.0127410  96.4706733  38.0122555  35.9677747  95.3013878  38.9727901
  29.7639169  92.0195491  34.1543452  28.8389665  91.8871706  34.3621144
  30.0123582  92.7989711  34.6513395  39.7123831  88.0864235  35.8004185
  38.8040708  88.0179643  35.5062946  39.6611427  88.5636180  36.6286011
  33.5340575  89.5622373  27.4387584  33.4140200  90.0079424  28.2773065
  32.8393163  89.9107691  26.8801123  27.1247980  91.6628765  34.9887241
  27.2540361  91.9163244  35.9026653  26.4445431  92.2556473  34.6691897
  31.2947467 102.3326015  31.0877716  31.2171497 103.2833840  31.1666196
  30.6909111 101.9871887  31.7452642  33.7864697  89.5053880  43.7439083
  33.0098031  90.0647801  43.7341947  34.4255260  89.9910663  44.2653953
  41.5785478  86.2880673  37.5782059  40.9359858  86.5813206  36.9321854
  41.0740406  86.1733594  38.3835256  39.2325641  90.0343846  28.2667918
  40.1443497  90.2671233  28.0915616  38.7235288  90.6180891  27.7042997
  32.0411069  92.3139334  43.3057050  32.7825754  92.8524378  43.0291873
  31.3348055  92.9405622  43.4628601  37.5166409  94.4568474  41.9029211
  37.9249765  94.0150885  41.1583843  36.7943670  93.8821102  42.1563404
  33.8697479  89.3941081  39.2762768  34.7158674  89.8180495  39.4197417
  33.8096117  88.7374705  39.9701331  37.8395224  95.0169665  35.6581500
  37.2104086  95.1815379  34.9557568  37.4520886  95.4311274  36.4292464
  41.7184455  95.9524103  33.0125864  41.0335494  96.3323004  32.4622897
  41.8028305  96.5619429  33.7457811  37.0196924  87.0545449  40.9343942
  36.7757856  87.8087510  40.3978217  37.2956855  87.4330797  41.7691189
  38.9735387  93.5984062  39.6121207  39.1852282  94.2415822  38.9355588
  38.9265135  92.7646378  39.1443137  36.5761616  86.2101882  36.5157779
  35.7146095  86.5083136  36.8074517  36.6024051  86.4272281  35.5838812
  33.3923185  94.7544073  32.9231585  33.8561531  95.0331776  32.1336208
  33.1279983  93.8527517  32.7404676  30.2847266  94.3015554  35.8611348
  30.8548624  94.7302823  35.2228833  30.8755378  94.0198139  36.5595534
  32.3292071  90.8767225  29.7321150  33.0316115  91.3288269  30.1995077
  31.9972700  90.2351044  30.3601043  30.7772433  89.4678982  44.1072360
  30.1471094  90.1495263  44.3407756  30.6708521  89.3562064  43.1625498
  26.0717405  89.1350778  35.0338284  25.2816459  89.3908306  34.5578394
  26.5628653  89.9499116  35.1390324  40.0881215  96.4756017  37.7843565
  40.9098659  96.0736204  37.5026246  40.0843618  96.3724251  38.7359680
  28.0232151  89.4995357  31.9921760  27.2263314  89.6114051  32.5105256
  27.7957743  89.8382009  31.1262651  33.8537818  96.0240060  39.9404275
  33.9182251  96.4860468  40.7762447  33.1448742  95.3937425  40.0686585
  24.3555108  89.3881268  37.4653275  24.6063147  90.2728278  37.7310850
  24.8914657  89.2085870  36.6928366  48.1787208  92.8194766  34.1328536
  47.4250916  92.2502164  33.9772540  48.3134749  92.7857430  35.0799171
  33.5685836  97.6908168  29.8083255  33.4331511  98.5359704  30.2368103
  34.1095649  97.8927446  29.0449189  30.0553176  83.7699748  46.4697611
  29.6620121  83.2165946  47.1445255  30.8719316  84.0810326  46.8604128
  27.0215233  95.2083606  30.3811180  27.5339754  96.0026856  30.5316745
  27.6737946  94.5109896  30.3144782  28.8310118  98.3249362  32.4633934
  29.0076746  99.2467327  32.2754918  29.6266952  98.0107781  32.8928313
  32.9721137  85.1857627  44.0617867  33.7130850  85.7864780  43.9822330
  33.2039060  84.4435265  43.5035910  28.1162475  90.3713994  42.3396097
  28.0015990  89.4699251  42.6403196  27.2606992  90.6177691  41.9880913
  35.1954312  98.3131734  43.9383597  34.7518167  97.5268113  43.6204502
  35.8571526  98.5010885  43.2727488  29.9541434  99.8427536  38.4644276
  30.5048859  99.7144599  37.6921270  29.1152910 100.1422425  38.1139169
  37.2935551  98.5934534  41.9664999  37.2754026  99.4143415  41.4745268
  38.2155471  98.4688610  42.1915140  33.7508605  96.1078664  42.8088507
  34.2836941  95.3466952  42.5787815  33.2222686  95.8152316  43.5512662
  36.9178300  81.2138730  38.3382149  36.5742569  82.1040371  38.2621259
  37.2857262  81.0240387  37.4751734  24.9864150  93.5372260  31.1570751
  25.8239372  93.9469269  30.9404459  25.1642418  92.5971702  31.1270945
  36.8828582  91.2047341  26.8454584  36.3675206  91.9751946  27.0842971
  36.6105891  90.5312477  27.4687645  34.4675693  86.0497042  31.9039822
  33.6117290  85.6603892  31.7245461  34.8802645  86.1289002  31.0439608
  35.9974840  83.5843385  36.3031382  35.4939636  83.5473520  35.4899187
  36.2905447  84.4936128  36.3628039  32.2417726  83.6682115  35.3097564
  33.1070723  83.4724923  34.9503453  32.3095235  83.4392466  36.2366921
  41.8562856  93.9579696  28.7807757  41.0792299  93.6190855  28.3362920
  42.5354337  93.9632319  28.1062723  36.6714886  89.0774433  28.6714365
  36.3665021  89.3920582  29.5224508  37.6245328  89.1555853  28.7141698
  35.1161317  95.2364656  30.3207319  34.5882679  94.5017416  30.0080557
  34.6148820  96.0139333  30.0747287  40.0954163  93.4313677  35.4374365
  39.4377838  94.1212938  35.5254494  40.8994563  93.8210109  35.7808352
  29.8480045  85.8984323  32.6813931  30.4223797  85.6759504  31.9487124
  30.4351027  85.9673017  33.4342532  38.9059622  91.7858049  33.4878307
  39.4191504  92.4188041  33.9900017  39.5560846  91.1859245  33.1221667
  30.1749632  87.9288784  26.7009816  29.3386944  88.2663470  27.0219091
  30.0354402  87.7937763  25.7636953  32.1502713  82.7725571  31.4089000
  31.4967125  82.4574589  30.7845615  32.1083187  82.1501312  32.1348823
  33.2613918  93.0544867  23.3242292  32.3540979  92.8234120  23.5233441
  33.7584950  92.2582486  23.5116274  36.1681996 101.7642374  26.2438978
  35.4943695 102.0674071  26.8523936  36.5547818 102.5671454  25.8944435
  35.3840453  89.2607505  35.7336648  34.4663014  89.4822452  35.5758336
  35.8000597  89.3353815  34.8748355  36.1675501  90.6598921  30.8639328
  36.9147320  91.1720318  30.5546450  36.4367090  90.3382973  31.7243722
  34.4402151  93.1557461  27.8466282  33.5313370  92.8716494  27.9438752
  34.4697235  93.5756540  26.9869589  39.6721418  96.7664051  31.6157450
  39.2183746  95.9254961  31.6722640  39.0415385  97.4025449  31.9532230
  38.6154338  87.6956037  32.8458117  37.8777095  87.1833423  33.1768360
  38.8681112  87.2556419  32.0341394  38.1154358  98.6040548  32.5507268
  38.4077332  99.1645605  31.8319634  38.6252978  98.8969109  33.3060427
  38.7165965  80.4732289  33.4399887  39.0224842  79.6129652  33.1525802
  39.4418570  81.0649909  33.2398880  25.0090321  90.8762976  31.8281484
  24.8114721  90.2832336  31.1032551  24.4536985  90.5715186  32.5457423
  32.9887045  90.7686082  33.9476078  33.0435655  89.8159918  33.8718554
  32.1778247  90.9245521  34.4317376  34.1378239  94.6966205  25.1854361
  33.6997669  93.9802064  24.7259998  34.8788680  94.9242320  24.6239452
  30.9279405  89.3863142  31.7066456  30.1147270  89.6857312  32.1131649
  31.4238399  88.9918831  32.4240939  33.0787983  99.3820899  33.6400721
  33.0364162  99.6081745  32.7109253  33.9950682  99.1484273  33.7886522
  36.5253617  89.8504966  40.5381350  36.8803004  90.0776439  41.3975816
  37.1725748  90.1823343  39.9158606  42.2551354  92.9723402  31.2430679
  42.1169252  93.1624998  30.3151869  41.8987572  93.7342785  31.6998731
  30.4193480  86.9581497  37.3227691  31.0592859  86.8170256  36.6250655
  29.5871010  86.6716011  36.9466293  42.2820733  95.0399929  36.2541951
  42.7157240  94.9475218  37.1025005  42.9952314  95.0157430  35.6161967
  31.1953784  96.2583928  33.4362684  31.9894382  95.7634248  33.2345259
  30.4845476  95.7301791  33.0730389  36.0148628  98.6402023  37.7875052
  36.0685650  99.2092960  38.5552767  35.1463409  98.8103908  37.4229089
  27.5036547  90.4027009  29.5122437  26.5734135  90.3411465  29.7292399
  27.5994019  89.8802962  28.7159078  27.4222096  86.9281822  32.1000678
  27.6828913  87.8427156  31.9909839  28.2439268  86.4606265  32.2497291
  28.8947021  88.3419579  39.2699503  29.5670075  88.1336942  38.6212152
  28.0676808  88.1441665  38.8304735  43.1436283  95.0823630  38.7874836
  43.3372173  95.9869440  39.0334111  43.0436901  94.6231049  39.6213421
  34.7972593  84.9681520  41.2865164  34.1500509  85.6671470  41.1929640
  35.5673609  85.4017664  41.6541412  38.2051391  95.2330373  44.3615717
  38.0536898  95.0040924  43.4445801  38.1956071  96.1900974  44.3747062
  34.9736728  92.8062285  39.3461983  35.9028788  92.9573445  39.1730951
  34.5527758  92.8946306  38.4910630  33.7725060  96.8312950  37.1160521
  33.6336145  96.4631734  37.9886459  32.9839656  97.3460589  36.9444479
  34.3673212 101.9322046  28.4586058  34.5424967 101.4610089  29.2731680
  33.6806000 102.5587812  28.6867318  35.3230275  96.2094552  34.5049359
  34.9880107  96.1695322  35.4007009  34.8234220  95.5439268  34.0319769
  29.2974519  91.6162182  40.0301940  29.1594317  90.8842421  40.6313479
  30.2079442  91.5271083  39.7486128  38.2589466  93.5550587  24.7786418
  37.6418637  92.8297415  24.6819471  37.7905955  94.3159947  24.4353493
  31.9256819  91.3282142  39.5185620  32.6356438  90.6875334  39.4772238
  31.8826128  91.5795037  40.4411800  39.9143598  98.2649495  42.4392199
  39.8556144  97.5808715  41.7722782  40.3163116  99.0068485  41.9872825
  30.6385753  88.3147360  41.3381259  30.1023110  87.8638098  41.9902855
  30.0502462  88.4493268  40.5951723  28.9334297 105.0811409  35.2325918
  29.1730895 105.7129933  35.9104936  28.0903493 104.7299449  35.5191277
  30.0488012  87.7736011  23.9007723  29.1717479  87.6524812  23.5369969
  30.5245765  86.9822089  23.6486611  39.9161005  96.2289079  40.6706178
  39.0287784  95.8915001  40.7932577  40.4859556  95.4972110  40.9074944
  21.5690152  92.5613171  33.9949230  22.2561192  92.2474901  33.4070245
  21.4138281  93.4654535  33.7216481  26.3724875  87.4503367  38.4234254
  26.2883063  86.8429037  37.6884663  25.5507581  87.9412386  38.4243750
  33.4462159 100.8890531  37.6367422  33.3732330 101.6945503  38.1486726
  33.0039552 101.0882497  36.8115443  33.2351938 100.1262301  31.1470243
  32.4519460 100.6683982  31.2408468  33.9344684 100.6436281  31.5464484
  36.5448588  85.9356931  33.7904449  37.0417288  85.1826893  33.4705519
  35.7735570  85.9721248  33.2247658  44.3978346  91.6397296  35.4322740
  44.3868222  92.5222012  35.0616673  43.5295725  91.2868847  35.2377277
  35.9060842 100.7877365  39.7925580  36.6188814 101.4224830  39.7201482
  35.4150871 100.8841231  38.9765582  37.6278369  94.6928618  31.3642872
  36.6934648  94.8130081  31.1947576  37.8055038  93.7901085  31.1002882
  33.1283557  88.0774314  33.5176133  32.7581345  87.5245354  34.2057039
  33.6242650  87.4732447  32.9651133  41.0150921  90.5345937  31.8992906
  41.4811373  91.3673929  31.8253209  41.4658421  90.0690919  32.6038165
  30.9572756  98.5371809  40.6131151  31.6582215  99.1708292  40.7660545
  30.4867871  98.8786540  39.8526790  39.0827152  96.8789759  28.8979058
  39.3586996  96.7646353  29.8072932  38.2131650  96.4807244  28.8591231
  38.9867583  82.9026524  35.9383807  38.0730663  83.1330751  36.1066014
  39.4160685  82.9864968  36.7897840  38.7574042  91.0916416  38.4383701
  38.1045492  91.3392324  37.7836154  39.1354422  90.2780555  38.1046179
  35.7181216 101.1276110  32.5411872  35.9003610 100.3097765  33.0039624
  36.5414202 101.3443802  32.1036762  36.0523381 100.0544295  29.8026920
  36.5811148  99.5436749  29.1897082  36.3151601  99.7386825  30.6672453
  34.8061615  91.8336227  44.9249739  34.1302252  91.7330357  45.5952114
  35.6289249  91.6775441  45.3885736  26.5540474  98.0708164  37.5462254
  27.1393911  97.3251852  37.6790158  26.3565312  98.3812121  38.4298918
  29.4079129 101.1059411  32.5624696  28.7389504 101.5905539  32.0788736
  29.2691999 101.3528632  33.4768075  21.1458129  90.6413764  36.2666697
  21.1842228  90.1077355  37.0603815  20.6398421  90.1148970  35.6477674
  33.5484398 103.1403155  39.1607355  34.1002706 103.3034776  39.9256440
  33.8890591 103.7307593  38.4887379  28.5248891  85.4878305  39.7629239
  28.5890217  86.3493136  39.3506637  28.4616011  84.8752306  39.0301598
  28.0001163  87.5601437  43.4102274  28.6273202  87.1778514  44.0239798
  27.1429082  87.3415639  43.7757966  38.3995272  97.9664412  45.0156009
  38.9435176  98.5794371  44.5210964  37.8182117  98.5243991  45.5323022
  24.7766706  89.3677866  29.3420628  25.0720147  88.4588545  29.2887682
  23.8754742  89.3465606  29.0201631  36.6852785 101.0885130  36.1471037
  36.5603924 100.2874870  35.6381982  37.3431876 101.5831324  35.6585007
  28.3060953  87.4433863  35.3248177  27.5847539  88.0569831  35.1855650
  29.0954209  87.9791628  35.2464823  38.7487693  98.8894150  37.7750587
  37.8018029  98.7699502  37.7028914  39.0970466  98.0016648  37.8576848
  31.1087267  84.7788289  41.5988829  31.6321668  85.0250586  42.3615138
  30.8899600  85.6108324  41.1791966  26.5054548  87.0491964  29.4659954
  26.1767254  86.1689343  29.2835059  26.8593918  86.9939633  30.3536343
  35.7534127  98.6846867  33.9754939  35.6059089  97.7563574  34.1562509
  36.5787620  98.7066957  33.4912014  29.6196371  87.3364934  29.8335431
  29.9592443  87.8650855  29.1114040  30.0668491  87.6745340  30.6093998
  39.3568248  99.5075425  35.0619812  40.2814796  99.3018287  34.9244263
  39.1883552  99.2591827  35.9709153  32.3139812  85.7201984  39.2838499
  31.9736632  84.9209798  39.6859179  31.6078818  86.0203695  38.7115332
  32.9656284  82.8051297  37.7365822  33.7882353  82.3311775  37.6144713
  33.2094347  83.5841781  38.2364509  31.6064518  85.8339555  28.0328724
  32.3272881  86.2120808  27.5292441  30.9829822  86.5528432  28.1363702
  35.7495641  86.5384704  28.9687056  35.9659255  87.4209342  28.6675884
  35.2689708  86.1470918  28.2392698  30.4894862  89.4970418  35.5457801
  30.3439443  89.8110721  36.4382082  30.0120066  90.1155318  34.9928700
  32.3491245  86.4872966  35.5938690  32.3352814  85.5914059  35.2570988
  33.0663673  86.4943629  36.2276976  34.2017376  86.9210306  37.6391818
  33.9435154  87.8427376  37.6376148  33.6702416  86.5240740  38.3292282
  39.1463565 100.0261093  30.4181903  39.3200442  99.4607515  29.6655756
  39.6392456 100.8261988  30.2361393  24.9640524  92.0375762  38.4845462
  24.4193993  92.8135570  38.6165736  25.8419874  92.3846566  38.3264583
  31.7528141  85.3687346  30.8626261  31.8744052  84.4403992  31.0617148
  31.4630183  85.3826032  29.9504576  34.6219332  83.0542256  33.9992980
  34.6441028  83.1181589  33.0444960  35.0387391  82.2146765  34.1933487
  45.0002956  92.7897516  32.0372203  45.4434102  92.0404841  31.6391326
  44.1229466  92.7807652  31.6545935  40.1338737  99.3427857  27.5178802
  40.8289642  99.9634550  27.7366116  40.4761887  98.4923208  27.7931179
  25.7506546  91.1645658  41.3775619  25.0088282  91.3128294  41.9640249
  25.4299291  91.4253924  40.5142368  42.0330160  96.7927563  29.0466132
  42.5581484  97.1314836  28.3215452  41.9452513  95.8574578  28.8629267
  33.6950209 100.7061636  41.1756009  34.0037335 100.4610783  42.0478709
  34.4925691 100.9108275  40.6874879  33.7170821 102.8599546  33.4061385
  33.2775811 102.3675925  34.0994242  34.4678938 102.3172514  33.1653461
  26.1963160  99.0511087  33.4086014  27.0221180  98.7514859  33.0284657
  25.8457212  98.2818709  33.8575802  31.1644693  98.4037555  35.4783687
  30.5424702  97.7408260  35.1785915  31.8349560  98.4298687  34.7957335
  24.3971765  96.9697413  34.3674947  23.5603673  96.5419588  34.1858948
  24.3695410  97.1629857  35.3045738  31.2369221  86.8819343  45.0716193
  31.2857376  87.7581466  44.6893963  31.7791735  86.3396736  44.4987836
  41.7224066  97.4260466  44.3517330  40.9319610  97.4084605  43.8121830
  41.4857421  97.9648760  45.1066367  41.8421941  94.2752933  41.6650059
  41.8919946  94.1102940  42.6065582  41.7335865  93.4080192  41.2747940
  30.7258200  96.9541478  28.9542148  30.8746320  97.6376943  28.3008820
  31.5324644  96.9346569  29.4691603  39.1325704  90.2583861  42.9809366
  40.0335567  90.1190326  42.6893363  39.2073678  90.4238316  43.9207543
  33.4668509  87.6350716  41.8262552  32.5971819  87.9284282  41.5545140
  33.7027989  88.2191161  42.5469815  43.3440138  96.6949874  41.9092080
  43.0524947  97.0579855  42.7455541  42.7312270  95.9816883  41.7305412
  44.5435821  94.2602754  34.4294651  45.3782712  94.6992558  34.5932211
  44.6794949  93.7841407  33.6102896  41.5927326  91.8182489  40.3772138
  42.0681448  92.0110135  39.5690990  40.6692892  91.8741675  40.1315522
  28.4810833  92.9806656  29.9603217  28.2356875  92.0768986  30.1583427
  28.6506748  92.9823807  29.0182695  36.1707543  83.8530333  39.3427972
  36.6889487  84.5891359  39.0174461  35.8162676  84.1594326  40.1774731
  27.7506481  88.7135014  27.4589378  27.0575726  88.7879369  26.8029414
  27.5058233  87.9495357  27.9810895  36.4220137  80.2730615  34.8628869
  36.7021891  79.6053804  35.4889295  37.2070744  80.4659711  34.3503533
  34.2253606  99.4489609  26.4253895  33.6527573 100.0679796  25.9724367
  34.7986399  99.9988971  26.9593817  40.2928995  88.6948249  38.6100444
  41.2446418  88.7946347  38.6312668  40.1232446  87.9026518  39.1198528
  38.3143375  85.7803832  38.7959845  37.7193307  86.0608845  38.1006333
  38.0293072  86.2697733  39.5676586  37.4450865  99.7326759  27.5562477
  38.3781539  99.6672321  27.7595353  37.3574078 100.5683026  27.0977010
  40.0738882  99.0492629  24.5166425  39.9952514  98.7152493  25.4102183
  40.8948549  99.5414397  24.5157897  42.7717073  91.9154369  37.7242744
  42.7393393  90.9770369  37.9102427  43.3817697  91.9938405  36.9908568
  34.6100404  90.7850422  23.7669948  35.5559509  90.6556630  23.8358366
  34.2314649  90.0465084  24.2439376  42.9211562  88.7065412  37.7701027
  42.4050610  87.9223869  37.5830956  43.8051510  88.3784129  37.9347546
  40.5822289  82.4506428  33.7296839  40.3847110  82.1421516  34.6140171
  41.1921994  83.1768067  33.8594769  48.5893623  92.9770376  36.8648780
  49.3197012  92.7155664  37.4256484  47.9800569  92.2399097  36.9050848
  46.6708920  91.1178238  37.4623232  45.9442084  90.9834203  36.8539723
  46.2556207  91.4255067  38.2679950  34.4939097  94.8368168  45.2270605
  35.4142106  95.0146767  45.4210651  34.4588680  93.8924213  45.0750304
  32.7943321  88.7100398  23.7024833  31.8874777  88.4133511  23.7787546
  33.0719302  88.4130216  22.8359119  23.7121262  90.0306761  34.1523879
  23.3924046  89.1772070  33.8598253  23.1654690  90.2455340  34.9081847
  27.4901169  92.7469202  37.8693386  27.7087179  93.6786310  37.8881420
  27.9026943  92.3877177  38.6548190  34.4105387  83.2537288  29.8569074
  33.6006115  82.9084373  30.2324320  35.0989804  82.9444832  30.4456686
  36.3395935  82.3315335  31.4793371  36.8926974  82.7510788  32.1383394
  36.5766022  81.4051083  31.5216327  32.3629035  88.3202408  47.2596135
  32.2625761  89.2696765  47.1908226  32.1450577  87.9920647  46.3872205
  31.5642106  85.5687333  23.8436812  32.4261270  85.8942232  24.1032629
  31.7492450  84.7818829  23.3309878  23.5809522  93.6509673  36.1217001
  22.8872993  93.2363626  35.6086955  24.3282513  93.6930209  35.5250420
  39.7174742  84.4415860  30.9872035  39.1373411  85.1000664  30.6050087
  39.4510675  83.6193204  30.5759453  38.1678309  83.8420917  33.1893355
  38.6678087  83.9537452  32.3807674  38.8113917  83.5381970  33.8294164
  32.2260305  91.7499547  46.0761196  31.7427386  92.5499907  46.2825085
  32.3121244  91.7607492  45.1228640  25.4946264  93.5827927  33.9983016
  25.4716952  93.6815614  33.0464899  25.8046901  94.4293078  34.3200182
  28.1533642  95.6404082  38.1129630  29.1076896  95.6088024  38.0459562
  27.9546166  95.1794706  38.9279856  28.7433024  94.2105198  40.6800428
  29.5625913  94.7049276  40.7035265  29.0169832  93.2937166  40.6517995
  38.4999620  86.6015950  30.0428383  37.6125475  86.8865601  29.8248578
  38.9153609  86.4409714  29.1955660  41.8514157  86.6262471  33.7582723
  42.6274547  87.1158924  34.0307339  41.1262291  87.0520525  34.2154592
  44.2886715  87.3390090  34.8156663  44.8831206  87.0985826  34.1049971
  44.3613299  86.6197221  35.4430199  26.5083871 101.1823701  35.1299828
  26.3738339 100.4224102  34.5637826  26.0915933 101.9064601  34.6628617
  37.6442834  96.3660625  24.1376403  38.3478684  96.5710627  24.7534059
  36.9205483  96.9337387  24.4025487  38.4740644  92.1170486  30.2578673
  38.4175846  92.5739037  29.4186306  39.0268987  91.3561171  30.0801516
  42.2845450  87.9060218  31.0828793  42.0282384  87.5056854  31.9137001
  41.6598318  88.6204012  30.9578932  46.5957788  90.6456291  33.5900084
  46.0357346  90.7149480  34.3631646  45.9901291  90.4697276  32.8699581
  29.6652997 102.0793018  35.3418271  29.5485381 103.0238451  35.2396961
  28.8445443 101.7766580  35.7304070  39.5529531  96.8043154  26.1874863
  40.3875135  96.3724352  26.0052338  39.3913874  96.6325168  27.1151758
  39.2075423  93.3075267  27.5531203  39.1524227  93.1419539  26.6119647
  38.5821479  94.0151300  27.7093392  23.9967938  88.5443332  41.3792625
  24.6426802  88.0342286  41.8679850  23.7885090  89.2812013  41.9536050
  36.5221331  95.6124179  46.8784765  37.3912490  95.7864831  46.5171400
  36.0428082  96.4318596  46.7560495  32.5171549  82.8083376  27.1316521
  32.5050219  83.7525216  27.2884792  33.4094971  82.6253522  26.8375982
  30.6907511 102.7321280  38.5574199  31.5934758 102.7644890  38.8740694
  30.4644881 101.8021731  38.5720535  32.4461113 101.4852267  35.2184278
  31.4956744 101.4854128  35.1048650  32.7493599 100.7385001  34.7020312
  36.3323668  79.4026153  31.3862458  35.5656064  78.8484640  31.5319140
  36.7434373  79.4748022  32.2476609  28.3365429  85.6910949  45.4767639
  29.1996891  85.3347754  45.6870964  27.7630840  85.3524844  46.1643043
  48.1813806 107.3212805  36.2830040  48.8192216 107.2019552  35.5793380
  48.0634649 108.2693649  36.3417992  44.9903513 107.2740233  36.2191565
  44.6522024 107.1581298  35.3312100  45.8593281 106.8731398  36.1992571
  40.8490328 109.1275710  32.2088456  40.2855193 109.0365647  31.4404743
  40.7342723 108.3075614  32.6890948  45.4723296 108.4275085  42.1777770
  45.4611936 108.0327883  41.3058274  45.6343935 107.6941158  42.7711542
  38.3954760 110.6226901  35.0472676  39.1876052 110.2817726  34.6318975
  38.6351410 110.7321876  35.9674830  46.4289887 112.7946677  27.5202921
  45.7777867 113.3800758  27.1336934  47.2234250 113.3252872  27.5797958
  40.3545514 109.8835814  27.9190055  41.1276390 109.3364802  27.7802931
  40.7070913 110.7480064  28.1304516  42.1930557 111.2112197  41.1256954
  41.9020423 112.1157828  41.0103621  42.8287541 111.2528724  41.8401024
  43.1186764 108.5889045  37.7158314  43.7150336 108.3645068  37.0015277
  43.1761735 107.8473791  38.3183762  42.6911792 106.0428481  25.5508505
  42.9437313 105.5210002  24.7891968  41.7536351 105.8794626  25.6535189
  47.7355075 105.0464259  33.3583248  48.5218164 104.6283682  33.0073665
  47.9993779 105.9510351  33.5264897  47.9065152 110.4837109  28.0571905
  47.2710985 110.5571736  28.7692810  47.5762559 111.0730708  27.3790984
  53.1363502 104.9839492  34.2616227  53.8688674 104.4138709  34.4954056
  52.3802858 104.5961093  34.7022732  42.4108081 107.9456587  27.7532880
  42.2944339 107.2701490  28.4213964  42.5210341 107.4588960  26.9365033
  44.7539622 107.4066734  31.4579569  44.3897829 106.8797355  32.1692491
  45.6106738 107.0165203  31.2846055  50.6588922  98.6961066  38.7210835
  50.3272247  99.5656477  38.4972050  50.0634536  98.3797350  39.4004866
  44.3945109 102.4356633  26.4540918  44.5619511 103.3036870  26.8211389
  44.2042278 102.5983915  25.5302207  47.1520442 110.8973612  38.1206748
  46.8521165 111.7998651  38.0122555  46.8071501 110.6305795  38.9727901
  40.6032923 107.3487409  34.1543452  39.6783420 107.2163623  34.3621144
  40.8517337 108.1281628  34.6513395  50.5517586 103.4156152  35.8004185
  49.6434463 103.3471561  35.5062946  50.5005181 103.8928097  36.6286011
  44.3734330 104.8914291  27.4387584  44.2533955 105.3371342  28.2773065
  43.6786918 105.2399609  26.8801123  37.9641734 106.9920683  34.9887241
  38.0934116 107.2455162  35.9026653  37.2839186 107.5848391  34.6691897
  42.1341222 117.6617933  31.0877716  42.0565251 118.6125758  31.1666196
  41.5302865 117.3163805  31.7452642  44.6258451 104.8345798  43.7439083
  43.8491785 105.3939718  43.7341947  45.2649014 105.3202581  44.2653953
  52.4179232 101.6172591  37.5782059  51.7753612 101.9105124  36.9321854
  51.9134161 101.5025511  38.3835256  50.0719396 105.3635764  28.2667918
  50.9837252 105.5963151  28.0915616  49.5629043 105.9472808  27.7042997
  42.8804824 107.6431251  43.3057050  43.6219508 108.1816295  43.0291873
  42.1741809 108.2697540  43.4628601  48.3560163 109.7860392  41.9029211
  48.7643519 109.3442802  41.1583843  47.6337425 109.2113019  42.1563404
  44.7091233 104.7232999  39.2762768  45.5552429 105.1472412  39.4197417
  44.6489871 104.0666623  39.9701331  48.6788978 110.3461582  35.6581500
  48.0497840 110.5107297  34.9557568  48.2914640 110.7603192  36.4292464
  52.5578210 111.2816020  33.0125864  51.8729248 111.6614922  32.4622897
  52.6422059 111.8911347  33.7457811  47.8590679 102.3837367  40.9343942
  47.6151611 103.1379428  40.3978217  48.1350609 102.7622715  41.7691189
  49.8129142 108.9275979  39.6121207  50.0246037 109.5707739  38.9355588
  49.7658890 108.0938296  39.1443137  47.4155370 101.5393800  36.5157779
  46.5539850 101.8375054  36.8074517  47.4417805 101.7564199  35.5838812
  44.2316940 110.0835991  32.9231585  44.6955285 110.3623694  32.1336208
  43.9673738 109.1819435  32.7404676  41.1241021 109.6307472  35.8611348
  41.6942378 110.0594740  35.2228833  41.7149133 109.3490057  36.5595534
  43.1685826 106.2059143  29.7321150  43.8709869 106.6580187  30.1995077
  42.8366454 105.5642962  30.3601043  41.6166187 104.7970900  44.1072360
  40.9864848 105.4787180  44.3407756  41.5102275 104.6853981  43.1625498
  36.9111160 104.4642696  35.0338284  36.1210214 104.7200224  34.5578394
  37.4022407 105.2791033  35.1390324  50.9274969 111.8047935  37.7843565
  51.7492413 111.4028122  37.5026246  50.9237372 111.7016169  38.7359680
  38.8625905 104.8287275  31.9921760  38.0657069 104.9405969  32.5105256
  38.6351497 105.1673927  31.1262651  44.6931573 111.3531978  39.9404275
  44.7576005 111.8152385  40.7762447  43.9842497 110.7229343  40.0686585
  35.1948863 104.7173186  37.4653275  35.4456901 105.6020196  37.7310850
  35.7308411 104.5377788  36.6928366  59.0180963 108.1486683  34.1328536
  58.2644671 107.5794081  33.9772540  59.1528504 108.1149348  35.0799171
  44.4079591 113.0200086  29.8083255  44.2725265 113.8651621  30.2368103
  44.9489403 113.2219363  29.0449189  40.8946930  99.0991665  46.4697611
  40.5013876  98.5457864  47.1445255  41.7113071  99.4102244  46.8604128
  37.8608988 110.5375524  30.3811180  38.3733509 111.3318774  30.5316745
  38.5131701 109.8401814  30.3144782  39.6703873 113.6541280  32.4633934
  39.8470501 114.5759245  32.2754918  40.4660706 113.3399699  32.8928313
  43.8114891 100.5149545  44.0617867  44.5524605 101.1156698  43.9822330
  44.0432814  99.7727182  43.5035910  38.9556229 105.7005912  42.3396097
  38.8409744 104.7991169  42.6403196  38.1000747 105.9469609  41.9880913
  46.0348067 113.6423652  43.9383597  45.5911921 112.8560031  43.6204502
  46.6965281 113.8302803  43.2727488  40.7935188 115.1719454  38.4644276
  41.3442613 115.0436517  37.6921270  39.9546664 115.4714343  38.1139169
  48.1329305 113.9226452  41.9664999  48.1147780 114.7435333  41.4745268
  49.0549225 113.7980527  42.1915140  44.5902359 111.4370581  42.8088507
  45.1230696 110.6758870  42.5787815  44.0616440 111.1444233  43.5512662
  47.7572054  96.5430647  38.3382149  47.4136324  97.4332289  38.2621259
  48.1251017  96.3532305  37.4751734  35.8257905 108.8664178  31.1570751
  36.6633127 109.2761186  30.9404459  36.0036172 107.9263620  31.1270945
  47.7222337 106.5339259  26.8454584  47.2068960 107.3043863  27.0842971
  47.4499645 105.8604395  27.4687645  45.3069448 101.3788959  31.9039822
  44.4511044 100.9895810  31.7245461  45.7196400 101.4580920  31.0439608
  46.8368595  98.9135303  36.3031382  46.3333390  98.8765438  35.4899187
  47.1299201  99.8228045  36.3628039  43.0811480  98.9974032  35.3097564
  43.9464477  98.8016841  34.9503453  43.1488989  98.7684384  36.2366921
  52.6956611 109.2871613  28.7807757  51.9186054 108.9482773  28.3362920
  53.3748092 109.2924236  28.1062723  47.5108640 104.4066351  28.6714365
  47.2058776 104.7212500  29.5224508  48.4639082 104.4847771  28.7141698
  45.9555072 110.5656574  30.3207319  45.4276433 109.8309334  30.0080557
  45.4542575 111.3431250  30.0747287  50.9347918 108.7605594  35.4374365
  50.2771592 109.4504856  35.5254494  51.7388317 109.1502026  35.7808352
  40.6873799 101.2276240  32.6813931  41.2617551 101.0051422  31.9487124
  41.2744782 101.2964935  33.4342532  49.7453377 107.1149967  33.4878307
  50.2585258 107.7479959  33.9900017  50.3954601 106.5151163  33.1221667
  41.0143387 103.2580701  26.7009816  40.1780699 103.5955388  27.0219091
  40.8748156 103.1229681  25.7636953  42.9896467  98.1017489  31.4089000
  42.3360880  97.7866506  30.7845615  42.9476941  97.4793230  32.1348823
  44.1007672 108.3836784  23.3242292  43.1934734 108.1526038  23.5233441
  44.5978704 107.5874403  23.5116274  47.0075751 117.0934291  26.2438978
  46.3337450 117.3965988  26.8523936  47.3941573 117.8963372  25.8944435
  46.2234208 104.5899423  35.7336648  45.3056769 104.8114370  35.5758336
  46.6394351 104.6645733  34.8748355  47.0069255 105.9890838  30.8639328
  47.7541074 106.5012236  30.5546450  47.2760845 105.6674891  31.7243722
  45.2795905 108.4849379  27.8466282  44.3707125 108.2008412  27.9438752
  45.3090989 108.9048458  26.9869589  50.5115173 112.0955969  31.6157450
  50.0577500 111.2546878  31.6722640  49.8809140 112.7317367  31.9532230
  49.4548092 103.0247955  32.8458117  48.7170849 102.5125341  33.1768360
  49.7074866 102.5848336  32.0341394  48.9548112 113.9332465  32.5507268
  49.2471087 114.4937522  31.8319634  49.4646733 114.2261026  33.3060427
  49.5559720  95.8024207  33.4399887  49.8618597  94.9421570  33.1525802
  50.2812325  96.3941827  33.2398880  35.8484076 106.2054893  31.8281484
  35.6508476 105.6124254  31.1032551  35.2930740 105.9007103  32.5457423
  43.8280800 106.0978000  33.9476078  43.8829409 105.1451836  33.8718554
  43.0172002 106.2537439  34.4317376  44.9771993 110.0258123  25.1854361
  44.5391423 109.3093982  24.7259998  45.7182434 110.2534238  24.6239452
  41.7673159 104.7155059  31.7066456  40.9541025 105.0149230  32.1131649
  42.2632154 104.3210748  32.4240939  43.9181737 114.7112816  33.6400721
  43.8757916 114.9373663  32.7109253  44.8344436 114.4776191  33.7886522
  47.3647371 105.1796884  40.5381350  47.7196759 105.4068357  41.3975816
  48.0119502 105.5115261  39.9158606  53.0945108 108.3015320  31.2430679
  52.9563007 108.4916916  30.3151869  52.7381327 109.0634703  31.6998731
  41.2587234 102.2873415  37.3227691  41.8986614 102.1462174  36.6250655
  40.4264765 102.0007928  36.9466293  53.1214488 110.3691847  36.2541951
  53.5550994 110.2767136  37.1025005  53.8346068 110.3449347  35.6161967
  42.0347538 111.5875845  33.4362684  42.8288137 111.0926166  33.2345259
  41.3239230 111.0593709  33.0730389  46.8542383 113.9693941  37.7875052
  46.9079405 114.5384877  38.5552767  45.9857164 114.1395826  37.4229089
  38.3430302 105.7318927  29.5122437  37.4127890 105.6703383  29.7292399
  38.4387774 105.2094880  28.7159078  38.2615851 102.2573740  32.1000678
  38.5222668 103.1719073  31.9909839  39.0833023 101.7898183  32.2497291
  39.7340776 103.6711497  39.2699503  40.4063829 103.4628859  38.6212152
  38.9070562 103.4733583  38.8304735  53.9830037 110.4115547  38.7874836
  54.1765927 111.3161358  39.0334111  53.8830655 109.9522967  39.6213421
  45.6366348 100.2973438  41.2865164  44.9894263 100.9963388  41.1929640
  46.4067363 100.7309582  41.6541412  49.0445146 110.5622290  44.3615717
  48.8930652 110.3332842  43.4445801  49.0349825 111.5192892  44.3747062
  45.8130482 108.1354203  39.3461983  46.7422542 108.2865363  39.1730951
  45.3921512 108.2238224  38.4910630  44.6118814 112.1604867  37.1160521
  44.4729900 111.7923652  37.9886459  43.8233410 112.6752507  36.9444479
  45.2066966 117.2613964  28.4586058  45.3818722 116.7902007  29.2731680
  44.5199754 117.8879730  28.6867318  46.1624029 111.5386470  34.5049359
  45.8273862 111.4987240  35.4007009  45.6627975 110.8731186  34.0319769
  40.1368273 106.9454100  40.0301940  39.9988071 106.2134339  40.6313479
  41.0473197 106.8563000  39.7486128  49.0983221 108.8842504  24.7786418
  48.4812392 108.1589333  24.6819471  48.6299709 109.6451865  24.4353493
  42.7650574 106.6574059  39.5185620  43.4750192 106.0167252  39.4772238
  42.7219882 106.9086954  40.4411800  50.7537353 113.5941413  42.4392199
  50.6949899 112.9100633  41.7722782  51.1556871 114.3360403  41.9872825
  41.4779508 103.6439277  41.3381259  40.9416865 103.1930016  41.9902855
  40.8896216 103.7785186  40.5951723  40.8881767 103.1027929  23.9007723
  40.0111233 102.9816730  23.5369969  41.3639520 102.3114007  23.6486611
  50.7554760 111.5580997  40.6706178  49.8681539 111.2206918  40.7932577
  51.3253311 110.8264028  40.9074944  32.4083907 107.8905088  33.9949230
  33.0954947 107.5766818  33.4070245  32.2532036 108.7946453  33.7216481
  37.2118629 102.7795285  38.4234254  37.1276818 102.1720955  37.6884663
  36.3901335 103.2704303  38.4243750  44.2855913 116.2182449  37.6367422
  44.2126085 117.0237421  38.1486726  43.8433306 116.4174415  36.8115443
  44.0745693 115.4554219  31.1470243  43.2913215 115.9975899  31.2408468
  44.7738438 115.9728199  31.5464484  47.3842343 101.2648849  33.7904449
  47.8811042 100.5118811  33.4705519  46.6129324 101.3013165  33.2247658
  55.2372100 106.9689214  35.4322740  55.2261977 107.8513930  35.0616673
  54.3689480 106.6160765  35.2377277  46.7454597 116.1169283  39.7925580
  47.4582569 116.7516748  39.7201482  46.2544625 116.2133149  38.9765582
  48.4672124 110.0220536  31.3642872  47.5328402 110.1421998  31.1947576
  48.6448792 109.1193003  31.1002882  43.9677312 103.4066232  33.5176133
  43.5975099 102.8537272  34.2057039  44.4636404 102.8024365  32.9651133
  51.8544675 105.8637855  31.8992906  52.3205127 106.6965847  31.8253209
  52.3052175 105.3982837  32.6038165  41.7966510 113.8663727  40.6131151
  42.4975970 114.5000210  40.7660545  41.3261625 114.2078458  39.8526790
  49.9220906 112.2081676  28.8979058  50.1980750 112.0938271  29.8072932
  49.0525405 111.8099161  28.8591231  49.8261338  98.2318442  35.9383807
  48.9124418  98.4622669  36.1066014  50.2554439  98.3156886  36.7897840
  49.5967796 106.4208334  38.4383701  48.9439246 106.6684241  37.7836154
  49.9748176 105.6072472  38.1046179  46.5574970 116.4568027  32.5411872
  46.7397365 115.6389683  33.0039624  47.3807956 116.6735719  32.1036762
  46.8917136 115.3836212  29.8026920  47.4204902 114.8728667  29.1897082
  47.1545355 115.0678743  30.6672453  45.6455369 107.1628145  44.9249739
  44.9696006 107.0622274  45.5952114  46.4683003 107.0067359  45.3885736
  37.3934228 113.4000082  37.5462254  37.9787665 112.6543770  37.6790158
  37.1959067 113.7104038  38.4298918  40.2472884 116.4351329  32.5624696
  39.5783259 116.9197457  32.0788736  40.1085753 116.6820549  33.4768075
  31.9851883 105.9705682  36.2666697  32.0235983 105.4369273  37.0603815
  31.4792176 105.4440887  35.6477674  44.3878152 118.4695073  39.1607355
  44.9396460 118.6326694  39.9256440  44.7284346 119.0599510  38.4887379
  39.3642645 100.8170222  39.7629239  39.4283972 101.6785053  39.3506637
  39.3009766 100.2044224  39.0301598  38.8394918 102.8893355  43.4102274
  39.4666957 102.5070432  44.0239798  37.9822837 102.6707557  43.7757966
  49.2389026 113.2956330  45.0156009  49.7828930 113.9086288  44.5210964
  48.6575871 113.8535908  45.5323022  35.6160461 104.6969784  29.3420628
  35.9113902 103.7880462  29.2887682  34.7148496 104.6757523  29.0201631
  47.5246539 116.4177048  36.1471037  47.3997679 115.6166788  35.6381982
  48.1825631 116.9123241  35.6585007  39.1454708 102.7725781  35.3248177
  38.4241293 103.3861748  35.1855650  39.9347963 103.3083545  35.2464823
  49.5881448 114.2186068  37.7750587  48.6411783 114.0991419  37.7028914
  49.9364221 113.3308566  37.8576848  41.9481021 100.1080207  41.5988829
  42.4715423 100.3542504  42.3615138  41.7293354 100.9400242  41.1791966
  37.3448302 102.3783882  29.4659954  37.0161008 101.4981261  29.2835059
  37.6987673 102.3231550  30.3536343  46.5927881 114.0138784  33.9754939
  46.4452844 113.0855492  34.1562509  47.4181375 114.0358875  33.4912014
  40.4590125 102.6656851  29.8335431  40.7986198 103.1942773  29.1114040
  40.9062246 103.0037258  30.6093998  50.1962003 114.8367343  35.0619812
  51.1208550 114.6310204  34.9244263  50.0277306 114.5883744  35.9709153
  43.1533566 101.0493902  39.2838499  42.8130387 100.2501715  39.6859179
  42.4472572 101.3495613  38.7115332  43.8050038  98.1343215  37.7365822
  44.6276107  97.6603693  37.6144713  44.0488102  98.9133698  38.2364509
  42.4458273 101.1631473  28.0328724  43.1666635 101.5412726  27.5292441
  41.8223577 101.8820350  28.1363702  46.5889395 101.8676622  28.9687056
  46.8053010 102.7501260  28.6675884  46.1083463 101.4762835  28.2392698
  41.3288617 104.8262335  35.5457801  41.1833198 105.1402638  36.4382082
  40.8513820 105.4447236  34.9928700  43.1885000 101.8164883  35.5938690
  43.1746568 100.9205977  35.2570988  43.9057428 101.8235547  36.2276976
  45.0411130 102.2502223  37.6391818  44.7828908 103.1719294  37.6376148
  44.5096171 101.8532658  38.3292282  49.9857319 115.3553011  30.4181903
  50.1594197 114.7899433  29.6655756  50.4786210 116.1553905  30.2361393
  35.8034279 107.3667680  38.4845462  35.2587747 108.1427488  38.6165736
  36.6813629 107.7138484  38.3264583  42.5921896 100.6979263  30.8626261
  42.7137807  99.7695910  31.0617148  42.3023938 100.7117949  29.9504576
  45.4613086  98.3834174  33.9992980  45.4834783  98.4473507  33.0444960
  45.8781145  97.5438683  34.1933487  55.8396710 108.1189433  32.0372203
  56.2827856 107.3696759  31.6391326  54.9623221 108.1099570  31.6545935
  50.9732492 114.6719775  27.5178802  51.6683396 115.2926468  27.7366116
  51.3155642 113.8215126  27.7931179  36.5900301 106.4937576  41.3775619
  35.8482037 106.6420211  41.9640249  36.2693045 106.7545841  40.5142368
  52.8723915 112.1219480  29.0466132  53.3975239 112.4606753  28.3215452
  52.7846267 111.1866496  28.8629267  44.5343963 116.0353554  41.1756009
  44.8431090 115.7902701  42.0478709  45.3319445 116.2400193  40.6874879
  44.5564576 118.1891464  33.4061385  44.1169566 117.6967842  34.0994242
  45.3072692 117.6464431  33.1653461  37.0356914 114.3803005  33.4086014
  37.8614934 114.0806776  33.0284657  36.6850966 113.6110627  33.8575802
  42.0038448 113.7329473  35.4783687  41.3818457 113.0700178  35.1785915
  42.6743315 113.7590605  34.7957335  35.2365520 112.2989331  34.3674947
  34.3997428 111.8711505  34.1858948  35.2089165 112.4921774  35.3045738
  42.0762975 102.2111261  45.0716193  42.1251131 103.0873384  44.6893963
  42.6185489 101.6688654  44.4987836  52.5617821 112.7552384  44.3517330
  51.7713365 112.7376523  43.8121830  52.3251175 113.2940678  45.1066367
  52.6815696 109.6044850  41.6650059  52.7313701 109.4394858  42.6065582
  52.5729619 108.7372109  41.2747940  41.5651955 112.2833396  28.9542148
  41.7140075 112.9668861  28.3008820  42.3718398 112.2638486  29.4691603
  49.9719458 105.5875778  42.9809366  50.8729321 105.4482243  42.6893363
  50.0467433 105.7530233  43.9207543  44.3062264 102.9642633  41.8262552
  43.4365573 103.2576199  41.5545140  44.5421744 103.5483078  42.5469815
  54.1833893 112.0241792  41.9092080  53.8918701 112.3871773  42.7455541
  53.5706024 111.3108800  41.7305412  55.3829575 109.5894672  34.4294651
  56.2176466 110.0284476  34.5932211  55.5188704 109.1133325  33.6102896
  52.4321081 107.1474407  40.3772138  52.9075203 107.3402053  39.5690990
  51.5086646 107.2033592  40.1315522  39.3204588 108.3098574  29.9603217
  39.0750629 107.4060904  30.1583427  39.4900502 108.3115724  29.0182695
  47.0101297  99.1822250  39.3427972  47.5283241  99.9183277  39.0174461
  46.6556430  99.4886243  40.1774731  38.5900235 104.0426931  27.4589378
  37.8969480 104.1171286  26.8029414  38.3451987 103.2787275  27.9810895
  47.2613892  95.6022533  34.8628869  47.5415645  94.9345722  35.4889295
  48.0464499  95.7951628  34.3503533  45.0647360 114.7781527  26.4253895
  44.4921327 115.3971714  25.9724367  45.6380154 115.3280888  26.9593817
  51.1322750 104.0240167  38.6100444  52.0840173 104.1238264  38.6312668
  50.9626200 103.2318435  39.1198528  49.1537129 101.1095750  38.7959845
  48.5587062 101.3900763  38.1006333  48.8686826 101.5989651  39.5676586
  48.2844620 115.0618677  27.5562477  49.2175293 114.9964238  27.7595353
  48.1967833 115.8974944  27.0977010  50.9132637 114.3784547  24.5166425
  50.8346268 114.0444411  25.4102183  51.7342303 114.8706315  24.5157897
  53.6110828 107.2446286  37.7242744  53.5787148 106.3062287  37.9102427
  54.2211451 107.3230323  36.9908568  45.4494159 106.1142339  23.7669948
  46.3953263 105.9848547  23.8358366  45.0708404 105.3757001  24.2439376
  53.7605316 104.0357330  37.7701027  53.2444365 103.2515786  37.5830956
  54.6445265 103.7076046  37.9347546  51.4216043  97.7798345  33.7296839
  51.2240864  97.4713434  34.6140171  52.0315749  98.5059984  33.8594769
  59.4287378 108.3062293  36.8648780  60.1590766 108.0447581  37.4256484
  58.8194323 107.5691015  36.9050848  57.5102675 106.4470156  37.4623232
  56.7835838 106.3126121  36.8539723  57.0949962 106.7546984  38.2679950
  45.3332851 110.1660085  45.2270605  46.2535861 110.3438684  45.4210651
  45.2982434 109.2216131  45.0750304  43.6337076 104.0392316  23.7024833
  42.7268531 103.7425428  23.7787546  43.9113057 103.7422134  22.8359119
  34.5515016 105.3598679  34.1523879  34.2317800 104.5063987  33.8598253
  34.0048444 105.5747257  34.9081847  38.3294924 108.0761120  37.8693386
  38.5480933 109.0078228  37.8881420  38.7420698 107.7169095  38.6548190
  45.2499141  98.5829205  29.8569074  44.4399870  98.2376290  30.2324320
  45.9383558  98.2736749  30.4456686  47.1789690  97.6607252  31.4793371
  47.7320728  98.0802706  32.1383394  47.4159776  96.7343000  31.5216327
  43.2022789 103.6494326  47.2596135  43.1019516 104.5988683  47.1908226
  42.9844331 103.3212565  46.3872205  42.4035860 100.8979251  23.8436812
  43.2655024 101.2234149  24.1032629  42.5886205 100.1110747  23.3309878
  34.4203276 108.9801591  36.1217001  33.7266748 108.5655543  35.6086955
  35.1676267 109.0222127  35.5250420  50.5568497  99.7707777  30.9872035
  49.9767166 100.4292581  30.6050087  50.2904430  98.9485122  30.5759453
  49.0072063  99.1712835  33.1893355  49.5071842  99.2829370  32.3807674
  49.6507671  98.8673888  33.8294164  43.0654059 107.0791465  46.0761196
  42.5821141 107.8791825  46.2825085  43.1514998 107.0899410  45.1228640
  36.3340019 108.9119844  33.9983016  36.3110707 109.0107532  33.0464899
  36.6440655 109.7584995  34.3200182  38.9927397 110.9695999  38.1129630
  39.9470650 110.9379942  38.0459562  38.7939920 110.5086623  38.9279856
  39.5826779 109.5397116  40.6800428  40.4019668 110.0341194  40.7035265
  39.8563586 108.6229084  40.6517995  49.3393375 101.9307868  30.0428383
  48.4519230 102.2157518  29.8248578  49.7547364 101.7701631  29.1955660
  52.6907911 101.9554389  33.7582723  53.4668301 102.4450841  34.0307339
  51.9656045 102.3812443  34.2154592  55.1280470 102.6682008  34.8156663
  55.7224960 102.4277744  34.1049971  55.2007053 101.9489139  35.4430199
  37.3477625 116.5115619  35.1299828  37.2132093 115.7516020  34.5637826
  36.9309688 117.2356519  34.6628617  48.4836588 111.6952542  24.1376403
  49.1872438 111.9002545  24.7534059  47.7599237 112.2629304  24.4025487
  49.3134399 107.4462404  30.2578673  49.2569600 107.9030955  29.4186306
  49.8662741 106.6853088  30.0801516  53.1239205 103.2352136  31.0828793
  52.8676139 102.8348771  31.9137001  52.4992073 103.9495930  30.9578932
  57.4351542 105.9748209  33.5900084  56.8751100 106.0441398  34.3631646
  56.8295046 105.7989193  32.8699581  40.5046751 117.4084936  35.3418271
  40.3879135 118.3530368  35.2396961  39.6839197 117.1058498  35.7304070
  50.3923286 112.1335072  26.1874863  51.2268890 111.7016270  26.0052338
  50.2307629 111.9617085  27.1151758  50.0469178 108.6367185  27.5531203
  49.9917982 108.4711456  26.6119647  49.4215233 109.3443218  27.7093392
  34.8361693 103.8735249  41.3792625  35.4820557 103.3634203  41.8679850
  34.6278844 104.6103931  41.9536050  47.3615085 110.9416097  46.8784765
  48.2306245 111.1156749  46.5171400  46.8821837 111.7610514  46.7560495
  43.3565303  98.1375294  27.1316521  43.3443973  99.0817134  27.2884792
  44.2488725  97.9545439  26.8375982  41.5301265 118.0613198  38.5574199
  42.4328512 118.0936808  38.8740694  41.3038635 117.1313649  38.5720535
  43.2854867 116.8144184  35.2184278  42.3350498 116.8146046  35.1048650
  43.5887353 116.0676919  34.7020312  47.1717423  94.7318071  31.3862458
  46.4049819  94.1776557  31.5319140  47.5828128  94.8039939  32.2476609
  39.1759184 101.0202866  45.4767639  40.0390645 100.6639671  45.6870964
  38.6024595 100.6816761  46.1643043  59.0207561 122.6504723  36.2830040
  59.6585971 122.5311470  35.5793380  58.9028404 123.5985567  36.3417992
  55.8297267 122.6032151  36.2191565  55.4915779 122.4873216  35.3312100
  56.6987035 122.2023316  36.1992571  56.3117050 123.7567003  42.1777770
  56.3005691 123.3619801  41.3058274  56.4737690 123.0233075  42.7711542
  53.5305547 121.3720398  25.5508505  53.7831067 120.8501920  24.7891968
  52.5930106 121.2086544  25.6535189  58.5748829 120.3756177  33.3583248
  59.3611919 119.9575600  33.0073665  58.8387534 121.2802269  33.5264897
  63.9757256 120.3131410  34.2616227  64.7082428 119.7430627  34.4954056
  63.2196612 119.9253010  34.7022732  55.5933376 122.7358651  31.4579569
  55.2291583 122.2089272  32.1692491  56.4500492 122.3457120  31.2846055
  61.4982677 114.0252984  38.7210835  61.1666002 114.8948395  38.4972050
  60.9028290 113.7089268  39.4004866  55.2338863 117.7648551  26.4540918
  55.4013266 118.6328787  26.8211389  55.0436032 117.9275833  25.5302207
  61.3911340 118.7448070  35.8004185  60.4828217 118.6763479  35.5062946
  61.3398936 119.2220015  36.6286011  55.2128084 120.2206209  27.4387584
  55.0927709 120.6663259  28.2773065  54.5180672 120.5691526  26.8801123
  55.4652206 120.1637716  43.7439083  54.6885540 120.7231636  43.7341947
  56.1042769 120.6494499  44.2653953  63.2572987 116.9464509  37.5782059
  62.6147367 117.2397042  36.9321854  62.7527915 116.8317429  38.3835256
  60.9113150 120.6927682  28.2667918  61.8231006 120.9255068  28.0915616
  60.4022797 121.2764726  27.7042997  59.1953918 125.1152310  41.9029211
  59.6037274 124.6734720  41.1583843  58.4731179 124.5404937  42.1563404
  55.5484988 120.0524916  39.2762768  56.3946183 120.4764330  39.4197417
  55.4883626 119.3958541  39.9701331  58.6984433 117.7129285  40.9343942
  58.4545365 118.4671345  40.3978217  58.9744364 118.0914632  41.7691189
  60.6522896 124.2567897  39.6121207  60.8639791 124.8999657  38.9355588
  60.6052644 123.4230214  39.1443137  58.2549125 116.8685718  36.5157779
  57.3933604 117.1666971  36.8074517  58.2811560 117.0856117  35.5838812
  54.0079580 121.5351061  29.7321150  54.7103624 121.9872104  30.1995077
  53.6760209 120.8934879  30.3601043  52.4559942 120.1262817  44.1072360
  51.8258603 120.8079098  44.3407756  52.3496030 120.0145899  43.1625498
  47.7504914 119.7934613  35.0338284  46.9603968 120.0492142  34.5578394
  48.2416162 120.6082951  35.1390324  49.7019660 120.1579193  31.9921760
  48.9050823 120.2697887  32.5105256  49.4745252 120.4965845  31.1262651
  69.8574717 123.4778601  34.1328536  69.1038425 122.9085999  33.9772540
  69.9922258 123.4441265  35.0799171  51.7340685 114.4283583  46.4697611
  51.3407630 113.8749782  47.1445255  52.5506825 114.7394162  46.8604128
  54.6508646 115.8441462  44.0617867  55.3918359 116.4448615  43.9822330
  54.8826568 115.1019100  43.5035910  49.7949984 121.0297829  42.3396097
  49.6803499 120.1283087  42.6403196  48.9394501 121.2761526  41.9880913
  58.5965809 111.8722565  38.3382149  58.2530078 112.7624207  38.2621259
  58.9644771 111.6824223  37.4751734  58.5616091 121.8631176  26.8454584
  58.0462715 122.6335781  27.0842971  58.2893400 121.1896312  27.4687645
  56.1463202 116.7080877  31.9039822  55.2904799 116.3187727  31.7245461
  56.5590154 116.7872838  31.0439608  57.6762349 114.2427220  36.3031382
  57.1727145 114.2057355  35.4899187  57.9692956 115.1519963  36.3628039
  53.9205235 114.3265950  35.3097564  54.7858232 114.1308759  34.9503453
  53.9882744 114.0976302  36.2366921  63.5350365 124.6163531  28.7807757
  62.7579808 124.2774690  28.3362920  64.2141846 124.6216154  28.1062723
  58.3502395 119.7358268  28.6714365  58.0452530 120.0504418  29.5224508
  59.3032837 119.8139688  28.7141698  61.7741672 124.0897512  35.4374365
  61.1165347 124.7796774  35.5254494  62.5782072 124.4793944  35.7808352
  51.5267554 116.5568158  32.6813931  52.1011306 116.3343339  31.9487124
  52.1138536 116.6256852  33.4342532  60.5847131 122.4441885  33.4878307
  61.0979013 123.0771877  33.9900017  61.2348355 121.8443080  33.1221667
  51.8537141 118.5872619  26.7009816  51.0174453 118.9247305  27.0219091
  51.7141911 118.4521599  25.7636953  53.8290222 113.4309407  31.4089000
  53.1754634 113.1158424  30.7845615  53.7870696 112.8085147  32.1348823
  54.9401427 123.7128702  23.3242292  54.0328488 123.4817955  23.5233441
  55.4372459 122.9166321  23.5116274  57.0627962 119.9191340  35.7336648
  56.1450523 120.1406287  35.5758336  57.4788106 119.9937651  34.8748355
  57.8463010 121.3182756  30.8639328  58.5934829 121.8304153  30.5546450
  58.1154599 120.9966809  31.7243722  56.1189660 123.8141297  27.8466282
  55.2100879 123.5300330  27.9438752  56.1484744 124.2340375  26.9869589
  60.2941847 118.3539872  32.8458117  59.5564604 117.8417259  33.1768360
  60.5468620 117.9140254  32.0341394  60.3953474 111.1316124  33.4399887
  60.7012351 110.2713488  33.1525802  61.1206079 111.7233745  33.2398880
  54.6674554 121.4269917  33.9476078  54.7223164 120.4743754  33.8718554
  53.8565756 121.5829356  34.4317376  52.6066914 120.0446977  31.7066456
  51.7934779 120.3441148  32.1131649  53.1025908 119.6502666  32.4240939
  58.2041126 120.5088802  40.5381350  58.5590513 120.7360275  41.3975816
  58.8513257 120.8407178  39.9158606  63.9338863 123.6307237  31.2430679
  63.7956761 123.8208833  30.3151869  63.5775081 124.3926620  31.6998731
  52.0980989 117.6165333  37.3227691  52.7380368 117.4754092  36.6250655
  51.2658519 117.3299846  36.9466293  63.9608242 125.6983764  36.2541951
  64.3944749 125.6059054  37.1025005  64.6739823 125.6741265  35.6161967
  49.1824056 121.0610845  29.5122437  48.2521644 120.9995300  29.7292399
  49.2781528 120.5386798  28.7159078  49.1009605 117.5865658  32.1000678
  49.3616422 118.5010991  31.9909839  49.9226777 117.1190100  32.2497291
  50.5734530 119.0003415  39.2699503  51.2457584 118.7920777  38.6212152
  49.7464317 118.8025501  38.8304735  64.8223792 125.7407465  38.7874836
  65.0159682 126.6453276  39.0334111  64.7224410 125.2814884  39.6213421
  56.4760102 115.6265356  41.2865164  55.8288017 116.3255305  41.1929640
  57.2461118 116.0601500  41.6541412  56.6524237 123.4646121  39.3461983
  57.5816297 123.6157280  39.1730951  56.2315267 123.5530141  38.4910630
  50.9762028 122.2746018  40.0301940  50.8381826 121.5426257  40.6313479
  51.8866951 122.1854918  39.7486128  59.9376975 124.2134422  24.7786418
  59.3206146 123.4881250  24.6819471  59.4693464 124.9743782  24.4353493
  53.6044328 121.9865977  39.5185620  54.3143947 121.3459169  39.4772238
  53.5613637 122.2378872  40.4411800  52.3173262 118.9731195  41.3381259
  51.7810619 118.5221933  41.9902855  51.7289971 119.1077104  40.5951723
  51.7275521 118.4319846  23.9007723  50.8504988 118.3108647  23.5369969
  52.2033274 117.6405925  23.6486611  48.0512384 118.1087203  38.4234254
  47.9670572 117.5012872  37.6884663  47.2295090 118.5996221  38.4243750
  58.2236097 116.5940766  33.7904449  58.7204797 115.8410729  33.4705519
  57.4523079 116.6305083  33.2247658  66.0765855 122.2981132  35.4322740
  66.0655731 123.1805847  35.0616673  65.2083234 121.9452683  35.2377277
  54.8071066 118.7358149  33.5176133  54.4368854 118.1829190  34.2057039
  55.3030159 118.1316283  32.9651133  62.6938429 121.1929773  31.8992906
  63.1598882 122.0257764  31.8253209  63.1445930 120.7274754  32.6038165
  60.6655092 113.5610360  35.9383807  59.7518172 113.7914587  36.1066014
  61.0948194 113.6448804  36.7897840  60.4361551 121.7500252  38.4383701
  59.7833001 121.9976159  37.7836154  60.8141931 120.9364390  38.1046179
  56.4849124 122.4920063  44.9249739  55.8089761 122.3914192  45.5952114
  57.3076758 122.3359276  45.3885736  50.2036400 116.1462140  39.7629239
  50.2677726 117.0076971  39.3506637  50.1403520 115.5336142  39.0301598
  49.6788672 118.2185273  43.4102274  50.3060711 117.8362350  44.0239798
  48.8216591 117.9999474  43.7757966  46.4554215 120.0261702  29.3420628
  46.7507656 119.1172380  29.2887682  45.5542251 120.0049441  29.0201631
  49.9848462 118.1017698  35.3248177  49.2635048 118.7153666  35.1855650
  50.7741718 118.6375463  35.2464823  52.7874776 115.4372125  41.5988829
  53.3109177 115.6834421  42.3615138  52.5687109 116.2692160  41.1791966
  48.1842057 117.7075799  29.4659954  47.8554763 116.8273178  29.2835059
  48.5381427 117.6523468  30.3536343  51.2983880 117.9948769  29.8335431
  51.6379952 118.5234690  29.1114040  51.7456000 118.3329175  30.6093998
  53.9927321 116.3785820  39.2838499  53.6524141 115.5793633  39.6859179
  53.2866327 116.6787531  38.7115332  54.6443793 113.4635132  37.7365822
  55.4669862 112.9895610  37.6144713  54.8881856 114.2425616  38.2364509
  53.2852027 116.4923391  28.0328724  54.0060390 116.8704643  27.5292441
  52.6617331 117.2112268  28.1363702  57.4283150 117.1968540  28.9687056
  57.6446764 118.0793178  28.6675884  56.9477217 116.8054753  28.2392698
  52.1682371 120.1554253  35.5457801  52.0226952 120.4694556  36.4382082
  51.6907575 120.7739153  34.9928700  54.0278754 117.1456801  35.5938690
  54.0140323 116.2497894  35.2570988  54.7451182 117.1527465  36.2276976
  55.8804885 117.5794141  37.6391818  55.6222663 118.5011212  37.6376148
  55.3489925 117.1824576  38.3292282  53.4315650 116.0271181  30.8626261
  53.5531561 115.0987827  31.0617148  53.1417692 116.0409867  29.9504576
  56.3006840 113.7126092  33.9992980  56.3228537 113.7765425  33.0444960
  56.7174900 112.8730600  34.1933487  66.6790465 123.4481351  32.0372203
  67.1221611 122.6988676  31.6391326  65.8016975 123.4391488  31.6545935
  52.9156730 117.5403179  45.0716193  52.9644885 118.4165301  44.6893963
  53.4579244 116.9980572  44.4987836  63.5209450 124.9336768  41.6650059
  63.5707455 124.7686776  42.6065582  63.4123374 124.0664027  41.2747940
  60.8113213 120.9167696  42.9809366  61.7123076 120.7774161  42.6893363
  60.8861187 121.0822151  43.9207543  55.1456018 118.2934551  41.8262552
  54.2759327 118.5868117  41.5545140  55.3815498 118.8774996  42.5469815
  66.2223330 124.9186589  34.4294651  67.0570221 125.3576394  34.5932211
  66.3582458 124.4425243  33.6102896  63.2714835 122.4766324  40.3772138
  63.7468957 122.6693971  39.5690990  62.3480401 122.5325510  40.1315522
  57.8495052 114.5114168  39.3427972  58.3676996 115.2475195  39.0174461
  57.4950185 114.8178161  40.1774731  49.4293990 119.3718849  27.4589378
  48.7363235 119.4463204  26.8029414  49.1845741 118.6079193  27.9810895
  58.1007646 110.9314450  34.8628869  58.3809400 110.2637639  35.4889295
  58.8858253 111.1243546  34.3503533  61.9716504 119.3532084  38.6100444
  62.9233927 119.4530182  38.6312668  61.8019955 118.5610353  39.1198528
  59.9930884 116.4387668  38.7959845  59.3980816 116.7192680  38.1006333
  59.7080581 116.9281569  39.5676586  64.4504582 122.5738204  37.7242744
  64.4180902 121.6354205  37.9102427  65.0605206 122.6522241  36.9908568
  56.2887913 121.4434257  23.7669948  57.2347018 121.3140465  23.8358366
  55.9102158 120.7048919  24.2439376  64.5999071 119.3649247  37.7701027
  64.0838119 118.5807704  37.5830956  65.4839019 119.0367964  37.9347546
  62.2609798 113.1090263  33.7296839  62.0634619 112.8005351  34.6140171
  62.8709503 113.8351902  33.8594769  70.2681132 123.6354211  36.8648780
  70.9984521 123.3739499  37.4256484  69.6588078 122.8982933  36.9050848
  68.3496429 121.7762073  37.4623232  67.6229593 121.6418038  36.8539723
  67.9343716 122.0838902  38.2679950  54.4730830 119.3684233  23.7024833
  53.5662286 119.0717346  23.7787546  54.7506811 119.0714052  22.8359119
  56.0892896 113.9121123  29.8569074  55.2793624 113.5668208  30.2324320
  56.7777313 113.6028667  30.4456686  58.0183444 112.9899170  31.4793371
  58.5714483 113.4094623  32.1383394  58.2553531 112.0634918  31.5216327
  54.0416543 118.9786244  47.2596135  53.9413270 119.9280601  47.1908226
  53.8238086 118.6504482  46.3872205  53.2429615 116.2271169  23.8436812
  54.1048779 116.5526067  24.1032629  53.4279959 115.4402665  23.3309878
  61.3962251 115.0999695  30.9872035  60.8160920 115.7584499  30.6050087
  61.1298184 114.2777040  30.5759453  59.8465818 114.5004753  33.1893355
  60.3465596 114.6121287  32.3807674  60.4901426 114.1965806  33.8294164
  53.9047814 122.4083382  46.0761196  53.4214895 123.2083743  46.2825085
  53.9908753 122.4191327  45.1228640  60.1787129 117.2599785  30.0428383
  59.2912984 117.5449436  29.8248578  60.5941118 117.0993549  29.1955660
  63.5301666 117.2846306  33.7582723  64.3062056 117.7742759  34.0307339
  62.8049800 117.7104361  34.2154592  65.9674224 117.9973926  34.8156663
  66.5618715 117.7569662  34.1049971  66.0400808 117.2781056  35.4430199
  60.1528153 122.7754321  30.2578673  60.0963355 123.2322873  29.4186306
  60.7056496 122.0145006  30.0801516  63.9632959 118.5644053  31.0828793
  63.7069893 118.1640689  31.9137001  63.3385827 119.2787847  30.9578932
  68.2745297 121.3040127  33.5900084  67.7144855 121.3733316  34.3631646
  67.6688800 121.1281111  32.8699581  60.8862932 123.9659103  27.5531203
  60.8311736 123.8003374  26.6119647  60.2608988 124.6735136  27.7093392
  45.6755447 119.2027167  41.3792625  46.3214311 118.6926121  41.8679850
  45.4672599 119.9395849  41.9536050  54.1959058 113.4667212  27.1316521
  54.1837728 114.4109052  27.2884792  55.0882480 113.2837357  26.8375982
  58.0111177 110.0609988  31.3862458  57.2443573 109.5068475  31.5319140
  58.4221882 110.1331857  32.2476609  50.0152938 116.3494784  45.4767639
  50.8784400 115.9931589  45.6870964  49.4418349 116.0108679  46.1643043
  69.4359563 127.2014483  38.3382149  69.0923832 128.0916124  38.2621259
  69.8038526 127.0116140  37.4751734  71.2347229 126.4608042  33.4399887
  71.5406106 125.6005405  33.1525802  71.9599834 127.0525662  33.2398880
  71.5048847 128.8902277  35.9383807  70.5911927 129.1206504  36.1066014
  71.9341948 128.9740721  36.7897840  68.9401401 126.2606368  34.8628869
  69.2203154 125.5929557  35.4889295  69.7252008 126.4535464  34.3503533
  73.1003552 128.4382181  33.7296839  72.9028373 128.1297269  34.6140171
  73.7103258 129.1643820  33.8594769  68.8577199 128.3191088  31.4793371
  69.4108237 128.7386541  32.1383394  69.0947285 127.3926836  31.5216327
  68.8504932 125.3901906  31.3862458  68.0837328 124.8360393  31.5319140
  69.2615637 125.4623775  32.2476609   2.6773050  29.3318104  30.6628904
   2.2336904  28.5454483  30.3449809   3.3390264  29.5197254  29.9972795
   4.7754288  29.6120904  28.6910305   4.7572764  30.4329785  28.1990575
   5.6974208  29.4874979  28.9160447   5.6870129  26.2516742  31.0861024
   5.5355636  26.0227294  30.1691107   5.6774809  27.2087344  31.0992369
   7.3962336  29.2835865  29.1637505   7.3374882  28.5995085  28.4968088
   7.7981854  30.0254855  28.7118131   5.8814010  28.9850782  31.7401316
   6.4253914  29.5980740  31.2456270   5.3000855  29.5430360  32.2568329
   9.2042804  28.4446836  31.0762637   8.4138348  28.4270975  30.5367136
   8.9676159  28.9835130  31.8311673  10.8258876  27.7136244  28.6337387
  10.5343684  28.0766224  29.4700848  10.2131007  27.0003252  28.4550719
   4.0040068  26.6310549  33.6030072   4.8731228  26.8051201  33.2416707
   3.5246820  27.4504966  33.4805801  15.6632544  38.3399175  23.0075347
  16.3010954  38.2205922  22.3038687  15.5453387  39.2880019  23.0663299
  12.4722250  38.2926603  22.9436871  12.1340762  38.1767667  22.0557406
  13.3412019  37.8917768  22.9237878  12.9542033  39.4461455  28.9023077
  12.9430674  39.0514253  28.0303581  13.1162673  38.7127527  29.4956848
   5.8773498  41.6413271  21.7717983   6.6694790  41.3004095  21.3564282
   6.1170148  41.7508246  22.6920136   9.6749295  42.2298566  27.8502261
   9.3839161  43.1344197  27.7348927  10.3106279  42.2715094  28.5646330
  10.6005501  39.6075415  24.4403621  11.1969074  39.3831437  23.7260584
  10.6580473  38.8660160  25.0429068  20.6182240  36.0025862  20.9861533
  21.3507412  35.4325079  21.2199363  19.8621595  35.6147462  21.4268039
  18.1407660  29.7147436  25.4456142  17.8090985  30.5842847  25.2217357
  17.5453273  29.3983720  26.1250172  14.6339180  41.9159982  24.8452055
  14.3339903  42.8185021  24.7367862  14.2890239  41.6492165  25.6973208
  18.0336323  34.4342522  22.5249492  17.1253201  34.3657930  22.2308253
  17.9823919  34.9114467  23.3531317   9.6159959  48.6804302  17.8123022
   9.5383989  49.6312127  17.8911503   9.0121603  48.3350175  18.4697949
  12.1077189  35.8532168  30.4684389  11.3310523  36.4126088  30.4587254
  12.7467752  36.3388951  30.9899259  19.8997970  32.6358960  24.3027366
  19.2572350  32.9291494  23.6567160  19.3952898  32.5211881  25.1080563
  10.3623562  38.6617621  30.0302356  11.1038246  39.2002665  29.7537180
   9.6560547  39.2883910  30.1873908  15.8378901  40.8046761  28.6274518
  16.2462257  40.3629172  27.8829150  15.1156163  40.2299389  28.8808711
  12.1909971  35.7419368  26.0008075  13.0371166  36.1658782  26.1442724
  12.1308609  35.0852993  26.6946638  16.1607716  41.3647952  22.3826807
  15.5316578  41.5293666  21.6802874  15.7733378  41.7789562  23.1537771
  20.0396948  42.3002390  19.7371170  19.3547986  42.6801291  19.1868204
  20.1240797  42.9097717  20.4703118  15.3409417  33.4023737  27.6589248
  15.0970348  34.1565797  27.1223524  15.6169347  33.7809084  28.4936495
  17.2947879  39.9462349  26.3366514  17.5064775  40.5894109  25.6600895
  17.2477628  39.1124665  25.8688444  11.7135678  41.1022360  19.6476892
  12.1774023  41.3810063  18.8581514  11.4492476  40.2005805  19.4649982
   8.6059759  40.6493842  22.5856655   9.1761116  41.0781110  21.9474139
   9.1967871  40.3676426  23.2840841   9.0984925  35.8157269  30.8317666
   8.4683586  36.4973550  31.0653063   8.9921013  35.7040351  29.8870804
  18.4093707  42.8234304  24.5088871  19.2311151  42.4214492  24.2271553
  18.4056110  42.7202539  25.4604987  12.1750311  42.3718348  26.6649582
  12.2394743  42.8338755  27.5007754  11.4661235  41.7415713  26.7931892
  26.4999700  39.1673053  20.8573843  25.7463409  38.5980451  20.7017847
  26.6347242  39.1335717  21.8044477   8.3765668  30.1178035  33.1942917
   7.9832614  29.5644234  33.8690561   9.1931808  30.4288613  33.5849435
   7.1522610  44.6727649  19.1879240   7.3289239  45.5945614  19.0000224
   7.9479444  44.3586069  19.6173620  11.2933629  31.5335914  30.7863174
  12.0343342  32.1343067  30.7067636  11.5251552  30.7913552  30.2281216
   6.4374967  36.7192281  29.0641404   6.3228482  35.8177539  29.3648502
   5.5819485  36.9655978  28.7126220  13.5166805  44.6610022  30.6628904
  13.0730659  43.8746400  30.3449809  14.1784018  44.8489172  29.9972795
   8.2753926  46.1905823  25.1889583   8.8261351  46.0622887  24.4166577
   7.4365402  46.4900712  24.8384475  15.6148043  44.9412822  28.6910305
  15.5966518  45.7621703  28.1990575  16.5367963  44.8166897  28.9160447
  12.0721097  42.4556951  29.5333814  12.6049434  41.6945239  29.3033122
  11.5435178  42.1630603  30.2757968  18.4166656  39.7791964  22.1619672
  17.7590330  40.4691225  22.2499801  19.2207055  40.1688396  22.5053658
  17.2272114  38.1336337  20.2123614  17.7403996  38.7666329  20.7145324
  17.8773338  37.5337532  19.8466974  13.7052945  35.6085792  22.4581954
  12.7875507  35.8300739  22.3003642  14.1213089  35.6832103  21.5993662
  17.9933911  43.1142338  18.3402756  17.5396238  42.2733248  18.3967947
  17.3627877  43.7503737  18.6777537  16.4366850  44.9518835  19.2752575
  16.7289824  45.5123892  18.5564940  16.9465471  45.2447396  20.0305734
  11.4000475  45.7299186  20.3646028  11.3576654  45.9560032  19.4354560
  12.3163174  45.4962561  20.5131829  14.8466109  36.1983253  27.2626657
  15.2015497  36.4254727  28.1221123  15.4938240  36.5301630  26.6403912
  20.5763846  39.3201689  17.9675986  20.4381744  39.5103285  17.0397175
  20.2200065  40.0821072  18.4244037  20.6033225  41.3878216  22.9787258
  21.0369732  41.2953505  23.8270312  21.3164806  41.3635717  22.3407274
   9.5166276  42.6062215  20.1607991  10.3106874  42.1112535  19.9590565
   8.8057968  42.0780078  19.7975696  14.3361120  44.9880310  24.5120358
  14.3898143  45.5571247  25.2798074  13.4675902  45.1582196  24.1474395
   7.2159514  34.6897867  25.9944809   7.8882567  34.4815229  25.3457458
   6.3889300  34.4919953  25.5550042  21.4648775  41.4301917  25.5120143
  21.6584665  42.3347728  25.7579418  21.3649393  40.9709336  26.3458728
  13.1185086  31.3159808  28.0110470  12.4713001  32.0149757  27.9174947
  13.8886101  31.7495952  28.3786718  16.5263884  41.5808660  31.0861024
  16.3749390  41.3519211  30.1691107  16.5168563  42.5379261  31.0992369
  13.2949220  39.1540573  26.0707290  14.2241280  39.3051732  25.8976257
  12.8740250  39.2424593  25.2155937  12.0937552  43.1791237  23.8405828
  11.9548638  42.8110021  24.7131766  11.3052148  43.6938876  23.6689785
  12.6885704  48.2800333  15.1831364  12.8637460  47.8088377  15.9976987
  12.0018492  48.9066100  15.4112625  13.6442767  42.5572840  21.2294665
  13.3092600  42.5173610  22.1252315  13.1446713  41.8917556  20.7565076
   7.6187011  37.9640470  26.7547247   7.4806809  37.2320709  27.3558786
   8.5291934  37.8749370  26.4731434  10.2469312  37.6760429  26.2430926
  10.9568930  37.0353621  26.2017545  10.2038620  37.9273324  27.1657107
  18.2356090  44.6127782  29.1637505  18.1768637  43.9287002  28.4968088
  18.6375609  45.3546772  28.7118131   8.9598246  34.6625647  28.0626566
   8.4235603  34.2116385  28.7148162   8.3714954  34.7971556  27.3197030
   7.2546789  51.4289696  21.9571224   7.4943387  52.0608220  22.6350243
   6.4115986  51.0777736  22.2436584  18.2373498  42.5767366  27.3951485
  17.3500276  42.2393288  27.5177884  18.8072049  41.8450398  27.6320250
  11.7674651  47.2368819  24.3612728  11.6944822  48.0423790  24.8732033
  11.3252044  47.4360784  23.5360750  11.5564431  46.4740589  17.8715550
  10.7731953  47.0162269  17.9653774  12.2557176  46.9914568  18.2709791
  22.7190838  37.9875584  22.1568047  22.7080714  38.8700299  21.7861980
  21.8508218  37.6347134  21.9622584  14.2273335  47.1355653  26.5170887
  14.9401307  47.7703117  26.4446788  13.7363363  47.2319519  25.7010889
  15.9490861  41.0406905  18.0888179  15.0147140  41.1608368  17.9192883
  16.1267530  40.1379372  17.8248188  19.3363413  36.8824225  18.6238213
  19.8023865  37.7152216  18.5498515  19.7870913  36.4169206  19.3283471
   9.2785248  44.8850096  27.3376458   9.9794708  45.5186579  27.4905852
   8.8080363  45.2264828  26.5772097  17.0786534  37.4394704  25.1629008
  16.4257984  37.6870611  24.5081461  17.4566914  36.6258842  24.8291485
  14.0393708  47.4754397  19.2657178  14.2216102  46.6576053  19.7284931
  14.8626694  47.6922089  18.8282068  14.3735873  46.4022582  16.5272227
  14.9023640  45.8915036  15.9142389  14.6364093  46.0865112  17.3917760
  13.1274107  38.1814515  31.6495045  12.4514744  38.0808644  32.3197420
  13.9501741  38.0253728  32.1131042   4.8752966  44.4186451  24.2707560
   5.4606403  43.6730139  24.4035465   4.6777805  44.7290408  25.1544224
   7.7291621  47.4537699  19.2870003   7.0601997  47.9383826  18.8034043
   7.5904491  47.7006919  20.2013381  11.8696890  49.4881442  25.8852661
  12.4215198  49.6513064  26.6501746  12.2103083  50.0785880  25.2132686
   6.3213656  33.9079724  30.1347580   6.9485695  33.5256802  30.7485104
   5.4641575  33.6893926  30.5003273  16.7207764  44.3142700  31.7401316
  17.2647668  44.9272658  31.2456270  16.1394609  44.8722278  32.2568329
  15.0065277  47.4363418  22.8716343  14.8816417  46.6353157  22.3627289
  15.6644368  47.9309611  22.3830313  17.0700186  45.2372438  24.4995893
  16.1230521  45.1177789  24.4274220  17.4182959  44.3494936  24.5822155
   9.4299759  31.1266577  28.3234135   9.9534161  31.3728873  29.0860445
   9.2112092  31.9586611  27.9037273  14.0746619  45.0325154  20.7000246
  13.9271581  44.1041861  20.8807816  14.9000112  45.0545245  20.2157321
  17.6780741  45.8553713  21.7865118  18.6027288  45.6496574  21.6489570
  17.5096044  45.6070114  22.6954460  10.6352304  32.0680272  26.0083806
  10.2949124  31.2688085  26.4104486   9.9291310  32.3681983  25.4360639
  12.5229868  33.2688593  24.3637125  12.2647646  34.1905664  24.3621455
  11.9914909  32.8719028  25.0537589  17.4676057  46.3739380  17.1427210
  17.6412934  45.8085803  16.3901062  17.9604948  47.1740275  16.9606700
   3.2853017  38.3854049  25.2090769   2.7406485  39.1613857  25.3411043
   4.1632367  38.7324854  25.0509890  23.3215448  39.1375803  18.7617510
  23.7646594  38.3883128  18.3636633  22.4441958  39.1285939  18.3791242
  18.4551229  45.6906144  14.2424108  19.1502134  46.3112837  14.4611423
  18.7974380  44.8401496  14.5176486   4.0719039  37.5123945  28.1020926
   3.3300775  37.6606581  28.6885556   3.7511783  37.7732211  27.2387675
  20.3542653  43.1405850  15.7711439  20.8793977  43.4793123  15.0460759
  20.2665005  42.2052865  15.5874574  12.0162701  47.0539924  27.9001316
  12.3249828  46.8089070  28.7724015  12.8138183  47.2586562  27.4120186
  12.0383313  49.2077833  20.1306692  11.5988304  48.7154212  20.8239549
  12.7891430  48.6650801  19.8898767   4.5175652  45.3989374  20.1331320
   5.3433672  45.0993146  19.7529964   4.1669704  44.6296997  20.5821109
   9.4857185  44.7515842  22.2028994   8.8637195  44.0886547  21.9031222
  10.1562052  44.7776974  21.5202642   9.5581713  33.2297630  31.7961500
   9.6069868  34.1059753  31.4139269  10.1004227  32.6875023  31.2233143
  20.0436559  43.7738754  31.0762637  19.2532102  43.7562893  30.5367136
  19.8069913  44.3127047  31.8311673  20.1634434  40.6231220  28.3895365
  20.2132439  40.4581227  29.3310888  20.0548357  39.7558479  27.9993246
  17.4538196  36.6062148  29.7054672  18.3548059  36.4668613  29.4138670
  17.5286171  36.7716603  30.6452850  11.7881001  33.9829003  28.5507858
  10.9184311  34.2762569  28.2790447  12.0240482  34.5669448  29.2715122
  21.6652631  43.0428162  28.6337387  21.3737439  43.4058142  29.4700848
  21.0524762  42.3295170  28.4550719  22.8648313  40.6081041  21.1539957
  23.6995204  41.0470845  21.3177518  23.0007442  40.1319695  20.3348203
  19.9139819  38.1660776  27.1017445  20.3893940  38.3588422  26.2936296
  18.9905384  38.2219962  26.8560829  14.4920035  30.2008620  26.0673279
  15.0101979  30.9369647  25.7419767  14.1375168  30.5072613  26.9020038
  18.6141488  35.0426536  25.3345751  19.5658911  35.1424634  25.3557975
  18.4444938  34.2504805  25.8443835  16.6355867  32.1282119  25.5205151
  16.0405799  32.4087132  24.8251640  16.3505564  32.6176020  26.2921893
  21.0929566  38.2632656  24.4488050  21.0605886  37.3248657  24.6347734
  21.7030189  38.3416693  23.7153875  21.2424054  35.0543699  24.4946333
  20.7263103  34.2702156  24.3076262  22.1264003  34.7262416  24.6592853
  26.9106115  39.3248663  23.5894087  27.6409504  39.0633951  24.1501790
  26.3013061  38.5877385  23.6296155  24.9921413  37.4656525  24.1868538
  24.2654576  37.3312490  23.5785030  24.5768699  37.7733354  24.9925256
  12.8151589  41.1846455  31.9515911  13.7354598  41.3625054  32.1455958
  12.7801172  40.2402500  31.7995611   5.8113661  39.0947490  24.5938692
   6.0299671  40.0264598  24.6126726   6.2239435  38.7355464  25.3793496
  10.6841527  34.6680695  33.9841441  10.5838254  35.6175052  33.9153532
  10.4663069  34.3398934  33.1117511  10.5472797  38.0977834  32.8006503
  10.0639879  38.8978194  33.0070392  10.6333736  38.1085779  31.8473947
   6.4746134  41.9882369  24.8374937   7.4289388  41.9566311  24.7704868
   6.2758658  41.5272993  25.6525163   7.0645516  40.5583485  27.4045734
   7.8838405  41.0527564  27.4280572   7.3382324  39.6415453  27.3763302
  20.1726649  32.9740758  20.4828029  20.9487039  33.4637211  20.7552646
  19.4474783  33.3998813  20.9399899  22.6099207  33.6868378  21.5401970
  23.2043698  33.4464114  20.8295278  22.6825791  32.9675508  22.1675506
   4.8296363  47.5301989  21.8545135   4.6950831  46.7702389  21.2883133
   4.4128425  48.2542888  21.3873924  24.9170280  36.9934578  20.3145391
  24.3569838  37.0627768  21.0876953  24.3113784  36.8175563  19.5944887
   7.9865489  48.4271306  22.0663577   7.8697873  49.3716738  21.9642268
   7.1657935  48.1244867  22.4549376   2.3180431  34.8921619  28.1037931
   2.9639294  34.3820573  28.5925157   2.1097582  35.6290301  28.6781357
  14.8433823  41.9602466  33.6030072  15.7124983  42.1343119  33.2416707
  14.3640574  42.7796883  33.4805801   9.0120003  49.0799567  25.2819506
   9.9147250  49.1123178  25.5986001   8.7857373  48.1500018  25.2965841
  10.7673605  47.8330554  21.9429584   9.8169236  47.8332416  21.8293957
  11.0706091  47.0863289  21.4265619   6.6577922  32.0389236  32.2012946
   7.5209383  31.6826041  32.4116270   6.0843332  31.7003131  32.8888350
  26.5026299  53.6691092  23.0075347  27.1404709  53.5497840  22.3038687
  26.3847142  54.6171936  23.0663299  23.3116005  53.6218520  22.9436871
  22.9734516  53.5059585  22.0557406  24.1805773  53.2209686  22.9237878
  19.1702821  55.4753997  18.9333762  18.6067686  55.3843934  18.1650050
  19.0555216  54.6553901  19.4136255  23.7935788  54.7753372  28.9023077
  23.7824429  54.3806170  28.0303581  23.9556427  54.0419445  29.4956848
  16.7167253  56.9705188  21.7717983  17.5088544  56.6296013  21.3564282
  16.9563903  57.0800164  22.6920136  24.7502379  59.1424965  14.2448227
  24.0990359  59.7279045  13.8582241  25.5446742  59.6731159  14.3043265
  18.6758006  56.2314102  14.6435362  19.4488882  55.6843089  14.5048237
  19.0283405  57.0958351  14.8549823  20.5143049  57.5590484  27.8502261
  20.2232915  58.4636115  27.7348927  21.1500033  57.6007012  28.5646330
  21.4399256  54.9367333  24.4403621  22.0362828  54.7123355  23.7260584
  21.4974227  54.1952078  25.0429068  21.0124284  52.3906768  12.2753812
  21.2649805  51.8688289  11.5137275  20.0748843  52.2272913  12.3780495
  26.0567567  51.3942546  20.0828555  26.8430656  50.9761969  19.7318972
  26.3206271  52.2988638  20.2510203  26.2277644  56.8315397  14.7817212
  25.5923477  56.9050023  15.4938116  25.8975051  57.4208995  14.1036291
  31.4575994  51.3317779  20.9861533  32.1901166  50.7616996  21.2199363
  30.7015350  50.9439380  21.4268039  20.7320573  54.2934874  14.4778186
  20.6156831  53.6179777  15.1459271  20.8422833  53.8067248  13.6610340
  23.0752114  53.7545021  18.1824876  22.7110321  53.2275642  18.8937797
  23.9319230  53.3643490  18.0091361  28.9801415  45.0439354  25.4456142
  28.6484739  45.9134764  25.2217357  28.3847028  44.7275638  26.1250172
  22.7157601  48.7834921  13.1786224  22.8832003  49.6515157  13.5456695
  22.5254770  48.9462202  12.2547514  25.4732934  57.2451900  24.8452055
  25.1733657  58.1476938  24.7367862  25.1283994  56.9784083  25.6973208
  18.9245416  53.6965696  20.8788759  17.9995912  53.5641910  21.0866451
  19.1729829  54.4759916  21.3758701  28.8730078  49.7634440  22.5249492
  27.9646955  49.6949848  22.2308253  28.8217674  50.2406385  23.3531317
  22.6946822  51.2392578  14.1632891  22.5746447  51.6849629  15.0018371
  21.9999410  51.5877896  13.6046429  16.2854227  53.3398970  21.7132548
  16.4146608  53.5933449  22.6271960  15.6051678  53.9326678  21.3937203
  20.4553714  64.0096220  17.8123022  20.3777744  64.9604045  17.8911503
  19.8515358  63.6642092  18.4697949  22.9470944  51.1824085  30.4684389
  22.1704278  51.7418005  30.4587254  23.5861507  51.6680868  30.9899259
  30.7391724  47.9650878  24.3027366  30.0966105  48.2583411  23.6567160
  30.2346653  47.8503798  25.1080563  28.3931888  51.7114051  14.9913225
  29.3049744  51.9441438  14.8160923  27.8841535  52.2951095  14.4288304
  21.2017316  53.9909539  30.0302356  21.9432000  54.5294583  29.7537180
  20.4954301  54.6175827  30.1873908  26.6772656  56.1338679  28.6274518
  27.0856012  55.6921090  27.8829150  25.9549917  55.5591307  28.8808711
  23.0303726  51.0711286  26.0008075  23.8764921  51.4950699  26.1442724
  22.9702363  50.4144910  26.6946638  27.0001470  56.6939870  22.3826807
  26.3710333  56.8585584  21.6802874  26.6127132  57.1081479  23.1537771
  30.8790702  57.6294308  19.7371170  30.1941740  58.0093209  19.1868204
  30.9634551  58.2389634  20.4703118  26.1803171  48.7315654  27.6589248
  25.9364103  49.4857715  27.1223524  26.4563102  49.1101002  28.4936495
  28.1341634  55.2754267  26.3366514  28.3458529  55.9186027  25.6600895
  28.0871382  54.4416583  25.8688444  25.7367863  47.8872087  23.2403086
  24.8752342  48.1853341  23.5319824  25.7630297  48.1042486  22.3084119
  22.5529432  56.4314278  19.6476892  23.0167778  56.7101981  18.8581514
  22.2886230  55.5297722  19.4649982  19.4453513  55.9785759  22.5856655
  20.0154870  56.4073028  21.9474139  20.0361625  55.6968344  23.2840841
  21.4898318  52.5537430  16.4566457  22.1922362  53.0058474  16.9240383
  21.1578947  51.9121249  17.0846350  19.9378680  51.1449187  30.8317666
  19.3077340  51.8265468  31.0653063  19.8314768  51.0332268  29.8870804
  15.2323652  50.8120983  21.7583590  14.4422706  51.0678511  21.2823701
  15.7234900  51.6269321  21.8635631  29.2487462  58.1526222  24.5088871
  30.0704905  57.7506409  24.2271553  29.2449865  58.0494456  25.4604987
  17.1838398  51.1765562  18.7167067  16.3869561  51.2884256  19.2350563
  16.9563990  51.5152214  17.8507958  23.0144065  57.7010265  26.6649582
  23.0788498  58.1630673  27.5007754  22.3054989  57.0707630  26.7931892
  13.5161355  51.0651473  24.1898581  13.7669394  51.9498483  24.4556157
  14.0520904  50.8856075  23.4173673  37.3393455  54.4964971  20.8573843
  36.5857163  53.9272369  20.7017847  37.4740996  54.4627635  21.8044477
  22.7292083  59.3678373  16.5328562  22.5937758  60.2129909  16.9613410
  23.2701895  59.5697650  15.7694496  19.2159422  45.4469953  33.1942917
  18.8226368  44.8936151  33.8690561  20.0325563  45.7580531  33.5849435
  16.1821480  56.8853811  17.1056487  16.6946001  57.6797061  17.2562052
  16.8344193  56.1880101  17.0390089  17.9916365  60.0019567  19.1879240
  18.1682993  60.9237532  19.0000224  18.7873198  59.6877986  19.6173620
  22.1327383  46.8627832  30.7863174  22.8737097  47.4634985  30.7067636
  22.3645306  46.1205470  30.2281216  17.2768721  52.0484199  29.0641404
  17.1622237  51.1469456  29.3648502  16.4213239  52.2947896  28.7126220
  24.3560559  59.9901939  30.6628904  23.9124413  59.2038318  30.3449809
  25.0177773  60.1781090  29.9972795  19.1147680  61.5197741  25.1889583
  19.6655106  61.3914804  24.4166577  18.2759156  61.8192630  24.8384475
  26.4541797  60.2704739  28.6910305  26.4360273  61.0913620  28.1990575
  27.3761717  60.1458814  28.9160447  22.9114851  57.7848869  29.5333814
  23.4443188  57.0237157  29.3033122  22.3828933  57.4922521  30.2757968
  26.0784546  42.8908935  25.0627456  25.7348816  43.7810576  24.9866566
  26.4463509  42.7010592  24.1997041  14.1470397  55.2142465  17.8816058
  14.9845619  55.6239474  17.6649765  14.3248665  54.2741907  17.8516252
  26.0434829  52.8817546  13.5699891  25.5281453  53.6522150  13.8088278
  25.7712138  52.2082682  14.1932952  23.6281940  47.7267247  18.6285129
  22.7723536  47.3374097  18.4490768  24.0408892  47.8059207  17.7684915
  25.1581087  45.2613590  23.0276689  24.6545882  45.2243725  22.2144494
  25.4511694  46.1706333  23.0873345  21.4023973  45.3452320  22.0342870
  22.2676969  45.1495128  21.6748760  21.4701482  45.1162671  22.9612227
  31.0169103  55.6349900  15.5053064  30.2398546  55.2961060  15.0608226
  31.6960584  55.6402524  14.8308029  25.8321132  50.7544638  15.3959672
  25.5271268  51.0690787  16.2469815  26.7851574  50.8326058  15.4387005
  24.2767564  56.9134861  17.0452626  23.7488926  56.1787621  16.7325863
  23.7755067  57.6909538  16.7992594  29.2560410  55.1083882  22.1619672
  28.5984085  55.7983143  22.2499801  30.0600809  55.4980314  22.5053658
  19.0086292  47.5754528  19.4059237  19.5830044  47.3529709  18.6732430
  19.5957274  47.6443222  20.1587839  28.0665869  53.4628254  20.2123614
  28.5797751  54.0958246  20.7145324  28.7167093  52.8629450  19.8466974
  19.3355879  49.6058989  13.4255123  18.4993191  49.9433675  13.7464397
  19.1960649  49.4707968  12.4882260  21.3108959  44.4495776  18.1334307
  20.6573372  44.1344794  17.5090922  21.2689434  43.8271517  18.8594130
  22.4220164  54.7315071  10.0487599  21.5147226  54.5004325  10.2478748
  22.9191196  53.9352691  10.2361580  25.3288243  63.4412579  12.9684285
  24.6549942  63.7444275  13.5769243  25.7154065  64.2441659  12.6189742
  24.5446700  50.9377710  22.4581954  23.6269261  51.1592657  22.3003642
  24.9606843  51.0124020  21.5993662  25.3281748  52.3369126  17.5884635
  26.0753567  52.8490523  17.2791757  25.5973337  52.0153178  18.4489028
  23.6008398  54.8327666  14.5711589  22.6919617  54.5486699  14.6684059
  23.6303482  55.2526745  13.7114896  28.8327665  58.4434256  18.3402756
  28.3789992  57.6025166  18.3967947  28.2021632  59.0795654  18.6777537
  27.7760585  49.3726242  19.5703424  27.0383342  48.8603628  19.9013666
  28.0287358  48.9326623  18.7586701  27.2760604  60.2810753  19.2752575
  27.5683579  60.8415810  18.5564940  27.7859225  60.5739314  20.0305734
  27.8772212  42.1502494  20.1645193  28.1831089  41.2899857  19.8771108
  28.6024817  42.7420114  19.9644187  14.1696568  52.5533180  18.5526791
  13.9720968  51.9602541  17.8277858  13.6143232  52.2485391  19.2702730
  22.1493292  52.4456287  20.6721384  22.2041902  51.4930123  20.5963861
  21.3384494  52.6015726  21.1562683  23.2984486  56.3736410  11.9099667
  22.8603915  55.6572269  11.4505305  24.0394926  56.6012525  11.3484759
  20.0885652  51.0633347  18.4311763  19.2753517  51.3627517  18.8376955
  20.5844646  50.6689035  19.1486245  22.2394230  61.0591104  20.3646028
  22.1970408  61.2851950  19.4354560  23.1556928  60.8254478  20.5131829
  25.6859863  51.5275171  27.2626657  26.0409251  51.7546644  28.1221123
  26.3331995  51.8593548  26.6403912  31.4157600  54.6493607  17.9675986
  31.2775499  54.8395203  17.0397175  31.0593819  55.4112990  18.4244037
  19.5799726  48.6351702  24.0472998  20.2199106  48.4940461  23.3495961
  18.7477257  48.3486216  23.6711600  31.4426980  56.7170134  22.9787258
  31.8763487  56.6245423  23.8270312  32.1558561  56.6927635  22.3407274
  20.3560030  57.9354133  20.1607991  21.1500629  57.4404453  19.9590565
  19.6451723  57.4071996  19.7975696  25.1754875  60.3172228  24.5120358
  25.2291897  60.8863164  25.2798074  24.3069656  60.4874113  24.1474395
  16.6642794  52.0797214  16.2367743  15.7340382  52.0181670  16.4537705
  16.7600266  51.5573167  15.4404384  16.5828343  48.6052027  18.8245985
  16.8435160  49.5197360  18.7155145  17.4045515  48.1376470  18.9742598
  18.0553268  50.0189784  25.9944809  18.7276322  49.8107147  25.3457458
  17.2283055  49.8211870  25.5550042  32.3042530  56.7593835  25.5120143
  32.4978420  57.6639645  25.7579418  32.2043148  56.3001254  26.3458728
  23.9578840  46.6451725  28.0110470  23.3106755  47.3441675  27.9174947
  24.7279856  47.0787869  28.3786718  27.3657638  56.9100577  31.0861024
  27.2143145  56.6811129  30.1691107  27.3562318  57.8671179  31.0992369
  24.1342975  54.4832490  26.0707290  25.0635035  54.6343650  25.8976257
  23.7134005  54.5716511  25.2155937  22.9331306  58.5083155  23.8405828
  22.7942392  58.1401939  24.7131766  22.1445903  59.0230794  23.6689785
  23.5279458  63.6092251  15.1831364  23.7031214  63.1380294  15.9976987
  22.8412246  64.2358017  15.4112625  24.4836522  57.8864757  21.2294665
  24.1486354  57.8465527  22.1252315  23.9840467  57.2209473  20.7565076
  18.4580765  53.2932387  26.7547247  18.3200563  52.5612626  27.3558786
  19.3685689  53.2041287  26.4731434  27.4195713  55.2320792  11.5031725
  26.8024884  54.5067620  11.4064778  26.9512202  55.9930152  11.1598799
  21.0863066  53.0052347  26.2430926  21.7962685  52.3645539  26.2017545
  21.0432374  53.2565242  27.1657107  29.0749845  59.9419700  29.1637505
  29.0162391  59.2578920  28.4968088  29.4769363  60.6838690  28.7118131
  19.7992000  49.9917565  28.0626566  19.2629357  49.5408303  28.7148162
  19.2108709  50.1263473  27.3197030  18.0940544  66.7581614  21.9571224
  18.3337142  67.3900138  22.6350243  17.2509740  66.4069654  22.2436584
  29.0767252  57.9059284  27.3951485  28.1894031  57.5685206  27.5177884
  29.6465803  57.1742315  27.6320250  10.7296399  54.2383376  20.7194536
  11.4167439  53.9245106  20.1315552  10.5744528  55.1424740  20.4461788
  15.5331121  49.1273572  25.1479560  15.4489310  48.5199242  24.4129970
  14.7113828  49.6182591  25.1489057  22.6068406  62.5660736  24.3612728
  22.5338577  63.3715708  24.8732033  22.1645799  62.7652702  23.5360750
  22.3958185  61.8032506  17.8715550  21.6125707  62.3454187  17.9653774
  23.0950930  62.3206486  18.2709791  25.7054835  47.6127136  20.5149755
  26.2023535  46.8597098  20.1950825  24.9341817  47.6491452  19.9492965
  33.5584593  53.3167501  22.1568047  33.5474469  54.1992217  21.7861980
  32.6901972  52.9639052  21.9622584  25.0667089  62.4647570  26.5170887
  25.7795061  63.0995035  26.4446788  24.5757118  62.5611436  25.7010889
  26.7884616  56.3698823  18.0888179  25.8540895  56.4900285  17.9192883
  26.9661284  55.4671290  17.8248188  22.2889804  49.7544519  20.2421440
  21.9187592  49.2015559  20.9302345  22.7848896  49.1502652  19.6896440
  30.1757167  52.2116142  18.6238213  30.6417619  53.0444134  18.5498515
  30.6264668  51.7461124  19.3283471  20.1179003  60.2142014  27.3376458
  20.8188462  60.8478497  27.4905852  19.6474118  60.5556745  26.5772097
  28.2433398  58.5559964  15.6224365  28.5193242  58.4416558  16.5318239
  27.3737897  58.1577448  15.5836538  28.1473830  44.5796729  22.6629114
  27.2336910  44.8100956  22.8311321  28.5766931  44.6635173  23.5143146
  27.9180289  52.7686621  25.1629008  27.2651739  53.0162529  24.5081461
  28.2960668  51.9550759  24.8291485  24.8787462  62.8046314  19.2657178
  25.0609857  61.9867970  19.7284931  25.7020448  63.0214007  18.8282068
  25.2129628  61.7314500  16.5272227  25.7417394  61.2206954  15.9142389
  25.4757847  61.4157030  17.3917760  23.9667862  53.5106432  31.6495045
  23.2908499  53.4100562  32.3197420  24.7895495  53.3545646  32.1131042
  15.7146721  59.7478369  24.2707560  16.3000157  59.0022057  24.4035465
  15.5171559  60.0582326  25.1544224  18.5685376  62.7829616  19.2870003
  17.8995751  63.2675744  18.8034043  18.4298246  63.0298837  20.2013381
  10.3064375  52.3183969  22.9912004  10.3448475  51.7847560  23.7849122
   9.8004668  51.7919175  22.3722981  22.7090644  64.8173360  25.8852661
  23.2608952  64.9804981  26.6501746  23.0496838  65.4077798  25.2132686
  17.6855138  47.1648510  26.4874546  17.7496464  48.0263340  26.0751944
  17.6222258  46.5522511  25.7546904  17.1607410  49.2371642  30.1347580
  17.7879449  48.8548719  30.7485104  16.3035329  49.0185844  30.5003273
  27.5601519  59.6434617  31.7401316  28.1041423  60.2564576  31.2456270
  26.9788364  60.2014196  32.2568329  13.9372953  51.0448071  16.0665935
  14.2326394  50.1358750  16.0132989  13.0360989  51.0235811  15.7446937
  25.8459032  62.7655335  22.8716343  25.7210171  61.9645075  22.3627289
  26.5038123  63.2601529  22.3830313  17.4667200  49.1204068  22.0493484
  16.7453786  49.7340035  21.9100957  18.2560456  49.6561833  21.9710130
  27.9093940  60.5664355  24.4995893  26.9624276  60.4469707  24.4274220
  28.2576713  59.6786853  24.5822155  20.2693513  46.4558494  28.3234135
  20.7927915  46.7020791  29.0860445  20.0505847  47.2878529  27.9037273
  15.6660795  48.7262169  16.1905260  15.3373501  47.8459548  16.0080366
  16.0200165  48.6709838  17.0781649  24.9140373  60.3617072  20.7000246
  24.7665336  59.4333779  20.8807816  25.7393867  60.3837162  20.2157321
  18.7802618  49.0135139  16.5580738  19.1198690  49.5421060  15.8359346
  19.2274738  49.3515545  17.3339304  28.5174495  61.1845630  21.7865118
  29.4421043  60.9788492  21.6489570  28.3489799  60.9362031  22.6954460
  21.4746059  47.3972189  26.0083806  21.1342879  46.5980002  26.4104486
  20.7685065  47.6973900  25.4360639  22.1262530  44.4821502  24.4611129
  22.9488600  44.0081980  24.3390019  22.3700594  45.2611986  24.9609815
  20.7670765  47.5109760  14.7574031  21.4879127  47.8891013  14.2537747
  20.1436069  48.2298637  14.8609009  24.9101888  48.2154909  15.6932363
  25.1265502  49.0979547  15.3921191  24.4295955  47.8241123  14.9638005
  19.6501109  51.1740622  22.2703108  19.5045690  51.4880926  23.1627389
  19.1726313  51.7925523  21.7174006  21.5097492  48.1643170  22.3183997
  21.4959061  47.2684264  21.9816295  22.2269920  48.1713834  22.9522283
  23.3623623  48.5980511  24.3637125  23.1041401  49.5197581  24.3621455
  22.8308663  48.2010945  25.0537589  28.3069811  61.7031298  17.1427210
  28.4806689  61.1377720  16.3901062  28.7998703  62.5032193  16.9606700
  14.1246771  53.7145967  25.2090769  13.5800239  54.4905775  25.3411043
  15.0026121  54.0616771  25.0509890  20.9134388  47.0457551  17.5871567
  21.0350299  46.1174197  17.7862455  20.6236430  47.0596237  16.6749883
  23.7825578  44.7312461  20.7238287  23.8047275  44.7951794  19.7690267
  24.1993637  43.8916970  20.9178793  34.1609203  54.4667721  18.7617510
  34.6040349  53.7175046  18.3636633  33.2835713  54.4577857  18.3791242
  29.2944984  61.0198062  14.2424108  29.9895889  61.6404755  14.4611423
  29.6368134  60.1693413  14.5176486  14.9112793  52.8415863  28.1020926
  14.1694529  52.9898498  28.6885556  14.5905537  53.1024129  27.2387675
  31.1936407  58.4697768  15.7711439  31.7187731  58.8085040  15.0460759
  31.1058760  57.5344783  15.5874574  22.8556456  62.3831841  27.9001316
  23.1643582  62.1380988  28.7724015  23.6531938  62.5878480  27.4120186
  22.8777068  64.5369751  20.1306692  22.4382058  64.0446130  20.8239549
  23.6285185  63.9942719  19.8898767  15.3569407  60.7281292  20.1331320
  16.1827427  60.4285064  19.7529964  15.0063459  59.9588914  20.5821109
  20.3250940  60.0807760  22.2028994  19.7030949  59.4178465  21.9031222
  20.9955807  60.1068892  21.5202642  13.5578012  58.6467618  21.0920254
  12.7209920  58.2189793  20.9104255  13.5301657  58.8400062  22.0291045
  20.3975467  48.5589548  31.7961500  20.4463623  49.4351671  31.4139269
  20.9397982  48.0166941  31.2233143  30.8830313  59.1030671  31.0762637
  30.0925857  59.0854810  30.5367136  30.6463668  59.6418965  31.8311673
  31.0028188  55.9523138  28.3895365  31.0526193  55.7873145  29.3310888
  30.8942112  55.0850397  27.9993246  19.8864447  58.6311683  15.6787454
  20.0352567  59.3147148  15.0254127  20.6930890  58.6116773  16.1936910
  28.2931951  51.9354066  29.7054672  29.1941813  51.7960531  29.4138670
  28.3679925  52.1008521  30.6452850  22.6274756  49.3120920  28.5507858
  21.7578065  49.6054487  28.2790447  22.8634236  49.8961365  29.2715122
  32.5046385  58.3720079  28.6337387  32.2131193  58.7350060  29.4700848
  31.8918516  57.6587088  28.4550719  33.7042067  55.9372959  21.1539957
  34.5388959  56.3762763  21.3177518  33.8401196  55.4611612  20.3348203
  30.7533573  53.4952694  27.1017445  31.2287695  53.6880340  26.2936296
  29.8299139  53.5511880  26.8560829  17.6417080  54.6576861  16.6848523
  17.3963122  53.7539191  16.8828733  17.8112994  54.6594011  15.7428001
  25.3313790  45.5300537  26.0673279  25.8495734  46.2661564  25.7419767
  24.9768922  45.8364531  26.9020038  16.9112727  50.3905219  14.1834685
  16.2181972  50.4649574  13.5274721  16.6664479  49.6265562  14.7056202
  25.5826384  41.9500820  21.5874175  25.8628138  41.2824009  22.2134602
  26.3676991  42.1429916  21.0748839  23.3859852  61.1259814  13.1499202
  22.8133819  61.7450001  12.6969674  23.9592646  61.6759176  13.6839124
  29.4535242  50.3718454  25.3345751  30.4052665  50.4716552  25.3557975
  29.2838693  49.5796722  25.8443835  27.4749622  47.4574037  25.5205151
  26.8799554  47.7379050  24.8251640  27.1899318  47.9467938  26.2921893
  26.6057112  61.4096964  14.2807784  27.5387785  61.3442526  14.4840660
  26.5180325  62.2453231  13.8222317  29.2345129  60.7262834  11.2411732
  29.1558760  60.3922698  12.1347490  30.0554796  61.2184602  11.2403204
  31.9323320  53.5924574  24.4488050  31.8999640  52.6540574  24.6347734
  32.5423944  53.6708610  23.7153875  23.7706651  52.4620627  10.4915254
  24.7165756  52.3326835  10.5603672  23.3920896  51.7235289  10.9684682
  32.0817809  50.3835617  24.4946333  31.5656857  49.5994074  24.3076262
  32.9657757  50.0554334  24.6592853  29.7428535  44.1276633  20.4542146
  29.5453357  43.8191721  21.3385478  30.3528241  44.8538272  20.5840076
  37.7499870  54.6540580  23.5894087  38.4803258  54.3925869  24.1501790
  37.1406815  53.9169302  23.6296155  35.8315167  52.7948443  24.1868538
  35.1048331  52.6604408  23.5785030  35.4162454  53.1025272  24.9925256
  23.6545343  56.5138373  31.9515911  24.5748353  56.6916972  32.1455958
  23.6194926  55.5694418  31.7995611  21.9549568  50.3870603  10.4270139
  21.0481023  50.0903716  10.5032853  22.2325549  50.0900421   9.5604426
  12.8727508  51.7076966  20.8769186  12.5530293  50.8542275  20.5843560
  12.3260937  51.9225545  21.6327153  16.6507416  54.4239407  24.5938692
  16.8693426  55.3556515  24.6126726  17.0633190  54.0647382  25.3793496
  23.5711634  44.9307493  16.5814381  22.7612362  44.5854578  16.9569627
  24.2596051  44.6215036  17.1701992  25.5002182  44.0085540  18.2038677
  26.0533221  44.4280993  18.8628701  25.7372268  43.0821288  18.2461633
  21.5235281  49.9972613  33.9841441  21.4232008  50.9466970  33.9153532
  21.3056823  49.6690852  33.1117511  12.7415768  55.3279878  22.8462307
  12.0479240  54.9133831  22.3332262  13.4888759  55.3700414  22.2495726
  28.8780989  46.1186065  17.7117342  28.2979658  46.7770869  17.3295394
  28.6116922  45.2963409  17.3004759  27.3284556  45.5191122  19.9138662
  27.8284334  45.6307657  19.1052981  27.9720163  45.2152175  20.5539470
  21.3866551  53.4269752  32.8006503  20.9033633  54.2270112  33.0070392
  21.4727490  53.4377697  31.8473947  14.6552511  55.2598132  20.7228322
  14.6323199  55.3585819  19.7710205  14.9653147  56.1063282  21.0445488
  17.3139889  57.3174287  24.8374937  18.2683142  57.2858229  24.7704868
  17.1152412  56.8564910  25.6525163  17.9039271  55.8875403  27.4045734
  18.7232160  56.3819481  27.4280572  18.1776079  54.9707371  27.3763302
  27.6605867  48.2786155  16.7673690  26.7731722  48.5635806  16.5493885
  28.0759856  48.1179918  15.9200967  31.0120403  48.3032676  20.4828029
  31.7880793  48.7929128  20.7552646  30.2868537  48.7290730  20.9399899
  33.4492962  49.0160295  21.5401970  34.0437453  48.7756031  20.8295278
  33.5219546  48.2967426  22.1675506  15.6690118  62.8593906  21.8545135
  15.5344586  62.0994307  21.2883133  15.2522180  63.5834806  21.3873924
  26.8049081  58.0430830  10.8621710  27.5084931  58.2480832  11.4779366
  26.0811729  58.6107592  11.1270793  27.6346891  53.7940691  16.9823980
  27.5782092  54.2509242  16.1431613  28.1875233  53.0331376  16.8046823
  31.4451697  49.5830423  17.8074100  31.1888631  49.1827059  18.6382307
  30.8204565  50.2974217  17.6824239  35.7564035  52.3226496  20.3145391
  35.1963593  52.3919685  21.0876953  35.1507538  52.1467481  19.5944887
  18.8259243  63.7563223  22.0663577  18.7091628  64.7008656  21.9642268
  18.0051690  63.4536785  22.4549376  28.7135778  58.4813359  12.9120170
  29.5481382  58.0494557  12.7297645  28.5520121  58.3095373  13.8397064
  28.3681670  54.9845472  14.2776509  28.3130474  54.8189744  13.3364953
  27.7427725  55.6921505  14.4338699  13.1574185  50.2213537  28.1037931
  13.8033049  49.7112491  28.5925157  12.9491336  50.9582218  28.6781357
  25.6827577  57.2894384  33.6030072  26.5518737  57.4635036  33.2416707
  25.2034329  58.1088801  33.4805801  21.6777796  44.4853581  13.8561828
  21.6656465  45.4295421  14.0130099  22.5701218  44.3023727  13.5621289
  19.8513758  64.4091485  25.2819506  20.7541004  64.4415095  25.5986001
  19.6251128  63.4791936  25.2965841  21.6067360  63.1622472  21.9429584
  20.6562991  63.1624333  21.8293957  21.9099846  62.4155206  21.4265619
  25.4929915  41.0796358  18.1107764  24.7262311  40.5254845  18.2564447
  25.9040620  41.1518227  18.9721916  17.4971676  47.3681154  32.2012946
  18.3603138  47.0117959  32.4116270  16.9237087  47.0295049  32.8888350
  37.3420053  68.9983010  23.0075347  37.9798463  68.8789757  22.3038687
  37.2240896  69.9463854  23.0663299  34.1509759  68.9510438  22.9436871
  33.8128271  68.8351503  22.0557406  35.0199528  68.5501603  22.9237878
  30.0096575  70.8045915  18.9333762  29.4461440  70.7135851  18.1650050
  29.8948970  69.9845819  19.4136255  34.6329542  70.1045290  28.9023077
  34.6218183  69.7098088  28.0303581  34.7950182  69.3711362  29.4956848
  27.5561007  72.2997106  21.7717983  28.3482299  71.9587931  21.3564282
  27.7957657  72.4092081  22.6920136  35.5896134  74.4716882  14.2448227
  34.9384114  75.0570963  13.8582241  36.3840497  75.0023077  14.3043265
  29.5151761  71.5606019  14.6435362  30.2882637  71.0135006  14.5048237
  29.8677160  72.4250269  14.8549823  31.3536804  72.8882402  27.8502261
  31.0626670  73.7928033  27.7348927  31.9893788  72.9298929  28.5646330
  32.2793010  70.2659250  24.4403621  32.8756583  70.0415273  23.7260584
  32.3367982  69.5243996  25.0429068  31.8518039  67.7198686  12.2753812
  32.1043559  67.1980207  11.5137275  30.9142598  67.5564831  12.3780495
  36.8961322  66.7234464  20.0828555  37.6824411  66.3053887  19.7318972
  37.1600026  67.6280556  20.2510203  37.0671399  72.1607314  14.7817212
  36.4317232  72.2341941  15.4938116  36.7368805  72.7500913  14.1036291
  42.2969749  66.6609697  20.9861533  43.0294921  66.0908914  21.2199363
  41.5409104  66.2731298  21.4268039  31.5714328  69.6226791  14.4778186
  31.4550586  68.9471695  15.1459271  31.6816587  69.1359165  13.6610340
  33.9145868  69.0836939  18.1824876  33.5504076  68.5567560  18.8937797
  34.7712984  68.6935408  18.0091361  39.8195169  60.3731271  25.4456142
  39.4878494  61.2426682  25.2217357  39.2240782  60.0567555  26.1250172
  33.5551355  64.1126838  13.1786224  33.7225758  64.9807075  13.5456695
  33.3648525  64.2754120  12.2547514  36.3126689  72.5743817  24.8452055
  36.0127412  73.4768856  24.7367862  35.9677748  72.3076000  25.6973208
  29.7639170  69.0257614  20.8788759  28.8389667  68.8933828  21.0866451
  30.0123583  69.8051833  21.3758701  39.7123832  65.0926357  22.5249492
  38.8040710  65.0241766  22.2308253  39.6611428  65.5698302  23.3531317
  33.5340576  66.5684496  14.1632891  33.4140202  67.0141547  15.0018371
  32.8393165  66.9169813  13.6046429  27.1247981  68.6690888  21.7132548
  27.2540362  68.9225367  22.6271960  26.4445432  69.2618596  21.3937203
  31.2947468  79.3388138  17.8123022  31.2171498  80.2895963  17.8911503
  30.6909112  78.9934010  18.4697949  33.7864698  66.5116003  30.4684389
  33.0098032  67.0709923  30.4587254  34.4255261  66.9972786  30.9899259
  41.5785479  63.2942796  24.3027366  40.9359859  63.5875329  23.6567160
  41.0740407  63.1795716  25.1080563  39.2325642  67.0405969  14.9913225
  40.1443499  67.2733356  14.8160923  38.7235290  67.6243013  14.4288304
  32.0411070  69.3201456  30.0302356  32.7825755  69.8586500  29.7537180
  31.3348056  69.9467745  30.1873908  37.5166410  71.4630597  28.6274518
  37.9249766  71.0213007  27.8829150  36.7943672  70.8883224  28.8808711
  33.8697480  66.4003204  26.0008075  34.7158675  66.8242617  26.1442724
  33.8096118  65.7436828  26.6946638  37.8395225  72.0231787  22.3826807
  37.2104087  72.1877502  21.6802874  37.4520887  72.4373397  23.1537771
  41.7184457  72.9586225  19.7371170  41.0335495  73.3385127  19.1868204
  41.8028306  73.5681552  20.4703118  37.0196926  64.0607572  27.6589248
  36.7757857  64.8149632  27.1223524  37.2956856  64.4392920  28.4936495
  38.9735388  70.6046184  26.3366514  39.1852284  71.2477944  25.6600895
  38.9265137  69.7708501  25.8688444  36.5761617  63.2164005  23.2403086
  35.7146096  63.5145259  23.5319824  36.6024052  63.4334404  22.3084119
  33.3923187  71.7606196  19.6476892  33.8561532  72.0393898  18.8581514
  33.1279985  70.8589640  19.4649982  30.2847268  71.3077677  22.5856655
  30.8548625  71.7364945  21.9474139  30.8755380  71.0260262  23.2840841
  32.3292073  67.8829348  16.4566457  33.0316116  68.3350392  16.9240383
  31.9972701  67.2413167  17.0846350  30.7772434  66.4741104  30.8317666
  30.1471095  67.1557385  31.0653063  30.6708522  66.3624186  29.8870804
  26.0717407  66.1412901  21.7583590  25.2816461  66.3970429  21.2823701
  26.5628654  66.9561238  21.8635631  40.0881216  73.4818140  24.5088871
  40.9098660  73.0798327  24.2271553  40.0843619  73.3786374  25.4604987
  28.0232152  66.5057480  18.7167067  27.2263315  66.6176174  19.2350563
  27.7957744  66.8444132  17.8507958  33.8537820  73.0302183  26.6649582
  33.9182252  73.4922590  27.5007754  33.1448744  72.3999548  26.7931892
  24.3555110  66.3943391  24.1898581  24.6063148  67.2790401  24.4556157
  24.8914658  66.2147993  23.4173673  48.1787209  69.8256888  20.8573843
  47.4250918  69.2564286  20.7017847  48.3134750  69.7919553  21.8044477
  33.5685837  74.6970290  16.5328562  33.4331512  75.5421826  16.9613410
  34.1095650  74.8989568  15.7694496  30.0553177  60.7761870  33.1942917
  29.6620123  60.2228069  33.8690561  30.8719317  61.0872449  33.5849435
  27.0215235  72.2145729  17.1056487  27.5339755  73.0088979  17.2562052
  27.6737948  71.5172019  17.0390089  28.8310119  75.3311485  19.1879240
  29.0076748  76.2529450  19.0000224  29.6266953  75.0169904  19.6173620
  32.9721138  62.1919749  30.7863174  33.7130851  62.7926903  30.7067636
  33.2039061  61.4497387  30.2281216  28.1162476  67.3776117  29.0641404
  28.0015991  66.4761374  29.3648502  27.2606994  67.6239813  28.7126220
  35.1954314  75.3193857  30.6628904  34.7518168  74.5330236  30.3449809
  35.8571527  75.5073008  29.9972795  29.9541435  76.8489659  25.1889583
  30.5048860  76.7206722  24.4166577  29.1152911  77.1484548  24.8384475
  37.2935552  75.5996657  28.6910305  37.2754027  76.4205538  28.1990575
  38.2155472  75.4750732  28.9160447  33.7508606  73.1140786  29.5333814
  34.2836943  72.3529075  29.3033122  33.2222687  72.8214438  30.2757968
  36.9178301  58.2200852  25.0627456  36.5742570  59.1102494  24.9866566
  37.2857263  58.0302510  24.1997041  24.9864152  70.5434383  17.8816058
  25.8239374  70.9531391  17.6649765  25.1642419  69.6033825  17.8516252
  36.8828584  68.2109463  13.5699891  36.3675207  68.9814068  13.8088278
  36.6105892  67.5374600  14.1932952  34.4675695  63.0559164  18.6285129
  33.6117291  62.6666015  18.4490768  34.8802646  63.1351125  17.7684915
  35.9974841  60.5905508  23.0276689  35.4939637  60.5535643  22.2144494
  36.2905448  61.4998250  23.0873345  32.2417727  60.6744237  22.0342870
  33.1070724  60.4787046  21.6748760  32.3095236  60.4454589  22.9612227
  41.8562858  70.9641818  15.5053064  41.0792301  70.6252978  15.0608226
  42.5354339  70.9694441  14.8308029  36.6714887  66.0836556  15.3959672
  36.3665022  66.3982705  16.2469815  37.6245329  66.1617975  15.4387005
  35.1161319  72.2426779  17.0452626  34.5882680  71.5079538  16.7325863
  34.6148821  73.0201455  16.7992594  40.0954165  70.4375799  22.1619672
  39.4377839  71.1275061  22.2499801  40.8994564  70.8272231  22.5053658
  29.8480046  62.9046445  19.4059237  30.4223798  62.6821627  18.6732430
  30.4351029  62.9735140  20.1587839  38.9059623  68.7920172  20.2123614
  39.4191505  69.4250164  20.7145324  39.5560847  68.1921368  19.8466974
  30.1749633  64.9350906  13.4255123  29.3386946  65.2725593  13.7464397
  30.0354403  64.7999886  12.4882260  32.1502714  59.7787694  18.1334307
  31.4967126  59.4636711  17.5090922  32.1083188  59.1563435  18.8594130
  33.2613919  70.0606989  10.0487599  32.3540981  69.8296243  10.2478748
  33.7584951  69.2644608  10.2361580  36.1681998  78.7704496  12.9684285
  35.4943696  79.0736193  13.5769243  36.5547820  79.5733577  12.6189742
  35.3840454  66.2669628  22.4581954  34.4663016  66.4884575  22.3003642
  35.8000598  66.3415938  21.5993662  36.1675502  67.6661043  17.5884635
  36.9147321  68.1782441  17.2791757  36.4367092  67.3445096  18.4489028
  34.4402152  70.1619584  14.5711589  33.5313372  69.8778617  14.6684059
  34.4697236  70.5818663  13.7114896  39.6721420  73.7726174  18.3402756
  39.2183747  72.9317083  18.3967947  39.0415386  74.4087572  18.6777537
  38.6154339  64.7018160  19.5703424  37.8777096  64.1895546  19.9013666
  38.8681113  64.2618541  18.7586701  38.1154359  75.6102670  19.2752575
  38.4077333  76.1707727  18.5564940  38.6252979  75.9031231  20.0305734
  38.7165967  57.4794412  20.1645193  39.0224843  56.6191775  19.8771108
  39.4418571  58.0712032  19.9644187  25.0090323  67.8825098  18.5526791
  24.8114722  67.2894459  17.8277858  24.4536987  67.5777308  19.2702730
  32.9887046  67.7748205  20.6721384  33.0435656  66.8222041  20.5963861
  32.1778248  67.9307644  21.1562683  34.1378240  71.7028328  11.9099667
  33.6997670  70.9864187  11.4505305  34.8788681  71.9304443  11.3484759
  30.9279406  66.3925264  18.4311763  30.1147272  66.6919435  18.8376955
  31.4238400  65.9980953  19.1486245  33.0787984  76.3883021  20.3646028
  33.0364163  76.6143868  19.4354560  33.9950683  76.1546396  20.5131829
  36.5253618  66.8567089  27.2626657  36.8803006  67.0838562  28.1221123
  37.1725749  67.1885466  26.6403912  42.2551355  69.9785525  17.9675986
  42.1169253  70.1687121  17.0397175  41.8987574  70.7404908  18.4244037
  30.4193481  63.9643620  24.0472998  31.0592860  63.8232379  23.3495961
  29.5871012  63.6778133  23.6711600  42.2820734  72.0462052  22.9787258
  42.7157241  71.9537341  23.8270312  42.9952315  72.0219552  22.3407274
  31.1953785  73.2646050  20.1607991  31.9894383  72.7696370  19.9590565
  30.4845477  72.7363913  19.7975696  36.0148629  75.6464146  24.5120358
  36.0685652  76.2155082  25.2798074  35.1463411  75.8166031  24.1474395
  27.5036548  67.4089132  16.2367743  26.5734136  67.3473588  16.4537705
  27.5994020  66.8865085  15.4404384  27.4222097  63.9343945  18.8245985
  27.6828915  64.8489278  18.7155145  28.2439270  63.4668387  18.9742598
  28.8947023  65.3481702  25.9944809  29.5670076  65.1399064  25.3457458
  28.0676809  65.1503788  25.5550042  43.1436284  72.0885752  25.5120143
  43.3372174  72.9931563  25.7579418  43.0436902  71.6293171  26.3458728
  34.7972595  61.9743643  28.0110470  34.1500510  62.6733593  27.9174947
  35.5673610  62.4079787  28.3786718  38.2051393  72.2392495  31.0861024
  38.0536899  72.0103047  30.1691107  38.1956072  73.1963097  31.0992369
  34.9736729  69.8124408  26.0707290  35.9028789  69.9635567  25.8976257
  34.5527759  69.9008429  25.2155937  33.7725061  73.8375072  23.8405828
  33.6336147  73.4693857  24.7131766  32.9839657  74.3522712  23.6689785
  34.3673213  78.9384169  15.1831364  34.5424969  78.4672212  15.9976987
  33.6806001  79.5649935  15.4112625  35.3230276  73.2156675  21.2294665
  34.9880109  73.1757445  22.1252315  34.8234222  72.5501391  20.7565076
  29.2974520  68.6224305  26.7547247  29.1594318  67.8904544  27.3558786
  30.2079443  68.5333205  26.4731434  38.2589468  70.5612709  11.5031725
  37.6418638  69.8359538  11.4064778  37.7905956  71.3222070  11.1598799
  31.9256821  68.3344264  26.2430926  32.6356439  67.6937457  26.2017545
  31.8826129  68.5857159  27.1657107  39.9143599  75.2711618  29.1637505
  39.8556145  74.5870838  28.4968088  40.3163118  76.0130608  28.7118131
  30.6385755  65.3209482  28.0626566  30.1023112  64.8700221  28.7148162
  30.0502463  65.4555391  27.3197030  28.9334298  82.0873532  21.9571224
  29.1730896  82.7192056  22.6350243  28.0903495  81.7361572  22.2436584
  30.0488014  64.7798134  10.6253029  29.1717480  64.6586934  10.2615276
  30.5245767  63.9884212  10.3731918  39.9161007  73.2351202  27.3951485
  39.0287785  72.8977123  27.5177884  40.4859558  72.5034233  27.6320250
  21.5690154  69.5675293  20.7194536  22.2561194  69.2537023  20.1315552
  21.4138282  70.4716658  20.4461788  26.3724876  64.4565490  25.1479560
  26.2883065  63.8491159  24.4129970  25.5507582  64.9474508  25.1489057
  33.4462160  77.8952654  24.3612728  33.3732331  78.7007625  24.8732033
  33.0039553  78.0944620  23.5360750  33.2351940  77.1324424  17.8715550
  32.4519462  77.6746104  17.9653774  33.9344685  77.6498404  18.2709791
  36.5448590  62.9419053  20.5149755  37.0417289  62.1889016  20.1950825
  35.7735571  62.9783370  19.9492965  44.3978347  68.6459419  22.1568047
  44.3868223  69.5284134  21.7861980  43.5295727  68.2930970  21.9622584
  35.9060844  77.7939488  26.5170887  36.6188816  78.4286953  26.4446788
  35.4150872  77.8903354  25.7010889  37.6278370  71.6990741  18.0888179
  36.6934649  71.8192203  17.9192883  37.8055039  70.7963207  17.8248188
  33.1283558  65.0836436  20.2421440  32.7581346  64.5307477  20.9302345
  33.6242651  64.4794570  19.6896440  41.0150922  67.5408060  18.6238213
  41.4811374  68.3736052  18.5498515  41.4658422  67.0753042  19.3283471
  30.9572757  75.5433931  27.3376458  31.6582217  76.1770414  27.4905852
  30.4867872  75.8848663  26.5772097  39.0827153  73.8851881  15.6224365
  39.3586997  73.7708476  16.5318239  38.2131652  73.4869366  15.5836538
  38.9867585  59.9088647  22.6629114  38.0730664  60.1392874  22.8311321
  39.4160686  59.9927091  23.5143146  38.7574043  68.0978539  25.1629008
  38.1045493  68.3454446  24.5081461  39.1354423  67.2842677  24.8291485
  35.7181217  78.1338232  19.2657178  35.9003611  77.3159888  19.7284931
  36.5414203  78.3505924  18.8282068  36.0523382  77.0606417  16.5272227
  36.5811149  76.5498872  15.9142389  36.3151602  76.7448947  17.3917760
  34.8061616  68.8398350  31.6495045  34.1302253  68.7392479  32.3197420
  35.6289250  68.6837564  32.1131042  26.5540475  75.0770287  24.2707560
  27.1393912  74.3313974  24.4035465  26.3565314  75.3874243  25.1544224
  29.4079130  78.1121534  19.2870003  28.7389506  78.5967662  18.8034043
  29.2692000  78.3590754  20.2013381  21.1458130  67.6475887  22.9912004
  21.1842229  67.1139477  23.7849122  20.6398423  67.1211092  22.3722981
  33.5484399  80.1465277  25.8852661  34.1002707  80.3096899  26.6501746
  33.8890592  80.7369715  25.2132686  28.5248892  62.4940427  26.4874546
  28.5890219  63.3555258  26.0751944  28.4616012  61.8814429  25.7546904
  28.0001165  64.5663560  30.1347580  28.6273203  64.1840637  30.7485104
  27.1429084  64.3477762  30.5003273  38.3995273  74.9726535  31.7401316
  38.9435177  75.5856493  31.2456270  37.8182118  75.5306113  32.2568329
  24.7766707  66.3739989  16.0665935  25.0720149  65.4650667  16.0132989
  23.8754743  66.3527728  15.7446937  36.6852786  78.0947253  22.8716343
  36.5603926  77.2936993  22.3627289  37.3431877  78.5893446  22.3830313
  28.3060954  64.4495985  22.0493484  27.5847540  65.0631953  21.9100957
  29.0954210  64.9853750  21.9710130  38.7487695  75.8956273  24.4995893
  37.8018030  75.7761624  24.4274220  39.0970468  75.0078771  24.5822155
  31.1087268  61.7850412  28.3234135  31.6321670  62.0312709  29.0860445
  30.8899601  62.6170447  27.9037273  26.5054549  64.0554087  16.1905260
  26.1767255  63.1751465  16.0080366  26.8593920  64.0001755  17.0781649
  35.7534128  75.6908989  20.7000246  35.6059090  74.7625697  20.8807816
  36.5787621  75.7129080  20.2157321  29.6196372  64.3427056  16.5580738
  29.9592445  64.8712978  15.8359346  30.0668493  64.6807462  17.3339304
  39.3568250  76.5137548  21.7865118  40.2814797  76.3080409  21.6489570
  39.1883553  76.2653949  22.6954460  32.3139813  62.7264107  26.0083806
  31.9736633  61.9271920  26.4104486  31.6078819  63.0265818  25.4360639
  32.9656285  59.8113419  24.4611129  33.7882354  59.3373898  24.3390019
  33.2094348  60.5903903  24.9609815  31.6064519  62.8401678  14.7574031
  32.3272882  63.2182931  14.2537747  30.9829823  63.5590555  14.8609009
  35.7495642  63.5446827  15.6932363  35.9659257  64.4271465  15.3921191
  35.2689709  63.1533040  14.9638005  30.4894864  66.5032540  22.2703108
  30.3439444  66.8172843  23.1627389  30.0120067  67.1217440  21.7174006
  32.3491246  63.4935088  22.3183997  32.3352815  62.5976181  21.9816295
  33.0663675  63.5005752  22.9522283  34.2017377  63.9272428  24.3637125
  33.9435155  64.8489499  24.3621455  33.6702418  63.5302863  25.0537589
  39.1463566  77.0323215  17.1427210  39.3200443  76.4669638  16.3901062
  39.6392457  77.8324110  16.9606700  24.9640526  69.0437885  25.2090769
  24.4193994  69.8197692  25.3411043  25.8419876  69.3908689  25.0509890
  31.7528142  62.3749468  17.5871567  31.8744054  61.4466115  17.7862455
  31.4630185  62.3888154  16.6749883  34.6219333  60.0604379  20.7238287
  34.6441030  60.1243712  19.7690267  35.0387392  59.2208887  20.9178793
  45.0002957  69.7959638  18.7617510  45.4434103  69.0466964  18.3636633
  44.1229467  69.7869775  18.3791242  40.1338738  76.3489980  14.2424108
  40.8289643  76.9696673  14.4611423  40.4761889  75.4985331  14.5176486
  25.7506548  68.1707781  28.1020926  25.0088284  68.3190416  28.6885556
  25.4299292  68.4316046  27.2387675  42.0330162  73.7989685  15.7711439
  42.5581486  74.1376958  15.0460759  41.9452514  72.8636701  15.5874574
  33.6950210  77.7123759  27.9001316  34.0037337  77.4672906  28.7724015
  34.4925692  77.9170397  27.4120186  33.7170822  79.8661669  20.1306692
  33.2775813  79.3738047  20.8239549  34.4678939  79.3234636  19.8898767
  26.1963161  76.0573210  20.1331320  27.0221181  75.7576981  19.7529964
  25.8457213  75.2880832  20.5821109  31.1644694  75.4099678  22.2028994
  30.5424704  74.7470383  21.9031222  31.8349561  75.4360810  21.5202642
  24.3971766  73.9759536  21.0920254  23.5603675  73.5481710  20.9104255
  24.3695412  74.1691979  22.0291045  31.2369222  63.8881466  31.7961500
  31.2857377  64.7643589  31.4139269  31.7791736  63.3458859  31.2233143
  41.7224068  74.4322589  31.0762637  40.9319611  74.4146728  30.5367136
  41.4857422  74.9710883  31.8311673  41.8421943  71.2815055  28.3895365
  41.8919948  71.1165063  29.3310888  41.7335866  70.4142314  27.9993246
  30.7258201  73.9603601  15.6787454  30.8746322  74.6439065  15.0254127
  31.5324645  73.9408691  16.1936910  39.1325705  67.2645983  29.7054672
  40.0335568  67.1252448  29.4138670  39.2073680  67.4300438  30.6452850
  33.4668510  64.6412838  28.5507858  32.5971820  64.9346404  28.2790447
  33.7027991  65.2253283  29.2715122  43.3440139  73.7011997  28.6337387
  43.0524948  74.0641977  29.4700848  42.7312271  72.9879005  28.4550719
  44.5435822  71.2664877  21.1539957  45.3782713  71.7054681  21.3177518
  44.6794951  70.7903530  20.3348203  41.5927328  68.8244612  27.1017445
  42.0681449  69.0172258  26.2936296  40.6692893  68.8803797  26.8560829
  28.4810834  69.9868779  16.6848523  28.2356876  69.0831109  16.8828733
  28.6506749  69.9885929  15.7428001  36.1707544  60.8592455  26.0673279
  36.6889488  61.5953482  25.7419767  35.8162677  61.1656448  26.9020038
  27.7506482  65.7197136  14.1834685  27.0575727  65.7941491  13.5274721
  27.5058234  64.9557480  14.7056202  36.4220138  57.2792738  21.5874175
  36.7021892  56.6115927  22.2134602  37.2070745  57.4721833  21.0748839
  34.2253607  76.4551732  13.1499202  33.6527574  77.0741919  12.6969674
  34.7986401  77.0051093  13.6839124  40.2928997  65.7010372  25.3345751
  41.2446420  65.8008469  25.3557975  40.1232447  64.9088640  25.8443835
  38.3143376  62.7865955  25.5205151  37.7193308  63.0670968  24.8251640
  38.0293073  63.2759856  26.2921893  37.4450867  76.7388882  14.2807784
  38.3781540  76.6734443  14.4840660  37.3574079  77.5745149  13.8222317
  40.0738883  76.0554752  11.2411732  39.9952515  75.7214616  12.1347490
  40.8948550  76.5476520  11.2403204  42.7717075  68.9216491  24.4488050
  42.7393395  67.9832492  24.6347734  43.3817698  69.0000528  23.7153875
  34.6100405  67.7912544  10.4915254  35.5559510  67.6618752  10.5603672
  34.2314650  67.0527206  10.9684682  42.9211563  65.7127535  24.4946333
  42.4050612  64.9285991  24.3076262  43.8051512  65.3846251  24.6592853
  40.5822290  59.4568550  20.4542146  40.3847111  59.1483638  21.3385478
  41.1921995  60.1830189  20.5840076  48.5893624  69.9832498  23.5894087
  49.3197013  69.7217786  24.1501790  47.9800570  69.2461220  23.6296155
  46.6708921  68.1240361  24.1868538  45.9442085  67.9896326  23.5785030
  46.2556208  68.4317189  24.9925256  34.4939098  71.8430290  31.9515911
  35.4142107  72.0208889  32.1455958  34.4588681  70.8986336  31.7995611
  32.7943323  65.7162521  10.4270139  31.8874778  65.4195633  10.5032853
  33.0719304  65.4192339   9.5604426  23.7121263  67.0368884  20.8769186
  23.3924047  66.1834192  20.5843560  23.1654691  67.2517462  21.6327153
  27.4901170  69.7531325  24.5938692  27.7087180  70.6848433  24.6126726
  27.9026944  69.3939299  25.3793496  34.4105388  60.2599410  16.5814381
  33.6006117  59.9146495  16.9569627  35.0989805  59.9506954  17.1701992
  36.3395937  59.3377457  18.2038677  36.8926975  59.7572911  18.8628701
  36.5766023  58.4113205  18.2461633  32.3629036  65.3264531  33.9841441
  32.2625763  66.2758888  33.9153532  32.1450578  64.9982770  33.1117511
  31.5642107  62.5749456  10.5682119  32.4261271  62.9004354  10.8277936
  31.7492451  61.7880952  10.0555184  23.5809523  70.6571796  22.8462307
  22.8872994  70.2425748  22.3332262  24.3282514  70.6992332  22.2495726
  39.7174744  61.4477982  17.7117342  39.1373413  62.1062786  17.3295394
  39.4510676  60.6255327  17.3004759  38.1678310  60.8483040  19.9138662
  38.6678088  60.9599575  19.1052981  38.8113918  60.5444093  20.5539470
  32.2260306  68.7561670  32.8006503  31.7427388  69.5562030  33.0070392
  32.3121245  68.7669615  31.8473947  25.4946265  70.5890049  20.7228322
  25.4716954  70.6877737  19.7710205  25.8046902  71.4355200  21.0445488
  28.1533643  72.6466204  24.8374937  29.1076897  72.6150147  24.7704868
  27.9546167  72.1856828  25.6525163  28.7433025  71.2167320  27.4045734
  29.5625914  71.7111399  27.4280572  29.0169833  70.2999289  27.3763302
  38.4999622  63.6078073  16.7673690  37.6125477  63.8927723  16.5493885
  38.9153611  63.4471836  15.9200967  41.8514158  63.6324594  20.4828029
  42.6274548  64.1221046  20.7552646  41.1262292  64.0582648  20.9399899
  44.2886716  64.3452213  21.5401970  44.8831207  64.1047949  20.8295278
  44.3613300  63.6259344  22.1675506  26.5083872  78.1885824  21.8545135
  26.3738340  77.4286225  21.2883133  26.0915934  78.9126724  21.3873924
  37.6442835  73.3722747  10.8621710  38.3478685  73.5772750  11.4779366
  36.9205484  73.9399509  11.1270793  38.4740645  69.1232609  16.9823980
  38.4175847  69.5801160  16.1431613  39.0268988  68.3623293  16.8046823
  42.2845451  64.9122341  17.8074100  42.0282386  64.5118976  18.6382307
  41.6598319  65.6266134  17.6824239  46.5957789  67.6518414  20.3145391
  46.0357347  67.7211603  21.0876953  45.9901293  67.4759398  19.5944887
  29.6652998  79.0855141  22.0663577  29.5485382  80.0300573  21.9642268
  28.8445444  78.7828702  22.4549376  39.5529533  73.8105277  12.9120170
  40.3875136  73.3786475  12.7297645  39.3913875  73.6387290  13.8397064
  39.2075425  70.3137390  14.2776509  39.1524228  70.1481661  13.3364953
  38.5821480  71.0213423  14.4338699  23.9967940  65.5505454  28.1037931
  24.6426803  65.0404408  28.5925157  23.7885091  66.2874136  28.6781357
  36.5221332  72.6186302  33.6030072  37.3912492  72.7926954  33.2416707
  36.0428083  73.4380719  33.4805801  32.5171550  59.8145499  13.8561828
  32.5050220  60.7587339  14.0130099  33.4094972  59.6315644  13.5621289
  30.6907512  79.7383403  25.2819506  31.5934759  79.7707013  25.5986001
  30.4644882  78.8083854  25.2965841  32.4461114  78.4914389  21.9429584
  31.4956745  78.4916251  21.8293957  32.7493600  77.7447124  21.4265619
  36.3323670  56.4088276  18.1107764  35.5656065  55.8546762  18.2564447
  36.7434375  56.4810144  18.9721916  28.3365431  62.6973071  32.2012946
  29.1996892  62.3409876  32.4116270  27.7630841  62.3586966  32.8888350
  48.1813808  84.3274928  23.0075347  48.8192218  84.2081675  22.3038687
  48.0634650  85.2755772  23.0663299  44.9903514  84.2802356  22.9436871
  44.6522025  84.1643421  22.0557406  45.8593282  83.8793521  22.9237878
  40.8490330  86.1337832  18.9333762  40.2855195  86.0427769  18.1650050
  40.7342725  85.3137737  19.4136255  45.4723297  85.4337208  28.9023077
  45.4611938  85.0390006  28.0303581  45.6343936  84.7003280  29.4956848
  38.3954762  87.6289024  21.7717983  39.1876053  87.2879848  21.3564282
  38.6351412  87.7383999  22.6920136  46.4289888  89.8008800  14.2448227
  45.7777868  90.3862880  13.8582241  47.2234251  90.3314995  14.3043265
  40.3545515  86.8897937  14.6435362  41.1276391  86.3426924  14.5048237
  40.7070914  87.7542186  14.8549823  42.1930558  88.2174319  27.8502261
  41.9020424  89.1219950  27.7348927  42.8287542  88.2590847  28.5646330
  43.1186765  85.5951168  24.4403621  43.7150337  85.3707190  23.7260584
  43.1761736  84.8535913  25.0429068  42.6911793  83.0490603  12.2753812
  42.9437314  82.5272124  11.5137275  41.7536352  82.8856749  12.3780495
  47.7355076  82.0526382  20.0828555  48.5218165  81.6345805  19.7318972
  47.9993780  82.9572474  20.2510203  47.9065153  87.4899232  14.7817212
  47.2710986  87.5633858  15.4938116  47.5762560  88.0792831  14.1036291
  53.1363503  81.9901615  20.9861533  53.8688675  81.4200832  21.2199363
  52.3802859  81.6023215  21.4268039  42.4108082  84.9518709  14.4778186
  42.2944340  84.2763613  15.1459271  42.5210342  84.4651083  13.6610340
  44.7539623  84.4128856  18.1824876  44.3897830  83.8859477  18.8937797
  45.6106739  84.0227325  18.0091361  50.6588924  75.7023189  25.4456142
  50.3272248  76.5718600  25.2217357  50.0634537  75.3859473  26.1250172
  44.3945110  79.4418756  13.1786224  44.5619512  80.3098992  13.5456695
  44.2042279  79.6046038  12.2547514  47.1520443  87.9035735  24.8452055
  46.8521166  88.8060774  24.7367862  46.8071503  87.6367918  25.6973208
  40.6032925  84.3549532  20.8788759  39.6783421  84.2225746  21.0866451
  40.8517338  85.1343751  21.3758701  50.5517587  80.4218275  22.5249492
  49.6434464  80.3533683  22.2308253  50.5005183  80.8990220  23.3531317
  44.3734331  81.8976413  14.1632891  44.2533956  82.3433464  15.0018371
  43.6786919  82.2461731  13.6046429  37.9641736  83.9982805  21.7132548
  38.0934117  84.2517284  22.6271960  37.2839187  84.5910513  21.3937203
  42.1341223  94.6680055  17.8123022  42.0565253  95.6187880  17.8911503
  41.5302866  94.3225928  18.4697949  44.6258453  81.8407921  30.4684389
  43.8491787  82.4001841  30.4587254  45.2649016  82.3264704  30.9899259
  52.4179233  78.6234713  24.3027366  51.7753614  78.9167247  23.6567160
  51.9134162  78.5087634  25.1080563  50.0719397  82.3697887  14.9913225
  50.9837253  82.6025273  14.8160923  49.5629044  82.9534931  14.4288304
  42.8804825  84.6493374  30.0302356  43.6219509  85.1878418  29.7537180
  42.1741810  85.2759663  30.1873908  48.3560165  86.7922514  28.6274518
  48.7643521  86.3504925  27.8829150  47.6337426  86.2175142  28.8808711
  44.7091235  81.7295121  26.0008075  45.5552430  82.1534535  26.1442724
  44.6489872  81.0728746  26.6946638  48.6788979  87.3523705  22.3826807
  48.0497842  87.5169419  21.6802874  48.2914641  87.7665315  23.1537771
  52.5578211  88.2878143  19.7371170  51.8729249  88.6677044  19.1868204
  52.6422060  88.8973470  20.4703118  47.8590680  79.3899490  27.6589248
  47.6151612  80.1441550  27.1223524  48.1350611  79.7684837  28.4936495
  49.8129143  85.9338102  26.3366514  50.0246038  86.5769862  25.6600895
  49.7658891  85.1000419  25.8688444  47.4155372  78.5455923  23.2403086
  46.5539851  78.8437176  23.5319824  47.4417806  78.7626322  22.3084119
  44.2316941  87.0898113  19.6476892  44.6955287  87.3685816  18.8581514
  43.9673739  86.1881558  19.4649982  41.1241022  86.6369595  22.5856655
  41.6942379  87.0656863  21.9474139  41.7149134  86.3552179  23.2840841
  43.1685827  83.2121266  16.4566457  43.8709871  83.6642309  16.9240383
  42.8366456  82.5705084  17.0846350  41.6166189  81.8033022  30.8317666
  40.9864849  82.4849303  31.0653063  41.5102277  81.6916104  29.8870804
  36.9111161  81.4704818  21.7583590  36.1210215  81.7262347  21.2823701
  37.4022409  82.2853156  21.8635631  50.9274971  88.8110057  24.5088871
  51.7492414  88.4090245  24.2271553  50.9237374  88.7078292  25.4604987
  38.8625907  81.8349397  18.7167067  38.0657070  81.9468092  19.2350563
  38.6351499  82.1736050  17.8507958  44.6931574  88.3594101  26.6649582
  44.7576007  88.8214508  27.5007754  43.9842498  87.7291466  26.7931892
  35.1948864  81.7235309  24.1898581  35.4456903  82.6082319  24.4556157
  35.7308413  81.5439910  23.4173673  59.0180964  85.1548806  20.8573843
  58.2644672  84.5856204  20.7017847  59.1528505  85.1211470  21.8044477
  44.4079592  90.0262208  16.5328562  44.2725267  90.8713744  16.9613410
  44.9489404  90.2281486  15.7694496  40.8946931  76.1053788  33.1942917
  40.5013877  75.5519987  33.8690561  41.7113072  76.4164366  33.5849435
  37.8608989  87.5437646  17.1056487  38.3733510  88.3380896  17.2562052
  38.5131702  86.8463937  17.0390089  39.6703874  90.6603402  19.1879240
  39.8470502  91.5821367  19.0000224  40.4660707  90.3461822  19.6173620
  43.8114892  77.5211667  30.7863174  44.5524606  78.1218820  30.7067636
  44.0432815  76.7789305  30.2281216  38.9556230  82.7068034  29.0641404
  38.8409746  81.8053292  29.3648502  38.1000748  82.9531731  28.7126220
  46.0348068  90.6485775  30.6628904  45.5911922  89.8622153  30.3449809
  46.6965282  90.8364925  29.9972795  40.7935189  92.1781576  25.1889583
  41.3442614  92.0498640  24.4166577  39.9546665  92.4776465  24.8384475
  48.1329306  90.9288575  28.6910305  48.1147782  91.7497456  28.1990575
  49.0549226  90.8042650  28.9160447  44.5902360  88.4432704  29.5333814
  45.1230697  87.6820992  29.3033122  44.0616442  88.1506356  30.2757968
  47.7572055  73.5492770  25.0627456  47.4136325  74.4394412  24.9866566
  48.1251018  73.3594428  24.1997041  35.8257906  85.8726301  17.8816058
  36.6633128  86.2823309  17.6649765  36.0036174  84.9325743  17.8516252
  47.7222338  83.5401381  13.5699891  47.2068962  84.3105986  13.8088278
  47.4499647  82.8666517  14.1932952  45.3069449  78.3851082  18.6285129
  44.4511045  77.9957932  18.4490768  45.7196401  78.4643043  17.7684915
  46.8368596  75.9197425  23.0276689  46.3333391  75.8827560  22.2144494
  47.1299203  76.8290168  23.0873345  43.0811482  76.0036155  22.0342870
  43.9464478  75.8078964  21.6748760  43.1488991  75.7746507  22.9612227
  52.6956612  86.2933736  15.5053064  51.9186055  85.9544895  15.0608226
  53.3748093  86.2986359  14.8308029  47.5108641  81.4128473  15.3959672
  47.2058777  81.7274622  16.2469815  48.4639083  81.4909893  15.4387005
  45.9555073  87.5718697  17.0452626  45.4276435  86.8371456  16.7325863
  45.4542576  88.3493373  16.7992594  50.9347919  85.7667717  22.1619672
  50.2771594  86.4566978  22.2499801  51.7388318  86.1564149  22.5053658
  40.6873801  78.2338363  19.4059237  41.2617553  78.0113544  18.6732430
  41.2744783  78.3027057  20.1587839  49.7453378  84.1212090  20.2123614
  50.2585260  84.7542082  20.7145324  50.3954602  83.5213285  19.8466974
  41.0143388  80.2642824  13.4255123  40.1780700  80.6017510  13.7464397
  40.8748157  80.1291804  12.4882260  42.9896468  75.1079612  18.1334307
  42.3360881  74.7928629  17.5090922  42.9476943  74.4855352  18.8594130
  44.1007673  85.3898907  10.0487599  43.1934735  85.1588160  10.2478748
  44.5978705  84.5936526  10.2361580  47.0075752  94.0996414  12.9684285
  46.3337451  94.4028111  13.5769243  47.3941574  94.9025494  12.6189742
  46.2234209  81.5961545  22.4581954  45.3056770  81.8176492  22.3003642
  46.6394352  81.6707856  21.5993662  47.0069257  82.9952961  17.5884635
  47.7541076  83.5074358  17.2791757  47.2760846  82.6737014  18.4489028
  45.2795907  85.4911502  14.5711589  44.3707126  85.2070535  14.6684059
  45.3090991  85.9110580  13.7114896  50.5115174  89.1018091  18.3402756
  50.0577501  88.2609001  18.3967947  49.8809141  89.7379490  18.6777537
  49.4548094  80.0310077  19.5703424  48.7170851  79.5187463  19.9013666
  49.7074867  79.5910459  18.7586701  48.9548113  90.9394588  19.2752575
  49.2471088  91.4999645  18.5564940  49.4646734  91.2323149  20.0305734
  49.5559721  72.8086329  20.1645193  49.8618598  71.9483693  19.8771108
  50.2812326  73.4003949  19.9644187  35.8484077  83.2117016  18.5526791
  35.6508477  82.6186377  17.8277858  35.2930741  82.9069226  19.2702730
  43.8280801  83.1040122  20.6721384  43.8829411  82.1513959  20.5963861
  43.0172003  83.2599561  21.1562683  44.9771995  87.0320245  11.9099667
  44.5391424  86.3156104  11.4505305  45.7182435  87.2596360  11.3484759
  41.7673161  81.7217182  18.4311763  40.9541026  82.0211353  18.8376955
  42.2632155  81.3272871  19.1486245  43.9181739  91.7174939  20.3646028
  43.8757917  91.9435785  19.4354560  44.8344437  91.4838314  20.5131829
  47.3647372  82.1859007  27.2626657  47.7196760  82.4130480  28.1221123
  48.0119504  82.5177383  26.6403912  53.0945109  85.3077442  17.9675986
  52.9563008  85.4979038  17.0397175  52.7381328  86.0696825  18.4244037
  41.2587235  79.2935538  24.0472998  41.8986615  79.1524297  23.3495961
  40.4264766  79.0070051  23.6711600  53.1214489  87.3753969  22.9787258
  53.5550996  87.2829259  23.8270312  53.8346070  87.3511470  22.3407274
  42.0347539  88.5937968  20.1607991  42.8288138  88.0988288  19.9590565
  41.3239232  88.0655831  19.7975696  46.8542384  90.9756064  24.5120358
  46.9079406  91.5447000  25.2798074  45.9857165  91.1457949  24.1474395
  38.3430303  82.7381050  16.2367743  37.4127891  82.6765505  16.4537705
  38.4387775  82.2157002  15.4404384  38.2615852  79.2635863  18.8245985
  38.5222669  80.1781196  18.7155145  39.0833024  78.7960305  18.9742598
  39.7340777  80.6773620  25.9944809  40.4063831  80.4690982  25.3457458
  38.9070564  80.4795706  25.5550042  53.9830039  87.4177670  25.5120143
  54.1765929  88.3223481  25.7579418  53.8830657  86.9585089  26.3458728
  45.6366349  77.3035561  28.0110470  44.9894264  78.0025510  27.9174947
  46.4067365  77.7371705  28.3786718  49.0445147  87.5684413  31.0861024
  48.8930654  87.3394965  30.1691107  49.0349827  88.5255014  31.0992369
  45.8130484  85.1416326  26.0707290  46.7422544  85.2927485  25.8976257
  45.3921514  85.2300346  25.2155937  44.6118815  89.1666990  23.8405828
  44.4729901  88.7985774  24.7131766  43.8233412  89.6814629  23.6689785
  45.2066967  94.2676086  15.1831364  45.3818723  93.7964130  15.9976987
  44.5199755  94.8941853  15.4112625  46.1624031  88.5448593  21.2294665
  45.8273863  88.5049363  22.1252315  45.6627976  87.8793309  20.7565076
  40.1368274  83.9516223  26.7547247  39.9988072  83.2196462  27.3558786
  41.0473198  83.8625123  26.4731434  49.0983222  85.8904627  11.5031725
  48.4812393  85.1651455  11.4064778  48.6299711  86.6513987  11.1598799
  42.7650575  83.6636182  26.2430926  43.4750194  83.0229374  26.2017545
  42.7219883  83.9149077  27.1657107  50.7537354  90.6003535  29.1637505
  50.6949900  89.9162756  28.4968088  51.1556872  91.3422525  28.7118131
  41.4779509  80.6501400  28.0626566  40.9416866  80.1992138  28.7148162
  40.8896218  80.7847309  27.3197030  39.7728053  97.4165449  21.9571224
  40.0124651  98.0483973  22.6350243  38.9297249  97.0653489  22.2436584
  40.8881768  80.1090051  10.6253029  40.0111234  79.9878852  10.2615276
  41.3639521  79.3176130  10.3731918  50.7554761  88.5643119  27.3951485
  49.8681540  88.2269041  27.5177884  51.3253312  87.8326151  27.6320250
  32.4083908  84.8967211  20.7194536  33.0954948  84.5828941  20.1315552
  32.2532037  85.8008576  20.4461788  37.2118630  79.7857408  25.1479560
  37.1276819  79.1783077  24.4129970  36.3901337  80.2766426  25.1489057
  44.2855914  93.2244572  24.3612728  44.2126086  94.0299543  24.8732033
  43.8433308  93.4236537  23.5360750  44.0745694  92.4616342  17.8715550
  43.2913216  93.0038022  17.9653774  44.7738439  92.9790321  18.2709791
  47.3842344  78.2710971  20.5149755  47.8811044  77.5180933  20.1950825
  46.6129326  78.3075288  19.9492965  55.2372102  83.9751337  22.1568047
  55.2261978  84.8576052  21.7861980  54.3689481  83.6222888  21.9622584
  46.7454598  93.1231406  26.5170887  47.4582570  93.7578871  26.4446788
  46.2544627  93.2195272  25.7010889  48.4672125  87.0282658  18.0888179
  47.5328404  87.1484121  17.9192883  48.6448793  86.1255125  17.8248188
  43.9677313  80.4128354  20.2421440  43.5975100  79.8599395  20.9302345
  44.4636405  79.8086488  19.6896440  51.8544676  82.8699978  18.6238213
  52.3205128  83.7027969  18.5498515  52.3052177  82.4044959  19.3283471
  41.7966512  90.8725849  27.3376458  42.4975971  91.5062332  27.4905852
  41.3261627  91.2140581  26.5772097  49.9220907  89.2143799  15.6224365
  50.1980751  89.1000394  16.5318239  49.0525406  88.8161284  15.5836538
  49.8261339  75.2380565  22.6629114  48.9124419  75.4684791  22.8311321
  50.2554440  75.3219009  23.5143146  49.5967798  83.4270457  25.1629008
  48.9439248  83.6746364  24.5081461  49.9748177  82.6134595  24.8291485
  46.5574971  93.4630150  19.2657178  46.7397366  92.6451806  19.7284931
  47.3807957  93.6797842  18.8282068  46.8917137  92.3898335  16.5272227
  47.4204903  91.8790789  15.9142389  47.1545356  92.0740865  17.3917760
  45.6455371  84.1690268  31.6495045  44.9696008  84.0684397  32.3197420
  46.4683004  84.0129481  32.1131042  37.3934230  90.4062204  24.2707560
  37.9787666  89.6605892  24.4035465  37.1959068  90.7166161  25.1544224
  40.2472885  93.4413452  19.2870003  39.5783260  93.9259579  18.8034043
  40.1085755  93.6882672  20.2013381  31.9851884  82.9767804  22.9912004
  32.0235984  82.4431395  23.7849122  31.4792177  82.4503010  22.3722981
  44.3878153  95.4757195  25.8852661  44.9396461  95.6388817  26.6501746
  44.7284347  96.0661633  25.2132686  39.3642647  77.8232345  26.4874546
  39.4283973  78.6847176  26.0751944  39.3009767  77.2106347  25.7546904
  38.8394919  79.8955477  30.1347580  39.4666958  79.5132555  30.7485104
  37.9822838  79.6769679  30.5003273  49.2389028  90.3018453  31.7401316
  49.7828932  90.9148411  31.2456270  48.6575873  90.8598031  32.2568329
  35.6160462  81.7031907  16.0665935  35.9113903  80.7942585  16.0132989
  34.7148498  81.6819646  15.7446937  47.5246541  93.4239171  22.8716343
  47.3997680  92.6228910  22.3627289  48.1825632  93.9185364  22.3830313
  39.1454709  79.7787903  22.0493484  38.4241295  80.3923871  21.9100957
  39.9347965  80.3145668  21.9710130  49.5881449  91.2248191  24.4995893
  48.6411785  91.1053542  24.4274220  49.9364222  90.3370689  24.5822155
  41.9481022  77.1142330  28.3234135  42.4715424  77.3604626  29.0860445
  41.7293356  77.9462364  27.9037273  37.3448304  79.3846004  16.1905260
  37.0161010  78.5043383  16.0080366  37.6987674  79.3293673  17.0781649
  46.5927882  91.0200907  20.7000246  46.4452845  90.0917614  20.8807816
  47.4181376  91.0420998  20.2157321  40.4590127  79.6718974  16.5580738
  40.7986199  80.2004895  15.8359346  40.9062247  80.0099380  17.3339304
  50.1962004  91.8429466  21.7865118  51.1208552  91.6372327  21.6489570
  50.0277308  91.5945867  22.6954460  43.1533567  78.0556025  26.0083806
  42.8130388  77.2563838  26.4104486  42.4472574  78.3557736  25.4360639
  43.8050039  75.1405337  24.4611129  44.6276109  74.6665815  24.3390019
  44.0488103  75.9195821  24.9609815  42.4458274  78.1693596  14.7574031
  43.1666636  78.5474848  14.2537747  41.8223578  78.8882472  14.8609009
  46.5889397  78.8738745  15.6932363  46.8053011  79.7563382  15.3921191
  46.1083464  78.4824958  14.9638005  41.3288618  81.8324458  22.2703108
  41.1833199  82.1464761  23.1627389  40.8513822  82.4509358  21.7174006
  43.1885001  78.8227006  22.3183997  43.1746570  77.9268099  21.9816295
  43.9057429  78.8297670  22.9522283  45.0411132  79.2564346  24.3637125
  44.7828909  80.1781417  24.3621455  44.5096172  78.8594781  25.0537589
  49.9857320  92.3615133  17.1427210  50.1594198  91.7961556  16.3901062
  50.4786212  93.1616028  16.9606700  35.8034280  84.3729802  25.2090769
  35.2587748  85.1489610  25.3411043  36.6813630  84.7200607  25.0509890
  42.5921897  77.7041386  17.5871567  42.7137808  76.7758032  17.7862455
  42.3023939  77.7180072  16.6749883  45.4613087  75.3896297  20.7238287
  45.4834784  75.4535630  19.7690267  45.8781146  74.5500805  20.9178793
  55.8396712  85.1251556  18.7617510  56.2827858  84.3758881  18.3636633
  54.9623222  85.1161692  18.3791242  50.9732493  91.6781898  14.2424108
  51.6683398  92.2988590  14.4611423  51.3155643  90.8277249  14.5176486
  36.5900302  83.4999698  28.1020926  35.8482038  83.6482334  28.6885556
  36.2693046  83.7607964  27.2387675  52.8723916  89.1281603  15.7711439
  53.3975240  89.4668876  15.0460759  52.7846269  88.1928618  15.5874574
  44.5343965  93.0415677  27.9001316  44.8431091  92.7964823  28.7724015
  45.3319447  93.2462315  27.4120186  44.5564577  95.1953586  20.1306692
  44.1169567  94.7029965  20.8239549  45.3072694  94.6526554  19.8898767
  37.0356916  91.3865127  20.1331320  37.8614936  91.0868899  19.7529964
  36.6850968  90.6172750  20.5821109  42.0038449  90.7391595  22.2028994
  41.3818458  90.0762300  21.9031222  42.6743316  90.7652727  21.5202642
  35.2365521  89.3051454  21.0920254  34.3997429  88.8773628  20.9104255
  35.2089166  89.4983897  22.0291045  42.0762976  79.2173383  31.7961500
  42.1251132  80.0935506  31.4139269  42.6185491  78.6750776  31.2233143
  52.5617822  89.7614507  31.0762637  51.7713366  89.7438646  30.5367136
  52.3251177  90.3002800  31.8311673  52.6815697  86.6106973  28.3895365
  52.7313702  86.4456981  29.3310888  52.5729620  85.7434232  27.9993246
  41.5651956  89.2895519  15.6787454  41.7140076  89.9730983  15.0254127
  42.3718399  89.2700609  16.1936910  49.9719460  82.5937901  29.7054672
  50.8729322  82.4544366  29.4138670  50.0467434  82.7592356  30.6452850
  44.3062265  79.9704756  28.5507858  43.4365574  80.2638322  28.2790447
  44.5421745  80.5545201  29.2715122  54.1833894  89.0303915  28.6337387
  53.8918702  89.3933895  29.4700848  53.5706025  88.3170923  28.4550719
  55.3829576  86.5956794  21.1539957  56.2176468  87.0346598  21.3177518
  55.5188705  86.1195448  20.3348203  52.4321082  84.1536529  27.1017445
  52.9075204  84.3464176  26.2936296  51.5086648  84.2095715  26.8560829
  39.3204589  85.3160696  16.6848523  39.0750631  84.4123026  16.8828733
  39.4900503  85.3177847  15.7428001  47.0101299  76.1884373  26.0673279
  47.5283243  76.9245400  25.7419767  46.6556431  76.4948366  26.9020038
  38.5900236  81.0489054  14.1834685  37.8969481  81.1233409  13.5274721
  38.3451988  80.2849398  14.7056202  47.2613893  72.6084655  21.5874175
  47.5415647  71.9407844  22.2134602  48.0464500  72.8013751  21.0748839
  45.0647361  91.7843649  13.1499202  44.4921328  92.4033836  12.6969674
  45.6380155  92.3343011  13.6839124  51.1322751  81.0302289  25.3345751
  52.0840174  81.1300387  25.3557975  50.9626202  80.2380558  25.8443835
  49.1537131  78.1157873  25.5205151  48.5587063  78.3962885  24.8251640
  48.8686827  78.6051773  26.2921893  48.2844621  92.0680799  14.2807784
  49.2175294  92.0026361  14.4840660  48.1967834  92.9037066  13.8222317
  50.9132638  91.3846670  11.2411732  50.8346269  91.0506533  12.1347490
  51.7342305  91.8768438  11.2403204  53.6110829  84.2508409  24.4488050
  53.5787149  83.3124410  24.6347734  54.2211453  84.3292446  23.7153875
  45.4494160  83.1204462  10.4915254  46.3953265  82.9910670  10.5603672
  45.0708405  82.3819124  10.9684682  53.7605317  81.0419452  24.4946333
  53.2444366  80.2577909  24.3076262  54.6445266  80.7138169  24.6592853
  51.4216044  74.7860468  20.4542146  51.2240866  74.4775556  21.3385478
  52.0315750  75.5122107  20.5840076  59.4287379  85.3124416  23.5894087
  60.1590767  85.0509704  24.1501790  58.8194324  84.5753138  23.6296155
  57.5102676  83.4532278  24.1868538  56.7835840  83.3188243  23.5785030
  57.0949963  83.7609107  24.9925256  45.3332852  87.1722208  31.9515911
  46.2535862  87.3500807  32.1455958  45.2982435  86.2278253  31.7995611
  43.6337077  81.0454438  10.4270139  42.7268532  80.7487551  10.5032853
  43.9113058  80.7484256   9.5604426  34.5515017  82.3660802  20.8769186
  34.2317802  81.5126110  20.5843560  34.0048446  82.5809380  21.6327153
  38.3294925  85.0823243  24.5938692  38.5480935  86.0140351  24.6126726
  38.7420699  84.7231217  25.3793496  45.2499143  75.5891328  16.5814381
  44.4399871  75.2438413  16.9569627  45.9383560  75.2798872  17.1701992
  47.1789691  74.6669375  18.2038677  47.7320730  75.0864828  18.8628701
  47.4159777  73.7405123  18.2461633  43.2022790  80.6556449  33.9841441
  43.1019517  81.6050805  33.9153532  42.9844332  80.3274687  33.1117511
  42.4035862  77.9041374  10.5682119  43.2655026  78.2296272  10.8277936
  42.5886206  77.1172869  10.0555184  34.4203277  85.9863713  22.8462307
  33.7266749  85.5717666  22.3332262  35.1676268  86.0284250  22.2495726
  50.5568498  76.7769900  17.7117342  49.9767167  77.4354704  17.3295394
  50.2904431  75.9547245  17.3004759  49.0072064  76.1774958  19.9138662
  49.5071843  76.2891492  19.1052981  49.6507672  75.8736011  20.5539470
  43.0654060  84.0853587  32.8006503  42.5821142  84.8853947  33.0070392
  43.1514999  84.0961532  31.8473947  36.3340020  85.9181967  20.7228322
  36.3110708  86.0169654  19.7710205  36.6440656  86.7647118  21.0445488
  38.9927398  87.9758122  24.8374937  39.9470651  87.9442064  24.7704868
  38.7939921  87.5148746  25.6525163  39.5826780  86.5459238  27.4045734
  40.4019669  87.0403317  27.4280572  39.8563588  85.6291206  27.3763302
  49.3393376  78.9369990  16.7673690  48.4519231  79.2219641  16.5493885
  49.7547365  78.7763754  15.9200967  52.6907912  78.9616511  20.4828029
  53.4668302  79.4512964  20.7552646  51.9656046  79.3874566  20.9399899
  55.1280471  79.6744131  21.5401970  55.7224962  79.4339867  20.8295278
  55.2007055  78.9551261  22.1675506  37.3477627  93.5177742  21.8545135
  37.2132095  92.7578142  21.2883133  36.9309689  94.2418641  21.3873924
  48.4836590  88.7014665  10.8621710  49.1872440  88.9064668  11.4779366
  47.7599238  89.2691427  11.1270793  49.3134400  84.4524526  16.9823980
  49.2569601  84.9093078  16.1431613  49.8662742  83.6915211  16.8046823
  53.1239206  80.2414258  17.8074100  52.8676140  79.8410894  18.6382307
  52.4992074  80.9558052  17.6824239  57.4351544  82.9810331  20.3145391
  56.8751102  83.0503521  21.0876953  56.8295047  82.8051316  19.5944887
  40.5046752  94.4147059  22.0663577  40.3879137  95.3592491  21.9642268
  39.6839199  94.1120620  22.4549376  50.3923287  89.1397194  12.9120170
  51.2268891  88.7078393  12.7297645  50.2307630  88.9679208  13.8397064
  50.0469179  85.6429308  14.2776509  49.9917983  85.4773579  13.3364953
  49.4215234  86.3505340  14.4338699  34.8361694  80.8797372  28.1037931
  35.4820558  80.3696326  28.5925157  34.6278845  81.6166054  28.6781357
  47.3615086  87.9478219  33.6030072  48.2306246  88.1218872  33.2416707
  46.8821838  88.7672636  33.4805801  43.3565305  75.1437417  13.8561828
  43.3443974  76.0879257  14.0130099  44.2488727  74.9607562  13.5621289
  41.5301267  95.0675320  25.2819506  42.4328513  95.0998931  25.5986001
  41.3038637  94.1375771  25.2965841  43.2854869  93.8206307  21.9429584
  42.3350500  93.8208169  21.8293957  43.5887355  93.0739042  21.4265619
  47.1717424  71.7380193  18.1107764  46.4049820  71.1838680  18.2564447
  47.5828129  71.8102062  18.9721916  39.1759185  78.0264989  32.2012946
  40.0390647  77.6701794  32.4116270  38.6024596  77.6878884  32.8888350
  59.0207562  99.6566845  23.0075347  59.6585972  99.5373593  22.3038687
  58.9028405 100.6047689  23.0663299  55.8297268  99.6094273  22.9436871
  55.4915780  99.4935338  22.0557406  56.6987037  99.2085439  22.9237878
  51.6884084 101.4629750  18.9333762  51.1248949 101.3719687  18.1650050
  51.5736479 100.6429654  19.4136255  56.3117051 100.7629125  28.9023077
  56.3005692 100.3681923  28.0303581  56.4737691 100.0295198  29.4956848
  49.2348516 102.9580942  21.7717983  50.0269808 102.6171766  21.3564282
  49.4745166 103.0675917  22.6920136  57.2683643 105.1300718  14.2448227
  56.6171623 105.7154798  13.8582241  58.0628006 105.6606913  14.3043265
  51.1939270 102.2189855  14.6435362  51.9670146 101.6718842  14.5048237
  51.5464669 103.0834104  14.8549823  53.0324313 103.5466237  27.8502261
  52.7414178 104.4511868  27.7348927  53.6681297 103.5882765  28.5646330
  53.9580519 100.9243086  24.4403621  54.5544092 100.6999108  23.7260584
  54.0155491 100.1827831  25.0429068  53.5305548  98.3782521  12.2753812
  53.7831068  97.8564042  11.5137275  52.5930107  98.2148666  12.3780495
  58.5748831  97.3818299  20.0828555  59.3611920  96.9637722  19.7318972
  58.8387535  98.2864391  20.2510203  58.7458908 102.8191150  14.7817212
  58.1104741 102.8925776  15.4938116  58.4156314 103.4084748  14.1036291
  63.9757258  97.3193532  20.9861533  64.7082430  96.7492749  21.2199363
  63.2196613  96.9315133  21.4268039  53.2501837 100.2810627  14.4778186
  53.1338095  99.6055530  15.1459271  53.3604096  99.7943001  13.6610340
  55.5933377  99.7420774  18.1824876  55.2291585  99.2151395  18.8937797
  56.4500493  99.3519243  18.0091361  61.4982678  91.0315107  25.4456142
  61.1666003  91.9010518  25.2217357  60.9028291  90.7151391  26.1250172
  55.2338864  94.7710674  13.1786224  55.4013267  95.6390910  13.5456695
  55.0436033  94.9337955  12.2547514  57.9914198 103.2327653  24.8452055
  57.6914921 104.1352691  24.7367862  57.6465257 102.9659836  25.6973208
  51.4426679  99.6841449  20.8788759  50.5177176  99.5517663  21.0866451
  51.6911092 100.4635669  21.3758701  61.3911341  95.7510193  22.5249492
  60.4828219  95.6825601  22.2308253  61.3398937  96.2282138  23.3531317
  55.2128085  97.2268331  14.1632891  55.0927710  97.6725382  15.0018371
  54.5180674  97.5753649  13.6046429  48.8035490  99.3274723  21.7132548
  48.9327871  99.5809202  22.6271960  48.1232941  99.9202431  21.3937203
  52.9734977 109.9971973  17.8123022  52.8959007 110.9479798  17.8911503
  52.3696621 109.6517845  18.4697949  55.4652207  97.1699838  30.4684389
  54.6885541  97.7293758  30.4587254  56.1042770  97.6556621  30.9899259
  63.2572988  93.9526631  24.3027366  62.6147368  94.2459164  23.6567160
  62.7527916  93.8379551  25.1080563  60.9113151  97.6989804  14.9913225
  61.8231008  97.9317191  14.8160923  60.4022799  98.2826849  14.4288304
  53.7198579  99.9785292  30.0302356  54.4613264 100.5170336  29.7537180
  53.0135565 100.6051580  30.1873908  59.1953919 102.1214432  28.6274518
  59.6037275 101.6796843  27.8829150  58.4731181 101.5467060  28.8808711
  55.5484989  97.0587039  26.0008075  56.3946184  97.4826452  26.1442724
  55.4883627  96.4020663  26.6946638  59.5182734 102.6815623  22.3826807
  58.8891596 102.8461337  21.6802874  59.1308396 103.0957232  23.1537771
  63.3971966 103.6170061  19.7371170  62.7123004 103.9968962  19.1868204
  63.4815815 104.2265387  20.4703118  58.6984434  94.7191407  27.6589248
  58.4545366  95.4733468  27.1223524  58.9744365  95.0976755  28.4936495
  60.6522897 101.2630020  26.3366514  60.8639792 101.9061780  25.6600895
  60.6052646 100.4292336  25.8688444  58.2549126  93.8747840  23.2403086
  57.3933605  94.1729094  23.5319824  58.2811561  94.0918239  22.3084119
  55.0710696 102.4190031  19.6476892  55.5349041 102.6977734  18.8581514
  54.8067494 101.5173475  19.4649982  51.9634777 101.9661512  22.5856655
  52.5336134 102.3948781  21.9474139  52.5542889 101.6844097  23.2840841
  54.0079582  98.5413183  16.4566457  54.7103625  98.9934227  16.9240383
  53.6760210  97.8997002  17.0846350  52.4559943  97.1324940  30.8317666
  51.8258604  97.8141221  31.0653063  52.3496031  97.0208021  29.8870804
  47.7504916  96.7996736  21.7583590  46.9603970  97.0554264  21.2823701
  48.2416163  97.6145074  21.8635631  61.7668725 104.1401975  24.5088871
  62.5886169 103.7382162  24.2271553  61.7631128 104.0370209  25.4604987
  49.7019661  97.1641315  18.7167067  48.9050824  97.2760009  19.2350563
  49.4745253  97.5027967  17.8507958  55.5325329 103.6886018  26.6649582
  55.5969761 104.1506426  27.5007754  54.8236253 103.0583383  26.7931892
  46.0342619  97.0527226  24.1898581  46.2850657  97.9374236  24.4556157
  46.5702167  96.8731828  23.4173673  69.8574718 100.4840724  20.8573843
  69.1038427  99.9148122  20.7017847  69.9922259 100.4503388  21.8044477
  55.2473346 105.3554126  16.5328562  55.1119021 106.2005662  16.9613410
  55.7883159 105.5573403  15.7694496  51.7340686  91.4345706  33.1942917
  51.3407632  90.8811904  33.8690561  52.5506826  91.7456284  33.5849435
  48.7002744 102.8729564  17.1056487  49.2127264 103.6672814  17.2562052
  49.3525457 102.1755854  17.0390089  50.5097628 105.9895320  19.1879240
  50.6864257 106.9113285  19.0000224  51.3054462 105.6753739  19.6173620
  54.6508647  92.8503585  30.7863174  55.3918360  93.4510738  30.7067636
  54.8826570  92.1081223  30.2281216  49.7949985  98.0359952  29.0641404
  49.6803500  97.1345209  29.3648502  48.9394503  98.2823649  28.7126220
  56.8741823 105.9777692  30.6628904  56.4305677 105.1914071  30.3449809
  57.5359036 106.1656843  29.9972795  51.6328944 107.5073494  25.1889583
  52.1836369 107.3790557  24.4166577  50.7940420 107.8068383  24.8384475
  58.9723061 106.2580492  28.6910305  58.9541536 107.0789373  28.1990575
  59.8942981 106.1334568  28.9160447  55.4296115 103.7724622  29.5333814
  55.9624452 103.0112910  29.3033122  54.9010196 103.4798274  30.2757968
  58.5965810  88.8784688  25.0627456  58.2530079  89.7686329  24.9866566
  58.9644772  88.6886345  24.1997041  46.6651660 101.2018218  17.8816058
  47.5026882 101.6115227  17.6649765  46.8429928 100.2617660  17.8516252
  58.5616093  98.8693299  13.5699891  58.0462716  99.6397903  13.8088278
  58.2893401  98.1958435  14.1932952  56.1463204  93.7143000  18.6285129
  55.2904800  93.3249850  18.4490768  56.5590155  93.7934960  17.7684915
  57.6762350  91.2489343  23.0276689  57.1727146  91.2119478  22.2144494
  57.9692957  92.1582086  23.0873345  53.9205236  91.3328073  22.0342870
  54.7858233  91.1370881  21.6748760  53.9882745  91.1038424  22.9612227
  63.5350367 101.6225653  15.5053064  62.7579809 101.2836813  15.0608226
  64.2141848 101.6278277  14.8308029  58.3502396  96.7420391  15.3959672
  58.0452531  97.0566540  16.2469815  59.3032838  96.8201811  15.4387005
  56.7948828 102.9010614  17.0452626  56.2670189 102.1663374  16.7325863
  56.2936330 103.6785291  16.7992594  61.7741674 101.0959635  22.1619672
  61.1165348 101.7858896  22.2499801  62.5782073 101.4856067  22.5053658
  51.5267555  93.5630281  19.4059237  52.1011307  93.3405462  18.6732430
  52.1138538  93.6318975  20.1587839  60.5847132  99.4504007  20.2123614
  61.0979014 100.0833999  20.7145324  61.2348356  98.8505203  19.8466974
  51.8537142  95.5934742  13.4255123  51.0174455  95.9309428  13.7464397
  51.7141912  95.4583721  12.4882260  53.8290223  90.4371529  18.1334307
  53.1754635  90.1220547  17.5090922  53.7870697  89.8147270  18.8594130
  54.9401428 100.7190825  10.0487599  54.0328490 100.4880078  10.2478748
  55.4372460  99.9228444  10.2361580  57.0627963  96.9253463  22.4581954
  56.1450525  97.1468410  22.3003642  57.4788107  96.9999773  21.5993662
  57.8463011  98.3244879  17.5884635  58.5934830  98.8366276  17.2791757
  58.1154601  98.0028931  18.4489028  56.1189661 100.8203419  14.5711589
  55.2100880 100.5362452  14.6684059  56.1484745 101.2402498  13.7114896
  61.3508929 104.4310009  18.3402756  60.8971256 103.5900919  18.3967947
  60.7202895 105.0671407  18.6777537  60.2941848  95.3601995  19.5703424
  59.5564605  94.8479381  19.9013666  60.5468622  94.9202377  18.7586701
  59.7941868 106.2686506  19.2752575  60.0864842 106.8291563  18.5564940
  60.3040488 106.5615067  20.0305734  60.3953476  88.1378247  20.1645193
  60.7012352  87.2775610  19.8771108  61.1206080  88.7295867  19.9644187
  46.6877832  98.5408934  18.5526791  46.4902231  97.9478294  17.8277858
  46.1324496  98.2361144  19.2702730  54.6674555  98.4332040  20.6721384
  54.7223165  97.4805876  20.5963861  53.8565757  98.5891479  21.1562683
  55.8165749 102.3612163  11.9099667  55.3785179 101.6448022  11.4505305
  56.5576190 102.5888278  11.3484759  52.6066915  97.0509100  18.4311763
  51.7934781  97.3503270  18.8376955  53.1025909  96.6564788  19.1486245
  54.7575493 107.0466857  20.3646028  54.7151672 107.2727703  19.4354560
  55.6738192 106.8130231  20.5131829  58.2041127  97.5150924  27.2626657
  58.5590515  97.7422397  28.1221123  58.8513258  97.8469301  26.6403912
  63.9338864 100.6369360  17.9675986  63.7956762 100.8270956  17.0397175
  63.5775083 101.3988743  18.4244037  52.0980990  94.6227455  24.0472998
  52.7380369  94.4816214  23.3495961  51.2658520  94.3361969  23.6711600
  63.9608243 102.7045887  22.9787258  64.3944750 102.6121176  23.8270312
  64.6739824 102.6803388  22.3407274  52.8741294 103.9229886  20.1607991
  53.6681892 103.4280206  19.9590565  52.1632986 103.3947749  19.7975696
  57.6936138 106.3047981  24.5120358  57.7473161 106.8738918  25.2798074
  56.8250920 106.4749866  24.1474395  49.1824057  98.0672967  16.2367743
  48.2521645  98.0057423  16.4537705  49.2781529  97.5448920  15.4404384
  49.1009606  94.5927780  18.8245985  49.3616424  95.5073113  18.7155145
  49.9226779  94.1252223  18.9742598  50.5734532  96.0065537  25.9944809
  51.2457585  95.7982900  25.3457458  49.7464318  95.8087623  25.5550042
  64.8223793 102.7469588  25.5120143  65.0159683 103.6515398  25.7579418
  64.7224411 102.2877007  26.3458728  56.4760104  92.6327478  28.0110470
  55.8288019  93.3317428  27.9174947  57.2461119  93.0663622  28.3786718
  59.8838902 102.8976330  31.0861024  59.7324408 102.6686882  30.1691107
  59.8743581 103.8546932  31.0992369  56.6524238 100.4708243  26.0707290
  57.5816298 100.6219403  25.8976257  56.2315268 100.5592264  25.2155937
  55.4512570 104.4958908  23.8405828  55.3123656 104.1277692  24.7131766
  54.6627166 105.0106547  23.6689785  56.0460722 109.5968004  15.1831364
  56.2212478 109.1256047  15.9976987  55.3593510 110.2233770  15.4112625
  57.0017785 103.8740510  21.2294665  56.6667618 103.8341280  22.1252315
  56.5021731 103.2085226  20.7565076  50.9762029  99.2808140  26.7547247
  50.8381827  98.5488379  27.3558786  51.8866952  99.1917040  26.4731434
  59.9376977 101.2196545  11.5031725  59.3206147 100.4943373  11.4064778
  59.4693465 101.9805905  11.1598799  53.6044330  98.9928100  26.2430926
  54.3143948  98.3521292  26.2017545  53.5613638  99.2440995  27.1657107
  61.5931108 105.9295453  29.1637505  61.5343654 105.2454673  28.4968088
  61.9950627 106.6714443  28.7118131  52.3173264  95.9793318  28.0626566
  51.7810621  95.5284056  28.7148162  51.7289972  96.1139226  27.3197030
  50.6121807 112.7457367  21.9571224  50.8518405 113.3775891  22.6350243
  49.7691004 112.3945407  22.2436584  51.7275523  95.4381969  10.6253029
  50.8504989  95.3170770  10.2615276  52.2033276  94.6468047  10.3731918
  61.5948516 103.8935037  27.3951485  60.7075294 103.5560959  27.5177884
  62.1647067 103.1618068  27.6320250  43.2477663 100.2259129  20.7194536
  43.9348703  99.9120859  20.1315552  43.0925791 101.1300493  20.4461788
  48.0512385  95.1149325  25.1479560  47.9670574  94.5074995  24.4129970
  47.2295091  95.6058344  25.1489057  55.1249669 108.5536489  24.3612728
  55.0519840 109.3591461  24.8732033  54.6827062 108.7528455  23.5360750
  54.9139449 107.7908259  17.8715550  54.1306970 108.3329940  17.9653774
  55.6132194 108.3082239  18.2709791  58.2236099  93.6002889  20.5149755
  58.7204798  92.8472851  20.1950825  57.4523080  93.6367205  19.9492965
  66.0765856  99.3043254  22.1568047  66.0655732 100.1867970  21.7861980
  65.2083236  98.9514805  21.9622584  57.5848352 108.4523323  26.5170887
  58.2976325 109.0870788  26.4446788  57.0938381 108.5487189  25.7010889
  59.3065879 102.3574576  18.0888179  58.3722158 102.4776039  17.9192883
  59.4842548 101.4547043  17.8248188  54.8071067  95.7420272  20.2421440
  54.4368855  95.1891312  20.9302345  55.3030160  95.1378405  19.6896440
  62.6938431  98.1991895  18.6238213  63.1598883  99.0319887  18.5498515
  63.1445931  97.7336877  19.3283471  52.6360266 106.2017767  27.3376458
  53.3369726 106.8354250  27.4905852  52.1655381 106.5432498  26.5772097
  60.7614662 104.5435717  15.6224365  61.0374506 104.4292311  16.5318239
  59.8919161 104.1453201  15.5836538  60.6655093  90.5672482  22.6629114
  59.7518173  90.7976709  22.8311321  61.0948195  90.6510926  23.5143146
  60.4361552  98.7562374  25.1629008  59.7833002  99.0038282  24.5081461
  60.8141932  97.9426512  24.8291485  57.3968726 108.7922067  19.2657178
  57.5791120 107.9743723  19.7284931  58.2201712 109.0089760  18.8282068
  57.7310891 107.7190253  16.5272227  58.2598658 107.2082707  15.9142389
  57.9939111 107.4032783  17.3917760  56.4849125  99.4982185  31.6495045
  55.8089762  99.3976315  32.3197420  57.3076759  99.3421399  32.1131042
  48.2327984 105.7354122  24.2707560  48.8181421 104.9897810  24.4035465
  48.0352823 106.0458079  25.1544224  51.0866639 108.7705369  19.2870003
  50.4177015 109.2551497  18.8034043  50.9479509 109.0174590  20.2013381
  42.8245639  98.3059722  22.9912004  42.8629738  97.7723313  23.7849122
  42.3185932  97.7794928  22.3722981  55.2271908 110.8049113  25.8852661
  55.7790216 110.9680734  26.6501746  55.5678101 111.3953551  25.2132686
  50.2036401  93.1524263  26.4874546  50.2677728  94.0139093  26.0751944
  50.1403521  92.5398264  25.7546904  49.6788674  95.2247395  30.1347580
  50.3060712  94.8424472  30.7485104  48.8216593  95.0061597  30.5003273
  60.0782782 105.6310370  31.7401316  60.6222686 106.2440329  31.2456270
  59.4969627 106.1889949  32.2568329  46.4554216  97.0323824  16.0665935
  46.7507657  96.1234503  16.0132989  45.5542252  97.0111564  15.7446937
  58.3640295 108.7531088  22.8716343  58.2391435 107.9520828  22.3627289
  59.0219386 109.2477282  22.3830313  49.9848463  95.1079821  22.0493484
  49.2635049  95.7215789  21.9100957  50.7741719  95.6437586  21.9710130
  60.4275204 106.5540108  24.4995893  59.4805539 106.4345460  24.4274220
  60.7757977 105.6662606  24.5822155  52.7874777  92.4434247  28.3234135
  53.3109179  92.6896544  29.0860445  52.5687110  93.2754282  27.9037273
  48.1842058  94.7137922  16.1905260  47.8554764  93.8335301  16.0080366
  48.5381429  94.6585591  17.0781649  57.4321637 106.3492825  20.7000246
  57.2846599 105.4209532  20.8807816  58.2575130 106.3712915  20.2157321
  51.2983881  95.0010892  16.5580738  51.6379954  95.5296813  15.8359346
  51.7456002  95.3391298  17.3339304  61.0355759 107.1721383  21.7865118
  61.9602306 106.9664245  21.6489570  60.8671062 106.9237785  22.6954460
  53.9927322  93.3847942  26.0083806  53.6524142  92.5855755  26.4104486
  53.2866328  93.6849653  25.4360639  54.6443794  90.4697255  24.4611129
  55.4669863  89.9957733  24.3390019  54.8881857  91.2487739  24.9609815
  53.2852028  93.4985513  14.7574031  54.0060391  93.8766766  14.2537747
  52.6617332  94.2174390  14.8609009  57.4283151  94.2030662  15.6932363
  57.6446766  95.0855300  15.3921191  56.9477218  93.8116876  14.9638005
  52.1682373  97.1616375  22.2703108  52.0226953  97.4756679  23.1627389
  51.6907576  97.7801276  21.7174006  54.0278755  94.1518923  22.3183997
  54.0140324  93.2560017  21.9816295  54.7451184  94.1589587  22.9522283
  55.8804886  94.5856264  24.3637125  55.6222664  95.5073334  24.3621455
  55.3489927  94.1886698  25.0537589  60.8251075 107.6907051  17.1427210
  60.9987952 107.1253473  16.3901062  61.3179966 108.4907946  16.9606700
  46.6428035  99.7021720  25.2090769  46.0981503 100.4781528  25.3411043
  47.5207385 100.0492524  25.0509890  53.4315651  93.0333304  17.5871567
  53.5531563  92.1049950  17.7862455  53.1417694  93.0471990  16.6749883
  56.3006842  90.7188214  20.7238287  56.3228539  90.7827547  19.7690267
  56.7174901  89.8792723  20.9178793  66.6790466 100.4543474  18.7617510
  67.1221612  99.7050799  18.3636633  65.8016976 100.4453610  18.3791242
  61.8126247 107.0073815  14.2424108  62.5077152 107.6280508  14.4611423
  62.1549398 106.1569166  14.5176486  47.4294057  98.8291616  28.1020926
  46.6875793  98.9774252  28.6885556  47.1086801  99.0899882  27.2387675
  63.7117671 104.4573521  15.7711439  64.2368995 104.7960793  15.0460759
  63.6240023 103.5220536  15.5874574  55.3737719 108.3707594  27.9001316
  55.6824846 108.1256741  28.7724015  56.1713201 108.5754233  27.4120186
  55.3958331 110.5245504  20.1306692  54.9563322 110.0321883  20.8239549
  56.1466448 109.9818472  19.8898767  47.8750670 106.7157045  20.1331320
  48.7008690 106.4160817  19.7529964  47.5244722 105.9464667  20.5821109
  52.8432203 106.0683513  22.2028994  52.2212213 105.4054218  21.9031222
  53.5137070 106.0944645  21.5202642  46.0759275 104.6343371  21.0920254
  45.2391184 104.2065546  20.9104255  46.0482921 104.8275815  22.0291045
  52.9156731  94.5465301  31.7961500  52.9644886  95.4227424  31.4139269
  53.4579245  94.0042694  31.2233143  63.4011577 105.0906424  31.0762637
  62.6107120 105.0730563  30.5367136  63.1644931 105.6294718  31.8311673
  63.5209452 101.9398891  28.3895365  63.5707457 101.7748898  29.3310888
  63.4123375 101.0726150  27.9993246  52.4045710 104.6187436  15.6787454
  52.5533831 105.3022901  15.0254127  53.2112154 104.5992526  16.1936910
  60.8113214  97.9229819  29.7054672  61.7123077  97.7836284  29.4138670
  60.8861189  98.0884274  30.6452850  55.1456019  95.2996674  28.5507858
  54.2759329  95.5930240  28.2790447  55.3815500  95.8837119  29.2715122
  65.0227648 104.3595832  28.6337387  64.7312457 104.7225813  29.4700848
  64.4099780 103.6462841  28.4550719  66.2223331 101.9248712  21.1539957
  67.0570222 102.3638516  21.3177518  66.3582460 101.4487365  20.3348203
  63.2714837  99.4828447  27.1017445  63.7468958  99.6756093  26.2936296
  62.3480402  99.5387633  26.8560829  50.1598343 100.6452614  16.6848523
  49.9144385  99.7414944  16.8828733  50.3294258 100.6469765  15.7428001
  57.8495053  91.5176290  26.0673279  58.3676997  92.2537317  25.7419767
  57.4950186  91.8240284  26.9020038  49.4293991  96.3780972  14.1834685
  48.7363236  96.4525327  13.5274721  49.1845743  95.6141315  14.7056202
  58.1007647  87.9376573  21.5874175  58.3809401  87.2699762  22.2134602
  58.8858254  88.1305669  21.0748839  55.9041116 107.1135567  13.1499202
  55.3315083 107.7325754  12.6969674  56.4773910 107.6634929  13.6839124
  61.9716506  96.3594207  25.3345751  62.9233929  96.4592305  25.3557975
  61.8019956  95.5672476  25.8443835  59.9930885  93.4449790  25.5205151
  59.3980817  93.7254803  24.8251640  59.7080582  93.9343691  26.2921893
  59.1238376 107.3972717  14.2807784  60.0569049 107.3318279  14.4840660
  59.0361588 108.2328984  13.8222317  64.4504583  99.5800327  24.4488050
  64.4180904  98.6416327  24.6347734  65.0605207  99.6584363  23.7153875
  56.2887914  98.4496380  10.4915254  57.2347019  98.3202588  10.5603672
  55.9102159  97.7111042  10.9684682  64.5999072  96.3711370  24.4946333
  64.0838121  95.5869827  24.3076262  65.4839020  96.0430087  24.6592853
  62.2609799  90.1152386  20.4542146  62.0634620  89.8067474  21.3385478
  62.8709504  90.8414025  20.5840076  70.2681133 100.6416334  23.5894087
  70.9984522 100.3801622  24.1501790  69.6588079  99.9045055  23.6296155
  68.3496430  98.7824196  24.1868538  67.6229594  98.6480161  23.5785030
  67.9343717  99.0901025  24.9925256  56.1726607 102.5014126  31.9515911
  57.0929616 102.6792725  32.1455958  56.1376190 101.5570171  31.7995611
  54.4730832  96.3746356  10.4270139  53.5662287  96.0779469  10.5032853
  54.7506813  96.0776174   9.5604426  45.3908772  97.6952719  20.8769186
  45.0711556  96.8418028  20.5843560  44.8442200  97.9101298  21.6327153
  49.1688679 100.4115160  24.5938692  49.3874689 101.3432268  24.6126726
  49.5814453 100.0523135  25.3793496  56.0892897  90.9183246  16.5814381
  55.2793626  90.5730331  16.9569627  56.7777314  90.6090789  17.1701992
  58.0183446  89.9961293  18.2038677  58.5714484  90.4156746  18.8628701
  58.2553532  89.0697041  18.2461633  54.0416545  95.9848366  33.9841441
  53.9413272  96.9342723  33.9153532  53.8238087  95.6566605  33.1117511
  53.2429616  93.2333291  10.5682119  54.1048780  93.5588190  10.8277936
  53.4279960  92.4464787  10.0555184  45.2597032 101.3155631  22.8462307
  44.5660503 100.9009584  22.3332262  46.0070023 101.3576167  22.2495726
  61.3962253  92.1061818  17.7117342  60.8160922  92.7646622  17.3295394
  61.1298185  91.2839162  17.3004759  59.8465819  91.5066875  19.9138662
  60.3465597  91.6183410  19.1052981  60.4901427  91.2027928  20.5539470
  53.9047815  99.4145505  32.8006503  53.4214897 100.2145865  33.0070392
  53.9908754  99.4253450  31.8473947  47.1733774 101.2473885  20.7228322
  47.1504463 101.3461572  19.7710205  47.4834411 102.0939036  21.0445488
  49.8321152 103.3050040  24.8374937  50.7864406 103.2733982  24.7704868
  49.6333676 102.8440663  25.6525163  50.4220534 101.8751156  27.4045734
  51.2413423 102.3695234  27.4280572  50.6957342 100.9583124  27.3763302
  60.1787131  94.2661908  16.7673690  59.2912986  94.5511559  16.5493885
  60.5941120  94.1055671  15.9200967  63.5301667  94.2908429  20.4828029
  64.3062057  94.7804882  20.7552646  62.8049801  94.7166483  20.9399899
  65.9674225  95.0036048  21.5401970  66.5618716  94.7631784  20.8295278
  66.0400809  94.2843179  22.1675506  48.1871381 108.8469659  21.8545135
  48.0525849 108.0870060  21.2883133  47.7703443 109.5710559  21.3873924
  59.3230344 104.0306583  10.8621710  60.0266194 104.2356585  11.4779366
  58.5992993 104.5983345  11.1270793  60.1528154  99.7816444  16.9823980
  60.0963356 100.2384995  16.1431613  60.7056497  99.0207129  16.8046823
  63.9632960  95.5706176  17.8074100  63.7069895  95.1702812  18.6382307
  63.3385828  96.2849970  17.6824239  68.2745298  98.3102249  20.3145391
  67.7144856  98.3795438  21.0876953  67.6688801  98.1343234  19.5944887
  51.3440507 109.7438976  22.0663577  51.2272891 110.6884409  21.9642268
  50.5232953 109.4412538  22.4549376  61.2317041 104.4689112  12.9120170
  62.0662645 104.0370310  12.7297645  61.0701384 104.2971126  13.8397064
  60.8862934 100.9721225  14.2776509  60.8311737 100.8065497  13.3364953
  60.2608989 101.6797258  14.4338699  45.6755449  96.2089290  28.1037931
  46.3214312  95.6988244  28.5925157  45.4672600  96.9457971  28.6781357
  58.2008841 103.2770137  33.6030072  59.0700000 103.4510789  33.2416707
  57.7215592 104.0964554  33.4805801  54.1959059  90.4729334  13.8561828
  54.1837729  91.4171174  14.0130099  55.0882481  90.2899480  13.5621289
  52.3695021 110.3967238  25.2819506  53.2722268 110.4290848  25.5986001
  52.1432391 109.4667689  25.2965841  54.1248623 109.1498225  21.9429584
  53.1744254 109.1500086  21.8293957  54.4281109 108.4030959  21.4265619
  58.0111179  87.0672111  18.1107764  57.2443574  86.5130598  18.2564447
  58.4221884  87.1393980  18.9721916  50.0152940  93.3556907  32.2012946
  50.8784401  92.9993712  32.4116270  49.4418350  93.0170802  32.8888350
  69.8601317 114.9858763  23.0075347  70.4979727 114.8665510  22.3038687
  69.7422159 115.9339607  23.0663299  66.6691023 114.9386191  22.9436871
  66.3309534 114.8227256  22.0557406  67.5380791 114.5377356  22.9237878
  67.1510806 116.0921043  28.9023077  67.1399447 115.6973841  28.0303581
  67.3131445 115.3587116  29.4956848  60.0742270 118.2872859  21.7717983
  60.8663562 117.9463684  21.3564282  60.3138921 118.3967834  22.6920136
  63.8718067 118.8758155  27.8502261  63.5807933 119.7803786  27.7348927
  64.5075051 118.9174682  28.5646330  64.7974274 116.2535003  24.4403621
  65.3937846 116.0291026  23.7260584  64.8549245 115.5119749  25.0429068
  69.4142585 112.7110217  20.0828555  70.2005674 112.2929640  19.7318972
  69.6781289 113.6156309  20.2510203  72.3376433 106.3607024  25.4456142
  72.0059757 107.2302435  25.2217357  71.7422046 106.0443308  26.1250172
  68.8307952 118.5619570  24.8452055  68.5308675 119.4644609  24.7367862
  68.4859012 118.2951753  25.6973208  62.2820434 115.0133367  20.8788759
  61.3570930 114.8809581  21.0866451  62.5304847 115.7927586  21.3758701
  72.2305096 111.0802110  22.5249492  71.3221973 111.0117519  22.2308253
  72.1792692 111.5574055  23.3531317  59.6429245 114.6566641  21.7132548
  59.7721626 114.9101120  22.6271960  58.9626696 115.2494349  21.3937203
  66.3045962 112.4991756  30.4684389  65.5279296 113.0585676  30.4587254
  66.9436525 112.9848539  30.9899259  74.0966742 109.2818549  24.3027366
  73.4541123 109.5751082  23.6567160  73.5921671 109.1671469  25.1080563
  64.5592334 115.3077209  30.0302356  65.3007018 115.8462253  29.7537180
  63.8529319 115.9343498  30.1873908  70.0347674 117.4506350  28.6274518
  70.4431030 117.0088760  27.8829150  69.3124935 116.8758977  28.8808711
  66.3878744 112.3878957  26.0008075  67.2339939 112.8118370  26.1442724
  66.3277381 111.7312581  26.6946638  69.5378189 110.0483325  27.6589248
  69.2939121 110.8025385  27.1223524  69.8138119 110.4268673  28.4936495
  71.4916652 116.5921937  26.3366514  71.7033547 117.2353697  25.6600895
  71.4446400 115.7584254  25.8688444  69.0942881 109.2039758  23.2403086
  68.2327360 109.5021012  23.5319824  69.1205315 109.4210157  22.3084119
  62.8028531 117.2953430  22.5856655  63.3729888 117.7240698  21.9474139
  63.3936643 117.0136015  23.2840841  63.2953698 112.4616858  30.8317666
  62.6652358 113.1433138  31.0653063  63.1889786 112.3499939  29.8870804
  58.5898670 112.1288654  21.7583590  57.7997724 112.3846182  21.2823701
  59.0809918 112.9436991  21.8635631  60.5413416 112.4933233  18.7167067
  59.7444579 112.6051927  19.2350563  60.3139008 112.8319885  17.8507958
  66.3719083 119.0177936  26.6649582  66.4363516 119.4798343  27.5007754
  65.6630007 118.3875301  26.7931892  56.8736373 112.3819144  24.1898581
  57.1244412 113.2666154  24.4556157  57.4095922 112.2023746  23.4173673
  62.5734440 106.7637623  33.1942917  62.1801386 106.2103822  33.8690561
  63.3900581 107.0748202  33.5849435  65.4902401 108.1795502  30.7863174
  66.2312115 108.7802656  30.7067636  65.7220324 107.4373140  30.2281216
  60.6343739 113.3651870  29.0641404  60.5197255 112.4637127  29.3648502
  59.7788257 113.6115566  28.7126220  67.7135577 121.3069610  30.6628904
  67.2699431 120.5205989  30.3449809  68.3752791 121.4948761  29.9972795
  62.4722698 122.8365412  25.1889583  63.0230123 122.7082475  24.4166577
  61.6334174 123.1360301  24.8384475  69.8116815 121.5872410  28.6910305
  69.7935291 122.4081291  28.1990575  70.7336735 121.4626485  28.9160447
  66.2689869 119.1016539  29.5333814  66.8018206 118.3404828  29.3033122
  65.7403950 118.8090191  30.2757968  69.4359564 104.2076605  25.0627456
  69.0923834 105.0978247  24.9866566  69.8038527 104.0178263  24.1997041
  57.5045415 116.5310136  17.8816058  58.3420637 116.9407144  17.6649765
  57.6823683 115.5909578  17.8516252  66.9856958 109.0434917  18.6285129
  66.1298554 108.6541768  18.4490768  67.3983910 109.1226878  17.7684915
  68.5156105 106.5781261  23.0276689  68.0120900 106.5411396  22.2144494
  68.8086712 107.4874003  23.0873345  64.7598991 106.6619990  22.0342870
  65.6251987 106.4662799  21.6748760  64.8276500 106.4330342  22.9612227
  62.3661310 108.8922198  19.4059237  62.9405062 108.6697380  18.6732430
  62.9532292 108.9610893  20.1587839  64.6683977 105.7663447  18.1334307
  64.0148390 105.4512464  17.5090922  64.6264452 105.1439188  18.8594130
  67.9021718 112.2545381  22.4581954  66.9844279 112.4760328  22.3003642
  68.3181861 112.3291691  21.5993662  71.2347230 103.4670165  20.1645193
  71.5406107 102.6067528  19.8771108  71.9599835 104.0587785  19.9644187
  57.5271586 113.8700851  18.5526791  57.3295986 113.2770212  17.8277858
  56.9718250 113.5653061  19.2702730  65.5068310 113.7623958  20.6721384
  65.5616920 112.8097794  20.5963861  64.6959512 113.9183397  21.1562683
  63.4460670 112.3801017  18.4311763  62.6328535 112.6795188  18.8376955
  63.9419664 111.9856706  19.1486245  69.0434881 112.8442842  27.2626657
  69.3984269 113.0714315  28.1221123  69.6907013 113.1761219  26.6403912
  62.9374744 109.9519373  24.0472998  63.5774124 109.8108132  23.3495961
  62.1052275 109.6653886  23.6711600  68.5329893 121.6339899  24.5120358
  68.5866915 122.2030835  25.2798074  67.6644674 121.8041784  24.1474395
  59.9403361 109.9219698  18.8245985  60.2010178 110.8365031  18.7155145
  60.7620533 109.4544140  18.9742598  61.4128286 111.3357455  25.9944809
  62.0851340 111.1274817  25.3457458  60.5858073 111.1379541  25.5550042
  67.3153858 107.9619396  28.0110470  66.6681773 108.6609346  27.9174947
  68.0854874 108.3955540  28.3786718  70.7232656 118.2268248  31.0861024
  70.5718163 117.9978800  30.1691107  70.7137336 119.1838850  31.0992369
  67.4917993 115.8000161  26.0707290  68.4210053 115.9511321  25.8976257
  67.0709023 115.8884182  25.2155937  66.2906324 119.8250825  23.8405828
  66.1517410 119.4569610  24.7131766  65.5020921 120.3398465  23.6689785
  61.8155783 114.6100058  26.7547247  61.6775581 113.8780297  27.3558786
  62.7260707 114.5208958  26.4731434  64.4438084 114.3220017  26.2430926
  65.1537703 113.6813210  26.2017545  64.4007392 114.5732912  27.1657107
  72.4324863 121.2587371  29.1637505  72.3737409 120.5746591  28.4968088
  72.8344381 122.0006361  28.7118131  63.1567018 111.3085235  28.0626566
  62.6204375 110.8575974  28.7148162  62.5683727 111.4431144  27.3197030
  72.4342270 119.2226955  27.3951485  71.5469049 118.8852876  27.5177884
  73.0040821 118.4909986  27.6320250  54.0871417 115.5551046  20.7194536
  54.7742457 115.2412776  20.1315552  53.9319546 116.4592411  20.4461788
  58.8906139 110.4441243  25.1479560  58.8064328 109.8366913  24.4129970
  58.0688846 110.9350261  25.1489057  69.0629853 108.9294806  20.5149755
  69.5598553 108.1764769  20.1950825  68.2916835 108.9659123  19.9492965
  68.4242107 123.7815241  26.5170887  69.1370079 124.4162706  26.4446788
  67.9332136 123.8779107  25.7010889  65.6464822 111.0712189  20.2421440
  65.2762609 110.5183230  20.9302345  66.1423914 110.4670323  19.6896440
  63.4754021 121.5309685  27.3376458  64.1763480 122.1646167  27.4905852
  63.0049136 121.8724416  26.5772097  71.5048848 105.8964400  22.6629114
  70.5911928 106.1268627  22.8311321  71.9341949 105.9802844  23.5143146
  71.2755306 114.0854292  25.1629008  70.6226757 114.3330199  24.5081461
  71.6535686 113.2718430  24.8291485  67.3242880 114.8274103  31.6495045
  66.6483517 114.7268232  32.3197420  68.1470513 114.6713317  32.1131042
  59.0721739 121.0646040  24.2707560  59.6575175 120.3189727  24.4035465
  58.8746577 121.3749996  25.1544224  53.6639393 113.6351640  22.9912004
  53.7023493 113.1015230  23.7849122  53.1579686 113.1086845  22.3722981
  61.0430156 108.4816180  26.4874546  61.1071482 109.3431011  26.0751944
  60.9797276 107.8690182  25.7546904  60.5182428 110.5539313  30.1347580
  61.1454467 110.1716390  30.7485104  59.6610347 110.3353515  30.5003273
  70.9176537 120.9602288  31.7401316  71.4616441 121.5732246  31.2456270
  70.3363382 121.5181866  32.2568329  57.2947971 112.3615742  16.0665935
  57.5901412 111.4526420  16.0132989  56.3936007 112.3403481  15.7446937
  60.8242218 110.4371738  22.0493484  60.1028804 111.0507706  21.9100957
  61.6135474 110.9729503  21.9710130  63.6268531 107.7726165  28.3234135
  64.1502933 108.0188462  29.0860445  63.4080865 108.6046200  27.9037273
  59.0235812 110.0429840  16.1905260  58.6948519 109.1627218  16.0080366
  59.3775183 109.9877508  17.0781649  62.1377636 110.3302809  16.5580738
  62.4773708 110.8588731  15.8359346  62.5849756 110.6683215  17.3339304
  64.8321076 108.7139860  26.0083806  64.4917897 107.9147673  26.4104486
  64.1260083 109.0141571  25.4360639  65.4837548 105.7989173  24.4611129
  66.3063618 105.3249651  24.3390019  65.7275612 106.5779656  24.9609815
  63.0076127 112.4908293  22.2703108  62.8620708 112.8048596  23.1627389
  62.5301331 113.1093193  21.7174006  64.8672510 109.4810841  22.3183997
  64.8534079 108.5851934  21.9816295  65.5844938 109.4881505  22.9522283
  66.7198641 109.9148181  24.3637125  66.4616418 110.8365252  24.3621455
  66.1883681 109.5178616  25.0537589  57.4821789 115.0313638  25.2090769
  56.9375257 115.8073446  25.3411043  58.3601139 115.3784442  25.0509890
  64.2709406 108.3625221  17.5871567  64.3925317 107.4341868  17.7862455
  63.9811448 108.3763907  16.6749883  67.1400596 106.0480132  20.7238287
  67.1622293 106.1119465  19.7690267  67.5568655 105.2084641  20.9178793
  58.2687811 114.1583534  28.1020926  57.5269547 114.3066169  28.6885556
  57.9480555 114.4191799  27.2387675  66.2131474 123.6999512  27.9001316
  66.5218600 123.4548659  28.7724015  67.0106956 123.9046151  27.4120186
  56.9153030 119.9635289  21.0920254  56.0784938 119.5357463  20.9104255
  56.8876675 120.1567732  22.0291045  63.7550485 109.8757219  31.7961500
  63.8038641 110.7519342  31.4139269  64.2973000 109.3334612  31.2233143
  74.2405331 120.4198342  31.0762637  73.4500875 120.4022481  30.5367136
  74.0038686 120.9586636  31.8311673  74.3603206 117.2690808  28.3895365
  74.4101211 117.1040816  29.3310888  74.2517129 116.4018067  27.9993246
  71.6506969 113.2521736  29.7054672  72.5516831 113.1128201  29.4138670
  71.7254943 113.4176191  30.6452850  65.9849774 110.6288591  28.5507858
  65.1153083 110.9222157  28.2790447  66.2209254 111.2129036  29.2715122
  75.8621403 119.6887750  28.6337387  75.5706211 120.0517730  29.4700848
  75.2493534 118.9754758  28.4550719  74.1108591 114.8120365  27.1017445
  74.5862713 115.0048011  26.2936296  73.1874157 114.8679550  26.8560829
  68.6888808 106.8468208  26.0673279  69.2070752 107.5829235  25.7419767
  68.3343940 107.1532201  26.9020038  68.9401402 103.2668491  21.5874175
  69.2203156 102.5991680  22.2134602  69.7252009 103.4597586  21.0748839
  72.8110260 111.6886125  25.3345751  73.7627683 111.7884222  25.3557975
  72.6413711 110.8964393  25.8443835  70.8324640 108.7741708  25.5205151
  70.2374572 109.0546721  24.8251640  70.5474336 109.2635609  26.2921893
  75.2898338 114.9092244  24.4488050  75.2574658 113.9708245  24.6347734
  75.8998962 114.9876281  23.7153875  75.4392826 111.7003288  24.4946333
  74.9231875 110.9161744  24.3076262  76.3232775 111.3722004  24.6592853
  73.1003553 105.4444303  20.4542146  72.9028375 105.1359392  21.3385478
  73.7103259 106.1705942  20.5840076  67.0120361 117.8306043  31.9515911
  67.9323371 118.0084642  32.1455958  66.9769944 116.8862089  31.7995611
  56.2302526 113.0244637  20.8769186  55.9105311 112.1709945  20.5843560
  55.6835955 113.2393215  21.6327153  60.0082434 115.7407078  24.5938692
  60.2268444 116.6724186  24.6126726  60.4208208 115.3815053  25.3793496
  66.9286652 106.2475163  16.5814381  66.1187380 105.9022248  16.9569627
  67.6171069 105.9382707  17.1701992  68.8577200 105.3253210  18.2038677
  69.4108239 105.7448664  18.8628701  69.0947286 104.3988958  18.2461633
  64.8810299 111.3140284  33.9841441  64.7807026 112.2634641  33.9153532
  64.6631841 110.9858523  33.1117511  56.0990786 116.6447549  22.8462307
  55.4054258 116.2301501  22.3332262  56.8463777 116.6868085  22.2495726
  70.6859573 106.8358793  19.9138662  71.1859352 106.9475328  19.1052981
  71.3295181 106.5319846  20.5539470  64.7441569 114.7437423  32.8006503
  64.2608651 115.5437783  33.0070392  64.8302508 114.7545368  31.8473947
  58.0127529 116.5765802  20.7228322  57.9898217 116.6753490  19.7710205
  58.3228165 117.4230953  21.0445488  60.6714907 118.6341957  24.8374937
  61.6258160 118.6025900  24.7704868  60.4727430 118.1732581  25.6525163
  61.2614289 117.2043073  27.4045734  62.0807178 117.6987152  27.4280572
  61.5351097 116.2875042  27.3763302  74.3695421 109.6200347  20.4828029
  75.1455811 110.1096799  20.7552646  73.6443555 110.0458401  20.9399899
  56.5149203 111.5381207  28.1037931  57.1608067 111.0280161  28.5925157
  56.3066354 112.2749889  28.6781357  69.0402595 118.6062055  33.6030072
  69.9093755 118.7802707  33.2416707  68.5609347 119.4256472  33.4805801
  63.2088776 125.7259156  25.2819506  64.1116022 125.7582766  25.5986001
  62.9826146 124.7959607  25.2965841  68.8504933 102.3964029  18.1107764
  68.0837329 101.8422515  18.2564447  69.2615638 102.4685897  18.9721916
  60.8546694 108.6848824  32.2012946  61.7178156 108.3285629  32.4116270
  60.2812105 108.3462719  32.8888350  73.4128195 122.0929541  33.1942917
  73.0195140 121.5395740  33.8690561  74.2294335 122.4040120  33.5849435
  76.3296156 123.5087420  30.7863174  77.0705869 124.1094573  30.7067636
  76.5614079 122.7665058  30.2281216  71.3576183 125.8831230  30.1347580
  71.9848221 125.5008308  30.7485104  70.5004101 125.6645432  30.5003273
  74.5944240 125.2049136  31.7961500  74.6432395 126.0811259  31.4139269
  75.1366754 124.6626530  31.2233143  75.7204054 126.6432202  33.9841441
  75.6200781 127.5926558  33.9153532  75.5025596 126.3150440  33.1117511
  67.3542958 126.8673125  28.1037931  68.0001821 126.3572079  28.5925157
  67.1460109 127.6041807  28.6781357  71.6940449 124.0140742  32.2012946
  72.5571910 123.6577547  32.4116270  71.1205859 123.6754637  32.8888350
  24.3560560  36.9964062  17.3874211  23.9124415  36.2100440  17.0695115
  25.0177774  37.1843212  16.7218102  26.4541799  37.2766862  15.4155612
  26.4360274  38.0975743  14.9235881  27.3761719  37.1520937  15.6405753
  27.3657639  33.9162700  17.8106330  27.2143146  33.6873252  16.8936414
  27.3562319  34.8733301  17.8237675  29.0749846  36.9481823  15.8882812
  29.0162392  36.2641043  15.2213395  29.4769364  37.6900813  15.4363438
  27.5601520  36.6496740  18.4646622  28.1041424  37.2626698  17.9701577
  26.9788365  37.2076318  18.9813635  30.8830314  36.1092794  17.8007944
  30.0925858  36.0916933  17.2612443  30.6463669  36.6481088  18.5556980
  32.5046386  35.3782202  15.3582694  32.2131195  35.7412182  16.1946155
  31.8918518  34.6649210  15.1796026  25.6827579  34.2956507  20.3275379
  26.5518738  34.4697159  19.9662014  25.2034330  35.1150924  20.2051108
  37.3420054  46.0045133   9.7320653  37.9798464  45.8851880   9.0283993
  37.2240897  46.9525977   9.7908606  34.1509761  45.9572561   9.6682178
  33.8128272  45.8413625   8.7802713  35.0199529  45.5563726   9.6483184
  34.6329544  47.1107412  15.6268384  34.6218184  46.7160211  14.7548887
  34.7950183  46.3773485  16.2202155  27.5561008  49.3059229   8.4963289
  28.3482300  48.9650053   8.0809589  27.7957658  49.4154204   9.4165443
  31.3536805  49.8944524  14.5747568  31.0626671  50.7990155  14.4594234
  31.9893789  49.9361052  15.2891637  32.2793012  47.2721373  11.1648927
  32.8756584  47.0477395  10.4505890  32.3367983  46.5306118  11.7674375
  42.2969750  43.6671820   7.7106840  43.0294922  43.0971036   7.9444669
  41.5409106  43.2793420   8.1513345  39.8195170  37.3793394  12.1701449
  39.4878495  38.2488805  11.9462663  39.2240784  37.0629678  12.8495479
  36.3126690  49.5805940  11.5697361  36.0127413  50.4830979  11.4613168
  35.9677749  49.3138123  12.4218514  39.7123834  42.0988480   9.2494799
  38.8040711  42.0303888   8.9553560  39.6611429  42.5760425  10.0776624
  31.2947470  56.3450260   4.5368329  31.2171499  57.2958085   4.6156810
  30.6909113  55.9996133   5.1943255  33.7864699  43.5178126  17.1929696
  33.0098034  44.0772046  17.1832560  34.4255262  44.0034909  17.7144566
  41.5785480  40.3004918  11.0272672  40.9359860  40.5937452  10.3812467
  41.0740409  40.1857839  11.8325869  32.0411072  46.3263579  16.7547663
  32.7825756  46.8648623  16.4782486  31.3348057  46.9529868  16.9119215
  37.5166411  48.4692719  15.3519824  37.9249767  48.0275130  14.6074457
  36.7943673  47.8945347  15.6054017  33.8697481  43.4065326  12.7253381
  34.7158677  43.8304740  12.8688030  33.8096119  42.7498950  13.4191944
  37.8395226  49.0293910   9.1072113  37.2104088  49.1939624   8.4048181
  37.4520888  49.4435520   9.8783077  41.7184458  49.9648348   6.4616477
  41.0335496  50.3447249   5.9113510  41.8028307  50.5743675   7.1948425
  37.0196927  41.0669695  14.3834555  36.7757859  41.8211755  13.8468831
  37.2956857  41.4455042  15.2181802  38.9735390  47.6108307  13.0611821
  39.1852285  48.2540067  12.3846202  38.9265138  46.7770623  12.5933751
  33.3923188  48.7668318   6.3722198  33.8561533  49.0456021   5.5826821
  33.1279986  47.8651763   6.1895289  30.2847269  48.3139800   9.3101962
  30.8548626  48.7427068   8.6719446  30.8755381  48.0322384  10.0086147
  30.7772435  43.4803227  17.5562973  30.1471096  44.1619508  17.7898370
  30.6708523  43.3686309  16.6116111  40.0881217  50.4880262  11.2334178
  40.9098661  50.0860450  10.9516859  40.0843620  50.3848496  12.1850294
  33.8537821  50.0364306  13.3894888  33.9182253  50.4984713  14.2253060
  33.1448745  49.4061671  13.5177198  48.1787211  46.8319011   7.5819149
  47.4250919  46.2626409   7.4263154  48.3134752  46.7981675   8.5289784
  30.0553178  37.7823993  19.9188224  29.6620124  37.2290191  20.5935868
  30.8719319  38.0934571  20.3094741  28.8310121  52.3373607   5.9124547
  29.0076749  53.2591572   5.7245531  29.6266954  52.0232027   6.3418927
  32.9721139  39.1981872  17.5108480  33.7130853  39.7989025  17.4312943
  33.2039062  38.4559510  16.9526523  28.1162477  44.3838239  15.7886710
  28.0015992  43.4823497  16.0893809  27.2606995  44.6301936  15.4371527
  35.1954315  52.3255980  17.3874211  34.7518169  51.5392358  17.0695115
  35.8571529  52.5135130  16.7218102  29.9541436  53.8551781  11.9134889
  30.5048861  53.7268845  11.1411883  29.1152912  54.1546670  11.5629782
  37.2935553  52.6058780  15.4155612  37.2754028  53.4267661  14.9235881
  38.2155473  52.4812855  15.6405753  33.7508607  50.1202909  16.2579120
  34.2836944  49.3591197  16.0278428  33.2222688  49.8276561  17.0003275
  40.0954166  47.4437922   8.8864979  39.4377840  48.1337183   8.9745107
  40.8994565  47.8334354   9.2298965  38.9059625  45.7982295   6.9368920
  39.4191506  46.4312287   7.4390630  39.5560849  45.1983490   6.5712280
  35.3840456  43.2731750   9.1827261  34.4663017  43.4946697   9.0248949
  35.8000599  43.3478061   8.3238968  39.6721421  50.7788296   5.0648063
  39.2183748  49.9379206   5.1213254  39.0415388  51.4149694   5.4022843
  38.1154360  52.6164793   5.9997881  38.4077335  53.1769850   5.2810247
  38.6252981  52.9093354   6.7551040  33.0787985  53.3945144   7.0891334
  33.0364164  53.6205990   6.1599866  33.9950684  53.1608518   7.2377136
  36.5253619  43.8629211  13.9871964  36.8803007  44.0900685  14.8466429
  37.1725750  44.1947588  13.3649219  42.2551356  46.9847647   4.6921293
  42.1169255  47.1749243   3.7642482  41.8987575  47.7467030   5.1489344
  42.2820736  49.0524174   9.7032564  42.7157242  48.9599463  10.5515618
  42.9952316  49.0281675   9.0652580  31.1953786  50.2708173   6.8853297
  31.9894385  49.7758493   6.6835872  30.4845479  49.7426036   6.5221003
  36.0148631  52.6526268  11.2365665  36.0685653  53.2217205  12.0043381
  35.1463412  52.8228153  10.8719702  28.8947024  42.3543825  12.7190116
  29.5670077  42.1461187  12.0702765  28.0676811  42.1565911  12.2795348
  43.1436285  49.0947875  12.2365450  43.3372175  49.9993685  12.4824725
  43.0436903  48.6355294  13.0704035  34.7972596  38.9805766  14.7355777
  34.1500511  39.6795715  14.6420253  35.5673611  39.4141909  15.1032025
  38.2051394  49.2454618  17.8106330  38.0536900  49.0165169  16.8936414
  38.1956073  50.2025219  17.8237675  34.9736730  46.8186530  12.7952597
  35.9028790  46.9697690  12.6221564  34.5527760  46.9070551  11.9401243
  33.7725062  50.8437195  10.5651134  33.6336148  50.4755979  11.4377072
  32.9839658  51.3584834  10.3935092  34.3673214  55.9446291   1.9076671
  34.5424970  55.4734335   2.7222293  33.6806002  56.5712058   2.1357932
  35.3230277  50.2218798   7.9539972  34.9880110  50.1819568   8.8497622
  34.8234223  49.5563514   7.4810382  29.2974521  45.6286428  13.4792553
  29.1594319  44.8966666  14.0804092  30.2079445  45.5395328  13.1976741
  31.9256822  45.3406387  12.9676233  32.6356440  44.6999579  12.9262851
  31.8826130  45.5919282  13.8902414  39.9143601  52.2773740  15.8882812
  39.8556147  51.5932960  15.2213395  40.3163119  53.0192730  15.4363438
  30.6385756  42.3271605  14.7871872  30.1023113  41.8762343  15.4393469
  30.0502464  42.4617514  14.0442337  28.9334299  59.0935654   8.6816531
  29.1730898  59.7254178   9.3595550  28.0903496  58.7423694   8.9681890
  39.9161008  50.2413324  14.1196792  39.0287787  49.9039246  14.2423191
  40.4859559  49.5096355  14.3565557  33.4462161  54.9014777  11.0858035
  33.3732333  55.7069748  11.5977339  33.0039554  55.1006742  10.2606056
  33.2351941  54.1386547   4.5960856  32.4519463  54.6808227   4.6899081
  33.9344686  54.6560526   4.9955098  44.3978348  45.6521542   8.8813353
  44.3868225  46.5346257   8.5107286  43.5295728  45.2993092   8.6867890
  35.9060845  54.8001611  13.2416194  36.6188817  55.4349075  13.1692095
  35.4150873  54.8965477  12.4256195  37.6278372  48.7052863   4.8133485
  36.6934650  48.8254326   4.6438190  37.8055040  47.8025330   4.5493495
  41.0150923  44.5470183   5.3483519  41.4811375  45.3798174   5.2743822
  41.4658424  44.0815164   6.0528778  30.9572758  52.5496054  14.0621764
  31.6582218  53.1832537  14.2151159  30.4867873  52.8910786  13.3017404
  38.7574044  45.1040662  11.8874315  38.1045495  45.3516569  11.2326768
  39.1354424  44.2904800  11.5536792  35.7181218  55.1400355   5.9902485
  35.9003613  54.3222011   6.4530237  36.5414204  55.3568047   5.5527375
  36.0523384  54.0668540   3.2517534  36.5811150  53.5560994   2.6387696
  36.3151603  53.7511070   4.1163067  34.8061617  45.8460473  18.3740352
  34.1302254  45.7454602  19.0442727  35.6289251  45.6899686  18.8376349
  26.5540476  52.0832409  10.9952867  27.1393913  51.3376097  11.1280771
  26.3565315  52.3936366  11.8789531  29.4079132  55.1183657   6.0115309
  28.7389507  55.6029784   5.5279350  29.2692001  55.3652877   6.9258688
  33.5484400  57.1527400  12.6097968  34.1002708  57.3159022  13.3747053
  33.8890594  57.7431838  11.9377993  28.0001166  41.5725682  16.8592887
  28.6273205  41.1902760  17.4730411  27.1429085  41.3539884  17.2248579
  38.3995274  51.9788658  18.4646622  38.9435178  52.5918616  17.9701577
  37.8182119  52.5368236  18.9813635  36.6852787  55.1009376   9.5961650
  36.5603927  54.2999115   9.0872595  37.3431879  55.5955569   9.1075620
  38.7487696  52.9018396  11.2241200  37.8018031  52.7823747  11.1519527
  39.0970469  52.0140894  11.3067462  31.1087269  38.7912535  15.0479442
  31.6321671  39.0374831  15.8105751  30.8899602  39.6232569  14.6282579
  35.7534129  52.6971112   7.4245552  35.6059092  51.7687819   7.6053122
  36.5787623  52.7191203   6.9402628  39.3568251  53.5199671   8.5110425
  40.2814798  53.3142532   8.3734876  39.1883554  53.2716072   9.4199767
  32.3139814  39.7326230  12.7329113  31.9736635  38.9334043  13.1349792
  31.6078821  40.0327941  12.1605946  34.2017378  40.9334551  11.0882431
  33.9435156  41.8551622  11.0866762  33.6702419  40.5364985  11.7782895
  39.1463567  54.0385338   3.8672517  39.3200445  53.4731761   3.1146369
  39.6392458  54.8386233   3.6852006  24.9640527  46.0500007  11.9336075
  24.4193995  46.8259815  12.0656350  25.8419877  46.3970812  11.7755197
  45.0002958  46.8021761   5.4862816  45.4434104  46.0529086   5.0881940
  44.1229469  46.7931897   5.1036548  40.1338740  53.3552102   0.9669415
  40.8289644  53.9758795   1.1856729  40.4761890  52.5047454   1.2421793
  25.7506549  45.1769903  14.8266232  25.0088285  45.3252539  15.4130863
  25.4299293  45.4378169  13.9632982  42.0330163  50.8051808   2.4956746
  42.5581487  51.1439081   1.7706066  41.9452515  49.8698823   2.3119880
  33.6950211  54.7185882  14.6246622  34.0037338  54.4735028  15.4969322
  34.4925694  54.9232520  14.1365492  33.7170824  56.8723791   6.8551999
  33.2775814  56.3800170   7.5484855  34.4678940  56.3296759   6.6144074
  26.1963163  53.0635332   6.8576627  27.0221182  52.7639104   6.4775270
  25.8457215  52.2942955   7.3066416  31.1644696  52.4161800   8.9274300
  30.5424705  51.7532505   8.6276528  31.8349563  52.4422932   8.2447948
  31.2369223  40.8943588  18.5206806  31.2857379  41.7705711  18.1384576
  31.7791737  40.3520981  17.9478450  41.7224069  51.4384712  17.8007944
  40.9319613  51.4208850  17.2612443  41.4857423  51.9773005  18.5556980
  41.8421944  48.2877178  15.1140672  41.8919949  48.1227185  16.0556195
  41.7335867  47.4204437  14.7238553  39.1325706  44.2708106  16.4299979
  40.0335569  44.1314571  16.1383977  39.2073681  44.4362561  17.3698156
  33.4668512  41.6474961  15.2753165  32.5971821  41.9408527  15.0035754
  33.7027992  42.2315406  15.9960429  43.3440141  50.7074119  15.3582694
  43.0524949  51.0704100  16.1946155  42.7312272  49.9941128  15.1796026
  44.5435823  48.2726999   7.8785264  45.3782714  48.7116803   8.0422824
  44.6794952  47.7965652   7.0593510  41.5927329  45.8306734  13.8262752
  42.0681451  46.0234380  13.0181603  40.6692894  45.8865920  13.5806135
  36.1707545  37.8654578  12.7918586  36.6889489  38.6015605  12.4665074
  35.8162678  38.1718571  13.6265345  40.2928998  42.7072494  12.0591057
  41.2446421  42.8070592  12.0803281  40.1232448  41.9150763  12.5689142
  38.3143377  39.7928077  12.2450458  37.7193310  40.0733090  11.5496947
  38.0293074  40.2821978  13.0167199  42.7717076  45.9278614  11.1733357
  42.7393396  44.9894615  11.3593041  43.3817699  46.0062651  10.4399182
  42.9211564  42.7189657  11.2191640  42.4050613  41.9348114  11.0321569
  43.8051513  42.3908374  11.3838160  48.5893626  46.9894621  10.3139394
  49.3197014  46.7279909  10.8747097  47.9800571  46.2523343  10.3541462
  46.6708923  45.1302483  10.9113845  45.9442086  44.9958448  10.3030336
  46.2556210  45.4379312  11.7170563  34.4939099  48.8492413  18.6761218
  35.4142109  49.0271012  18.8701264  34.4588682  47.9048458  18.5240917
  27.4901172  46.7593448  11.3183999  27.7087181  47.6910555  11.3372033
  27.9026946  46.4001422  12.1038803  32.3629037  42.3326653  20.7086748
  32.2625764  43.2821010  20.6398839  32.1450579  42.0044892  19.8362818
  32.2260307  45.7623792  19.5251810  31.7427389  46.5624152  19.7315699
  32.3121246  45.7731737  18.5719254  28.1533645  49.6528327  11.5620243
  29.1076898  49.6212269  11.4950175  27.9546168  49.1918951  12.3770469
  28.7433027  48.2229443  14.1291041  29.5625916  48.7173522  14.1525878
  29.0169834  47.3061411  14.1008609  41.8514159  40.6386716   7.2073336
  42.6274549  41.1283169   7.4797953  41.1262293  41.0644771   7.6645205
  44.2886718  41.3514336   8.2647276  44.8831208  41.1110071   7.5540585
  44.3613301  40.6321466   8.8920813  26.5083873  55.1947946   8.5790441
  26.3738341  54.4348347   8.0128439  26.0915936  55.9188846   8.1119230
  46.5957790  44.6580536   7.0390698  46.0357348  44.7273726   7.8122260
  45.9901294  44.4821521   6.3190194  29.6652999  56.0917263   8.7908884
  29.5485383  57.0362696   8.6887574  28.8445445  55.7890825   9.1794683
  23.9967941  42.5567577  14.8283238  24.6426805  42.0466531  15.3170463
  23.7885092  43.2936259  15.4026663  36.5221333  49.6248424  20.3275379
  37.3912493  49.7989077  19.9662014  36.0428085  50.4442841  20.2051108
  30.6907513  56.7445525  12.0064812  31.5934760  56.7769136  12.3231307
  30.4644883  55.8145976  12.0211148  32.4461115  55.4976512   8.6674891
  31.4956746  55.4978374   8.5539263  32.7493602  54.7509246   8.1510926
  28.3365432  39.7035194  18.9258252  29.1996893  39.3471999  19.1361577
  27.7630843  39.3649089  19.6133657  48.1813809  61.3337050   9.7320653
  48.8192219  61.2143798   9.0283993  48.0634652  62.2817894   9.7908606
  44.9903515  61.2864478   9.6682178  44.6522027  61.1705543   8.7802713
  45.8593283  60.8855644   9.6483184  40.8490331  63.1399955   5.6579069
  40.2855196  63.0489892   4.8895357  40.7342726  62.3199859   6.1381562
  45.4723298  62.4399330  15.6268384  45.4611939  62.0452128  14.7548887
  45.6343938  61.7065403  16.2202155  38.3954763  64.6351146   8.4963289
  39.1876055  64.2941971   8.0809589  38.6351413  64.7446121   9.4165443
  46.4289890  66.8070923   0.9693534  45.7777869  67.3925003   0.5827548
  47.2234252  67.3377117   1.0288571  40.3545517  63.8960060   1.3680668
  41.1276393  63.3489047   1.2293544  40.7070916  64.7604309   1.5795130
  42.1930559  65.2236442  14.5747568  41.9020425  66.1282073  14.4594234
  42.8287544  65.2652970  15.2891637  43.1186766  62.6013290  11.1648927
  43.7150338  62.3769313  10.4505890  43.1761738  61.8598036  11.7674375
  42.6911795  60.0552726  -1.0000882  42.9437315  59.5334247  -1.7617419
  41.7536354  59.8918871  -0.8974198  47.7355077  59.0588504   6.8073861
  48.5218167  58.6407927   6.4564278  47.9993782  59.9634596   6.9755510
  47.9065155  64.4961354   1.5062518  47.2710988  64.5695981   2.2183423
  47.5762561  65.0854953   0.8281597  53.1363504  58.9963737   7.7106840
  53.8688676  58.4262954   7.9444669  52.3802860  58.6085338   8.1513345
  42.4108083  61.9580832   1.2023493  42.2944341  61.2825735   1.8704577
  42.5210343  61.4713206   0.3855646  44.7539624  61.4190979   4.9070182
  44.3897831  60.8921600   5.6183104  45.6106740  61.0289448   4.7336668
  50.6588925  52.7085311  12.1701449  50.3272250  53.5780722  11.9462663
  50.0634538  52.3921595  12.8495479  44.3945111  56.4480879  -0.0968469
  44.5619514  57.3161115   0.2702002  44.2042280  56.6108160  -1.0207180
  47.1520444  64.9097857  11.5697361  46.8521167  65.8122896  11.4613168
  46.8071504  64.6430041  12.4218514  40.6032926  61.3611654   7.6034066
  39.6783422  61.2287868   7.8111757  40.8517339  62.1405874   8.1004008
  50.5517588  57.4280398   9.2494799  49.6434465  57.3595806   8.9553560
  50.5005184  57.9052343  10.0776624  44.3734332  58.9038536   0.8878198
  44.2533957  59.3495587   1.7263678  43.6786920  59.2523854   0.3291736
  37.9641737  61.0044928   8.4377855  38.0934118  61.2579407   9.3517266
  37.2839188  61.5972636   8.1182510  42.1341224  71.6742178   4.5368329
  42.0565254  72.6250003   4.6156810  41.5302868  71.3288050   5.1943255
  44.6258454  58.8470043  17.1929696  43.8491788  59.4063963  17.1832560
  45.2649017  59.3326826  17.7144566  52.4179235  55.6296836  11.0272672
  51.7753615  55.9229369  10.3812467  51.9134163  55.5149756  11.8325869
  50.0719398  59.3760009   1.7158532  50.9837254  59.6087396   1.5406229
  49.5629045  59.9597053   1.1533610  42.8804826  61.6555497  16.7547663
  43.6219511  62.1940541  16.4782486  42.1741812  62.2821785  16.9119215
  48.3560166  63.7984637  15.3519824  48.7643522  63.3567048  14.6074457
  47.6337427  63.2237265  15.6054017  44.7091236  58.7357244  12.7253381
  45.5552431  59.1596657  12.8688030  44.6489874  58.0790868  13.4191944
  48.6788981  64.3585828   9.1072113  48.0497843  64.5231542   8.4048181
  48.2914643  64.7727437   9.8783077  52.5578212  65.2940266   6.4616477
  51.8729251  65.6739167   5.9113510  52.6422062  65.9035592   7.1948425
  47.8590681  56.3961612  14.3834555  47.6151613  57.1503673  13.8468831
  48.1350612  56.7746960  15.2181802  49.8129144  62.9400225  13.0611821
  50.0246039  63.5831984  12.3846202  49.7658892  62.1062541  12.5933751
  47.4155373  55.5518045   9.9648393  46.5539852  55.8499299  10.2565130
  47.4417808  55.7688444   9.0329425  44.2316942  64.0960236   6.3722198
  44.6955288  64.3747939   5.5826821  43.9673741  63.1943680   6.1895289
  41.1241023  63.6431717   9.3101962  41.6942381  64.0718986   8.6719446
  41.7149135  63.3614302  10.0086147  43.1685828  60.2183388   3.1811763
  43.8709872  60.6704432   3.6485690  42.8366457  59.5767207   3.8091657
  41.6166190  58.8095145  17.5562973  40.9864851  59.4911426  17.7898370
  41.5102278  58.6978226  16.6116111  36.9111162  58.4766941   8.4828897
  36.1210216  58.7324469   8.0069008  37.4022410  59.2915279   8.5880938
  50.9274972  65.8172180  11.2334178  51.7492416  65.4152367  10.9516859
  50.9237375  65.7140414  12.1850294  38.8625908  58.8411520   5.4412374
  38.0657071  58.9530214   5.9595869  38.6351500  59.1798172   4.5753264
  44.6931575  65.3656223  13.3894888  44.7576008  65.8276631  14.2253060
  43.9842499  64.7353588  13.5177198  35.1948865  58.7297431  10.9143888
  35.4456904  59.6144441  11.1801464  35.7308414  58.5502033  10.1418980
  59.0180965  62.1610928   7.5819149  58.2644673  61.5918327   7.4263154
  59.1528506  62.1273593   8.5289784  44.4079593  67.0324331   3.2573869
  44.2725268  67.8775866   3.6858716  44.9489406  67.2343608   2.4939802
  40.8946933  53.1115911  19.9188224  40.5013878  52.5582109  20.5935868
  41.7113073  53.4226489  20.3094741  37.8608990  64.5499769   3.8301794
  38.3733511  65.3443019   3.9807358  38.5131703  63.8526059   3.7635395
  39.6703875  67.6665525   5.9124547  39.8470504  68.5883490   5.7245531
  40.4660709  67.3523944   6.3418927  43.8114894  54.5273790  17.5108480
  44.5524607  55.1280943  17.4312943  44.0432817  53.7851427  16.9526523
  38.9556232  59.7130157  15.7886710  38.8409747  58.8115414  16.0893809
  38.1000749  59.9593854  15.4371527  46.0348069  67.6547897  17.3874211
  45.5911924  66.8684276  17.0695115  46.6965283  67.8427048  16.7218102
  40.7935191  69.1843699  11.9134889  41.3442616  69.0560762  11.1411883
  39.9546667  69.4838588  11.5629782  48.1329308  67.9350697  15.4155612
  48.1147783  68.7559578  14.9235881  49.0549228  67.8104772  15.6405753
  44.5902362  65.4494827  16.2579120  45.1230698  64.6883115  16.0278428
  44.0616443  65.1568478  17.0003275  47.7572057  50.5554893  11.7872762
  47.4136326  51.4456534  11.7111873  48.1251019  50.3656550  10.9242347
  35.8257907  62.8788423   4.6061364  36.6633129  63.2885431   4.3895072
  36.0036175  61.9387865   4.5761558  47.7222339  60.5463504   0.2945197
  47.2068963  61.3168108   0.5333585  47.4499648  59.8728640   0.9178259
  45.3069450  55.3913205   5.3530436  44.4511047  55.0020055   5.1736074
  45.7196402  55.4705165   4.4930221  46.8368597  52.9259548   9.7521995
  46.3333393  52.8889683   8.9389801  47.1299204  53.8352291   9.8118652
  43.0811483  53.0098278   8.7588177  43.9464480  52.8141086   8.3994067
  43.1488992  52.7808629   9.6857534  52.6956613  63.2995858   2.2298371
  51.9186056  62.9607018   1.7853533  53.3748094  63.3048482   1.5553336
  47.5108643  58.4190596   2.1204978  47.2058778  58.7336745   2.9715122
  48.4639085  58.4972016   2.1632311  45.9555074  64.5780819   3.7697932
  45.4276436  63.8433579   3.4571170  45.4542577  65.3555496   3.5237901
  50.9347920  62.7729840   8.8864979  50.2771595  63.4629101   8.9745107
  51.7388320  63.1626272   9.2298965  40.6873802  55.2400485   6.1304544
  41.2617554  55.0175667   5.3977737  41.2744784  55.3089180   6.8833145
  49.7453379  61.1274212   6.9368920  50.2585261  61.7604204   7.4390630
  50.3954603  60.5275408   6.5712280  41.0143389  57.2704946   0.1500429
  40.1780701  57.6079633   0.4709704  40.8748159  57.1353926  -0.7872434
  42.9896470  52.1141734   4.8579613  42.3360882  51.7990752   4.2336228
  42.9476944  51.4917475   5.5839436  44.1007675  62.3961029  -3.2267095
  43.1934736  62.1650283  -3.0275946  44.5978707  61.5998649  -3.0393113
  47.0075753  71.1058537  -0.3070408  46.3337452  71.4090233   0.3014549
  47.3941575  71.9087617  -0.6564951  46.2234210  58.6023668   9.1827261
  45.3056771  58.8238615   9.0248949  46.6394354  58.6769978   8.3238968
  47.0069258  60.0015084   4.3129941  47.7541077  60.5136481   4.0037063
  47.2760847  59.6799136   5.1734335  45.2795908  62.4973624   1.2956896
  44.3707127  62.2132657   1.3929365  45.3090992  62.9172703   0.4360202
  50.5115175  66.1080214   5.0648063  50.0577503  65.2671124   5.1213254
  49.8809142  66.7441612   5.4022843  49.4548095  57.0372200   6.2948731
  48.7170852  56.5249586   6.6258973  49.7074869  56.5972581   5.4832007
  48.9548115  67.9456710   5.9997881  49.2471089  68.5061768   5.2810247
  49.4646735  68.2385271   6.7551040  49.5559722  49.8148452   6.8890500
  49.8618599  48.9545815   6.6016415  50.2812327  50.4066072   6.6889494
  35.8484078  60.2179138   5.2772098  35.6508478  59.6248499   4.5523164
  35.2930742  59.9131349   5.9948037  43.8280802  60.1102245   7.3966691
  43.8829412  59.1576081   7.3209167  43.0172004  60.2661684   7.8807989
  44.9771996  64.0382368  -1.3655026  44.5391426  63.3218227  -1.8249389
  45.7182437  64.2658483  -1.9269934  41.7673162  58.7279305   5.1557070
  40.9541027  59.0273475   5.5622262  42.2632156  58.3334993   5.8731552
  43.9181740  68.7237062   7.0891334  43.8757919  68.9497908   6.1599866
  44.8344439  68.4900436   7.2377136  47.3647374  59.1921129  13.9871964
  47.7196761  59.4192602  14.8466429  48.0119505  59.5239506  13.3649219
  53.0945111  62.3139565   4.6921293  52.9563009  62.5041161   3.7642482
  52.7381329  63.0758948   5.1489344  41.2587237  56.2997660  10.7718305
  41.8986616  56.1586419  10.0741268  40.4264767  56.0132174  10.3956907
  53.1214490  64.3816092   9.7032564  53.5550997  64.2891381  10.5515618
  53.8346071  64.3573592   9.0652580  42.0347541  65.6000091   6.8853297
  42.8288139  65.1050411   6.6835872  41.3239233  65.0717954   6.5221003
  46.8542385  67.9818186  11.2365665  46.9079407  68.5509122  12.0043381
  45.9857166  68.1520071  10.8719702  38.3430304  59.7443172   2.9613050
  37.4127892  59.6827628   3.1783012  38.4387776  59.2219125   2.1649691
  38.2615853  56.2697985   5.5491292  38.5222670  57.1843318   5.4400452
  39.0833025  55.8022428   5.6987904  39.7340778  57.6835742  12.7190116
  40.4063832  57.4753104  12.0702765  38.9070565  57.4857828  12.2795348
  53.9830040  64.4239793  12.2365450  54.1765930  65.3285603  12.4824725
  53.8830658  63.9647212  13.0704035  45.6366350  54.3097683  14.7355777
  44.9894266  55.0087633  14.6420253  46.4067366  54.7433827  15.1032025
  49.0445148  64.5746535  17.8106330  48.8930655  64.3457087  16.8936414
  49.0349828  65.5317137  17.8237675  45.8130485  62.1478448  12.7952597
  46.7422545  62.2989608  12.6221564  45.3921515  62.2362469  11.9401243
  44.6118817  66.1729113  10.5651134  44.4729902  65.8047897  11.4377072
  43.8233413  66.6876752  10.3935092  45.2066969  71.2738209   1.9076671
  45.3818724  70.8026252   2.7222293  44.5199757  71.9003975   2.1357932
  46.1624032  65.5510715   7.9539972  45.8273864  65.5111485   8.8497622
  45.6627977  64.8855431   7.4810382  40.1368276  60.9578345  13.4792553
  39.9988074  60.2258584  14.0804092  41.0473199  60.8687245  13.1976741
  49.0983223  62.8966750  -1.7722968  48.4812394  62.1713578  -1.8689916
  48.6299712  63.6576110  -2.1155894  42.7650576  60.6698305  12.9676233
  43.4750195  60.0291497  12.9262851  42.7219885  60.9211199  13.8902414
  50.7537355  67.6065658  15.8882812  50.6949901  66.9224878  15.2213395
  51.1556873  68.3484648  15.4363438  41.4779510  57.6563523  14.7871872
  40.9416867  57.2054261  15.4393469  40.8896219  57.7909431  14.0442337
  39.7728054  74.4227572   8.6816531  40.0124652  75.0546096   9.3595550
  38.9297250  74.0715612   8.9681890  50.7554762  65.5705242  14.1196792
  49.8681541  65.2331164  14.2423191  51.3253313  64.8388273  14.3565557
  32.4083909  61.9029334   7.4439843  33.0954949  61.5891064   6.8560858
  32.2532038  62.8070698   7.1707095  37.2118632  56.7919530  11.8724867
  37.1276820  56.1845200  11.1375277  36.3901338  57.2828549  11.8734363
  44.2855916  70.2306694  11.0858035  44.2126087  71.0361666  11.5977339
  43.8433309  70.4298660  10.2606056  44.0745695  69.4678464   4.5960856
  43.2913217  70.0100144   4.6899081  44.7738441  69.9852444   4.9955098
  47.3842345  55.2773094   7.2395062  47.8811045  54.5243056   6.9196132
  46.6129327  55.3137410   6.6738271  55.2372103  60.9813459   8.8813353
  55.2261979  61.8638175   8.5107286  54.3689482  60.6285010   8.6867890
  46.7454599  70.1293528  13.2416194  47.4582571  70.7640993  13.1692095
  46.2544628  70.2257394  12.4256195  48.4672126  64.0344781   4.8133485
  47.5328405  64.1546243   4.6438190  48.6448795  63.1317248   4.5493495
  43.9677314  57.4190477   6.9666746  43.5975102  56.8661517   7.6547652
  44.4636407  56.8148610   6.4141747  51.8544678  59.8762100   5.3483519
  52.3205130  60.7090092   5.2743822  52.3052178  59.4107082   6.0528778
  41.7966513  67.8787972  14.0621764  42.4975972  68.5124455  14.2151159
  41.3261628  68.2202703  13.3017404  49.9220909  66.2205922   2.3469671
  50.1980753  66.1062516   3.2563546  49.0525407  65.8223406   2.3081845
  49.8261340  52.2442687   9.3874421  48.9124420  52.4746914   9.5556628
  50.2554442  52.3281131  10.2388453  49.5967799  60.4332579  11.8874315
  48.9439249  60.6808487  11.2326768  49.9748179  59.6196717  11.5536792
  46.5574973  70.4692272   5.9902485  46.7397367  69.6513928   6.4530237
  47.3807959  70.6859965   5.5527375  46.8917138  69.3960458   3.2517534
  47.4204905  68.8852912   2.6387696  47.1545358  69.0802988   4.1163067
  45.6455372  61.1752390  18.3740352  44.9696009  61.0746520  19.0442727
  46.4683006  61.0191604  18.8376349  37.3934231  67.4124327  10.9952867
  37.9787668  66.6668015  11.1280771  37.1959069  67.7228284  11.8789531
  40.2472886  70.4475574   6.0115309  39.5783261  70.9321702   5.5279350
  40.1085756  70.6944795   6.9258688  31.9851886  59.9829927   9.7157310
  32.0235985  59.4493518  10.5094428  31.4792178  59.4565133   9.0968287
  44.3878155  72.4819318  12.6097968  44.9396463  72.6450939  13.3747053
  44.7284348  73.0723756  11.9377993  39.3642648  54.8294468  13.2119853
  39.4283974  55.6909298  12.7997250  39.3009768  54.2168469  12.4792211
  38.8394920  56.9017600  16.8592887  39.4666959  56.5194677  17.4730411
  37.9822839  56.6831802  17.2248579  49.2389029  67.3080575  18.4646622
  49.7828933  67.9210533  17.9701577  48.6575874  67.8660154  18.9813635
  35.6160463  58.7094029   2.7911242  35.9113904  57.8004708   2.7378295
  34.7148499  58.6881769   2.4692244  47.5246542  70.4301293   9.5961650
  47.3997681  69.6291033   9.0872595  48.1825633  70.9247487   9.1075620
  39.1454710  56.7850026   8.7738790  38.4241296  57.3985993   8.6346264
  39.9347966  57.3207791   8.6955436  49.5881450  68.2310313  11.2241200
  48.6411786  68.1115665  11.1519527  49.9364223  67.3432811  11.3067462
  41.9481024  54.1204452  15.0479442  42.4715426  54.3666749  15.8105751
  41.7293357  54.9524487  14.6282579  37.3448305  56.3908127   2.9150567
  37.0161011  55.5105506   2.7325673  37.6987675  56.3355796   3.8026956
  46.5927884  68.0263030   7.4245552  46.4452846  67.0979737   7.6053122
  47.4181377  68.0483120   6.9402628  40.4590128  56.6781097   3.2826044
  40.7986200  57.2067018   2.5604653  40.9062248  57.0161503   4.0584611
  50.1962005  68.8491588   8.5110425  51.1208553  68.6434450   8.3734876
  50.0277309  68.6007989   9.4199767  43.1533569  55.0618147  12.7329113
  42.8130389  54.2625960  13.1349792  42.4472575  55.3619858  12.1605946
  43.8050041  52.1467460  11.1856436  44.6276110  51.6727938  11.0635326
  44.0488104  52.9257944  11.6855122  42.4458275  55.1755718   1.4819337
  43.1666638  55.5536971   0.9783054  41.8223579  55.8944595   1.5854315
  46.5889398  55.8800867   2.4177670  46.8053012  56.7625505   2.1166498
  46.1083465  55.4887081   1.6883312  41.3288619  58.8386580   8.9948414
  41.1833200  59.1526883   9.8872696  40.8513823  59.4571481   8.4419313
  43.1885002  55.8289128   9.0429304  43.1746571  54.9330222   8.7061602
  43.9057430  55.8359792   9.6767590  45.0411133  56.2626469  11.0882431
  44.7828911  57.1843539  11.0866762  44.5096173  55.8656903  11.7782895
  49.9857322  69.3677256   3.8672517  50.1594199  68.8023678   3.1146369
  50.4786213  70.1678151   3.6852006  35.8034281  61.3791925  11.9336075
  35.2587750  62.1551733  12.0656350  36.6813631  61.7262729  11.7755197
  42.5921898  54.7103509   4.3116874  42.7137809  53.7820155   4.5107761
  42.3023941  54.7242195   3.3995189  45.4613089  52.3958419   7.4483594
  45.4834785  52.4597752   6.4935573  45.8781148  51.5562928   7.6424100
  55.8396713  62.1313679   5.4862816  56.2827859  61.3821004   5.0881940
  54.9623223  62.1223815   5.1036548  50.9732494  68.6844020   0.9669415
  51.6683399  69.3050713   1.1856729  51.3155644  67.8339371   1.2421793
  36.5900303  60.5061821  14.8266232  35.8482039  60.6544456  15.4130863
  36.2693048  60.7670087  13.9632982  52.8723917  66.1343726   2.4956746
  53.3975241  66.4730998   1.7706066  52.7846270  65.1990741   2.3119880
  44.5343966  70.0477799  14.6246622  44.8431092  69.8026946  15.4969322
  45.3319448  70.2524438  14.1365492  44.5564578  72.2015709   6.8551999
  44.1169568  71.7092088   7.5484855  45.3072695  71.6588677   6.6144074
  37.0356917  68.3927250   6.8576627  37.8614937  68.0931022   6.4775270
  36.6850969  67.6234872   7.3066416  42.0038450  67.7453718   8.9274300
  41.3818459  67.0824423   8.6276528  42.6743317  67.7714850   8.2447948
  35.2365522  66.3113576   7.8165560  34.3997430  65.8835751   7.6349562
  35.2089167  66.5046020   8.7536352  42.0762978  56.2235506  18.5206806
  42.1251133  57.0997629  18.1384576  42.6185492  55.6812899  17.9478450
  52.5617823  66.7676629  17.8007944  51.7713367  66.7500768  17.2612443
  52.3251178  67.3064923  18.5556980  52.6815698  63.6169096  15.1140672
  52.7313703  63.4519103  16.0556195  52.5729622  62.7496355  14.7238553
  41.5651957  66.2957641   2.4032761  41.7140077  66.9793106   1.7499434
  42.3718401  66.2762731   2.9182217  49.9719461  59.6000024  16.4299979
  50.8729324  59.4606489  16.1383977  50.0467435  59.7654479  17.3698156
  44.3062266  56.9766878  15.2753165  43.4365576  57.2700444  15.0035754
  44.5421746  57.5607323  15.9960429  54.1833895  66.0366037  15.3582694
  53.8918704  66.3996018  16.1946155  53.5706027  65.3233045  15.1796026
  55.3829578  63.6018917   7.8785264  56.2176469  64.0408721   8.0422824
  55.5188706  63.1257570   7.0593510  52.4321083  61.1598652  13.8262752
  52.9075205  61.3526298  13.0181603  51.5086649  61.2157838  13.5806135
  39.3204590  62.3222819   3.4093830  39.0750632  61.4185149   3.6074040
  39.4900505  62.3239969   2.4673308  47.0101300  53.1946495  12.7918586
  47.5283244  53.9307522  12.4665074  46.6556433  53.5010489  13.6265345
  38.5900238  58.0551177   0.9079991  37.8969483  58.1295532   0.2520027
  38.3451990  57.2911520   1.4301508  47.2613894  49.6146778   8.3119482
  47.5415648  48.9469967   8.9379909  48.0464501  49.8075874   7.7994146
  45.0647363  68.7905772  -0.1255492  44.4921330  69.4095959  -0.5785020
  45.6380156  69.3405133   0.4084430  51.1322752  58.0364412  12.0591057
  52.0840175  58.1362510  12.0803281  50.9626203  57.2442680  12.5689142
  49.1537132  55.1219995  12.2450458  48.5587064  55.4025008  11.5496947
  48.8686829  55.6113896  13.0167199  48.2844622  69.0742922   1.0053091
  49.2175296  69.0088484   1.2085966  48.1967835  69.9099189   0.5467623
  50.9132639  68.3908792  -2.0342962  50.8346271  68.0568656  -1.1407204
  51.7342306  68.8830560  -2.0351489  53.6110830  61.2570532  11.1733357
  53.5787150  60.3186532  11.3593041  54.2211454  61.3354568  10.4399182
  45.4494161  60.1266585  -2.7839439  46.3953266  59.9972793  -2.7151021
  45.0708406  59.3881246  -2.3070011  53.7605319  58.0481575  11.2191640
  53.2444367  57.2640032  11.0321569  54.6445267  57.7200292  11.3838160
  51.4216046  51.7922591   7.1787453  51.2240867  51.4837679   8.0630785
  52.0315751  52.5184229   7.3085383  59.4287380  62.3186538  10.3139394
  60.1590769  62.0571827  10.8747097  58.8194326  61.5815260  10.3541462
  57.5102677  60.4594401  10.9113845  56.7835841  60.3250366  10.3030336
  57.0949964  60.7671230  11.7170563  45.3332854  64.1784331  18.6761218
  46.2535863  64.3562930  18.8701264  45.2982437  63.2340376  18.5240917
  43.6337078  58.0516561  -2.8484554  42.7268534  57.7549674  -2.7721840
  43.9113059  57.7546379  -3.7150268  34.5515019  59.3722924   7.6014493
  34.2317803  58.5188233   7.3088867  34.0048447  59.5871502   8.3572460
  38.3294926  62.0885365  11.3183999  38.5480936  63.0202473  11.3372033
  38.7420700  61.7293340  12.1038803  45.2499144  52.5953451   3.3059687
  44.4399872  52.2500536   3.6814933  45.9383561  52.2860994   3.8947299
  47.1789692  51.6731497   4.9283984  47.7320731  52.0926951   5.5874007
  47.4159779  50.7467246   4.9706940  43.2022792  57.6618571  20.7086748
  43.1019518  58.6112928  20.6398839  42.9844334  57.3336810  19.8362818
  34.4203279  62.9925836   9.5707614  33.7266750  62.5779789   9.0577569
  35.1676270  63.0346372   8.9741033  50.5568499  53.7832023   4.4362648
  49.9767168  54.4416827   4.0540701  50.2904432  52.9609367   4.0250066
  49.0072066  53.1837080   6.6383969  49.5071844  53.2953615   5.8298287
  49.6507674  52.8798133   7.2784777  43.0654062  61.0915710  19.5251810
  42.5821143  61.8916070  19.7315699  43.1515001  61.1023655  18.5719254
  36.3340021  62.9244090   7.4473629  36.3110709  63.0231777   6.4955512
  36.6440658  63.7709240   7.7690795  38.9927399  64.9820245  11.5620243
  39.9470653  64.9504187  11.4950175  38.7939923  64.5210868  12.3770469
  39.5826781  63.5521361  14.1291041  40.4019670  64.0465439  14.1525878
  39.8563589  62.6353329  14.1008609  49.3393377  55.9432113   3.4918997
  48.4519232  56.2281764   3.2739191  49.7547366  55.7825876   2.6446273
  52.6907914  55.9678634   7.2073336  53.4668304  56.4575086   7.4797953
  51.9656048  56.3936688   7.6645205  55.1280472  56.6806253   8.2647276
  55.7224963  56.4401989   7.5540585  55.2007056  55.9613384   8.8920813
  37.3477628  70.5239864   8.5790441  37.2132096  69.7640265   8.0128439
  36.9309690  71.2480764   8.1119230  48.4836591  65.7076788  -2.4132983
  49.1872441  65.9126790  -1.7975328  47.7599240  66.2753550  -2.1483900
  49.3134401  61.4586649   3.7069287  49.2569603  61.9155200   2.8676919
  49.8662744  60.6977334   3.5292129  53.1239207  57.2476381   4.5319406
  52.8676141  56.8473016   5.3627614  52.4992075  57.9620175   4.4069545
  57.4351545  59.9872454   7.0390698  56.8751103  60.0565643   7.8122260
  56.8295048  59.8113439   6.3190194  40.5046754  71.4209181   8.7908884
  40.3879138  72.3654614   8.6887574  39.6839200  71.1182743   9.1794683
  50.3923288  66.1459317  -0.3634523  51.2268892  65.7140515  -0.5457049
  50.2307631  65.9741331   0.5642371  50.0469180  62.6491430   1.0021816
  49.9917984  62.4835702   0.0610260  49.4215236  63.3567463   1.1584006
  34.8361695  57.8859495  14.8283238  35.4820559  57.3758449  15.3170463
  34.6278847  58.6228176  15.4026663  47.3615088  64.9540342  20.3275379
  48.2306247  65.1280994  19.9662014  46.8821839  65.7734759  20.2051108
  43.3565306  52.1499539   0.5807134  43.3443976  53.0941379   0.7375405
  44.2488728  51.9669685   0.2866596  41.5301268  72.0737443  12.0064812
  42.4328515  72.1061053  12.3231307  41.3038638  71.1437894  12.0211148
  43.2854870  70.8268430   8.6674891  42.3350501  70.8270291   8.5539263
  43.5887356  70.0801164   8.1510926  47.1717425  48.7442316   4.8353071
  46.4049821  48.1900803   4.9809753  47.5828130  48.8164185   5.6967223
  39.1759186  55.0327112  18.9258252  40.0390648  54.6763916  19.1361577
  38.6024597  54.6941006  19.6133657  59.0207563  76.6628968   9.7320653
  59.6585973  76.5435715   9.0283993  58.9028406  77.6109812   9.7908606
  55.8297270  76.6156396   9.6682178  55.4915781  76.4997461   8.7802713
  56.6987038  76.2147561   9.6483184  51.6884085  78.4691873   5.6579069
  51.1248950  78.3781809   4.8895357  51.5736480  77.6491777   6.1381562
  56.3117053  77.7691248  15.6268384  56.3005693  77.3744046  14.7548887
  56.4737692  77.0357320  16.2202155  49.2348517  79.9643064   8.4963289
  50.0269809  79.6233889   8.0809589  49.4745167  80.0738039   9.4165443
  57.2683644  82.1362840   0.9693534  56.6171624  82.7216921   0.5827548
  58.0628007  82.6669035   1.0288571  51.1939271  79.2251977   1.3680668
  51.9670147  78.6780964   1.2293544  51.5464670  80.0896227   1.5795130
  53.0324314  80.5528360  14.5747568  52.7414180  81.4573990  14.4594234
  53.6681298  80.5944887  15.2891637  53.9580521  77.9305208  11.1648927
  54.5544093  77.7061231  10.4505890  54.0155492  77.1889954  11.7674375
  53.5305549  75.3844643  -1.0000882  53.7831070  74.8626165  -1.7617419
  52.5930108  75.2210789  -0.8974198  58.5748832  74.3880422   6.8073861
  59.3611921  73.9699845   6.4564278  58.8387536  75.2926514   6.9755510
  58.7458909  79.8253272   1.5062518  58.1104742  79.8987899   2.2183423
  58.4156316  80.4146871   0.8281597  63.9757259  74.3255655   7.7106840
  64.7082431  73.7554872   7.9444669  63.2196615  73.9377255   8.1513345
  53.2501838  77.2872749   1.2023493  53.1338096  76.6117653   1.8704577
  53.3604098  76.8005123   0.3855646  55.5933379  76.7482897   4.9070182
  55.2291586  76.2213518   5.6183104  56.4500495  76.3581366   4.7336668
  61.4982679  68.0377229  12.1701449  61.1666004  68.9072640  11.9462663
  60.9028293  67.7213513  12.8495479  55.2338866  71.7772796  -0.0968469
  55.4013268  72.6453033   0.2702002  55.0436035  71.9400078  -1.0207180
  57.9914199  80.2389775  11.5697361  57.6914922  81.1414814  11.4613168
  57.6465258  79.9721958  12.4218514  51.4426680  76.6903572   7.6034066
  50.5177177  76.5579786   7.8111757  51.6911094  77.4697791   8.1004008
  61.3911343  72.7572315   9.2494799  60.4828220  72.6887724   8.9553560
  61.3398938  73.2344260  10.0776624  55.2128087  74.2330454   0.8878198
  55.0927712  74.6787504   1.7263678  54.5180675  74.5815771   0.3291736
  48.8035491  76.3336846   8.4377855  48.9327873  76.5871324   9.3517266
  48.1232943  76.9264554   8.1182510  52.9734979  87.0034095   4.5368329
  52.8959008  87.9541921   4.6156810  52.3696622  86.6579968   5.1943255
  55.4652208  74.1761961  17.1929696  54.6885542  74.7355881  17.1832560
  56.1042771  74.6618744  17.7144566  63.2572989  70.9588754  11.0272672
  62.6147369  71.2521287  10.3812467  62.7527918  70.8441674  11.8325869
  60.9113153  74.7051927   1.7158532  61.8231009  74.9379314   1.5406229
  60.4022800  75.2888971   1.1533610  53.7198581  76.9847414  16.7547663
  54.4613265  77.5232458  16.4782486  53.0135566  77.6113703  16.9119215
  59.1953920  79.1276555  15.3519824  59.6037276  78.6858965  14.6074457
  58.4731182  78.5529182  15.6054017  55.5484990  74.0649162  12.7253381
  56.3946186  74.4888575  12.8688030  55.4883628  73.4082786  13.4191944
  59.5182735  79.6877745   9.1072113  58.8891597  79.8523459   8.4048181
  59.1308397  80.1019355   9.8783077  63.3971967  80.6232183   6.4616477
  62.7123005  81.0031085   5.9113510  63.4815816  81.2327510   7.1948425
  58.6984436  71.7253530  14.3834555  58.4545368  72.4795590  13.8468831
  58.9744366  72.1038877  15.2181802  60.6522899  78.2692142  13.0611821
  60.8639794  78.9123902  12.3846202  60.6052647  77.4354459  12.5933751
  58.2549127  70.8809963   9.9648393  57.3933607  71.1791216  10.2565130
  58.2811562  71.0980362   9.0329425  55.0710697  79.4252153   6.3722198
  55.5349042  79.7039856   5.5826821  54.8067495  78.5235598   6.1895289
  51.9634778  78.9723635   9.3101962  52.5336135  79.4010903   8.6719446
  52.5542890  78.6906220  10.0086147  54.0079583  75.5475306   3.1811763
  54.7103626  75.9996349   3.6485690  53.6760211  74.9059125   3.8091657
  52.4559944  74.1387062  17.5562973  51.8258605  74.8203343  17.7898370
  52.3496032  74.0270144  16.6116111  47.7504917  73.8058858   8.4828897
  46.9603971  74.0616387   8.0069008  48.2416164  74.6207196   8.5880938
  61.7668726  81.1464098  11.2334178  62.5886170  80.7444285  10.9516859
  61.7631129  81.0432332  12.1850294  49.7019662  74.1703438   5.4412374
  48.9050826  74.2822132   5.9595869  49.4745254  74.5090090   4.5753264
  55.5325330  80.6948141  13.3894888  55.5969762  81.1568548  14.2253060
  54.8236254  80.0645506  13.5177198  46.0342620  74.0589349  10.9143888
  46.2850658  74.9436359  11.1801464  46.5702168  73.8793950  10.1418980
  69.8574720  77.4902846   7.5819149  69.1038428  76.9210244   7.4263154
  69.9922261  77.4565511   8.5289784  55.2473348  82.3616248   3.2573869
  55.1119022  83.2067784   3.6858716  55.7883160  82.5635526   2.4939802
  51.7340687  68.4407828  19.9188224  51.3407633  67.8874027  20.5935868
  52.5506828  68.7518407  20.3094741  48.7002745  79.8791686   3.8301794
  49.2127266  80.6734937   3.9807358  49.3525458  79.1817977   3.7635395
  50.5097630  82.9957443   5.9124547  50.6864258  83.9175407   5.7245531
  51.3054463  82.6815862   6.3418927  54.6508648  69.8565707  17.5108480
  55.3918362  70.4572861  17.4312943  54.8826571  69.1143345  16.9526523
  49.7949986  75.0422075  15.7886710  49.6803501  74.1407332  16.0893809
  48.9394504  75.2885771  15.4371527  56.8741824  82.9839815  17.3874211
  56.4305678  82.1976194  17.0695115  57.5359038  83.1718965  16.7218102
  51.6328945  84.5135617  11.9134889  52.1836370  84.3852680  11.1411883
  50.7940421  84.8130506  11.5629782  58.9723062  83.2642615  15.4155612
  58.9541537  84.0851496  14.9235881  59.8942982  83.1396690  15.6405753
  55.4296116  80.7786744  16.2579120  55.9624453  80.0175033  16.0278428
  54.9010197  80.4860396  17.0003275  58.5965811  65.8846810  11.7872762
  58.2530081  66.7748452  11.7111873  58.9644774  65.6948468  10.9242347
  46.6651662  78.2080341   4.6061364  47.5026884  78.6177349   4.3895072
  46.8429929  77.2679783   4.5761558  58.5616094  75.8755421   0.2945197
  58.0462717  76.6460026   0.5333585  58.2893402  75.2020558   0.9178259
  56.1463205  70.7205122   5.3530436  55.2904801  70.3311973   5.1736074
  56.5590157  70.7997083   4.4930221  57.6762352  68.2551465   9.7521995
  57.1727147  68.2181601   8.9389801  57.9692958  69.1644208   9.8118652
  53.9205237  68.3390195   8.7588177  54.7858234  68.1433004   8.3994067
  53.9882746  68.1100547   9.6857534  63.5350368  78.6287776   2.2298371
  62.7579811  78.2898936   1.7853533  64.2141849  78.6340399   1.5553336
  58.3502397  73.7482514   2.1204978  58.0452533  74.0628663   2.9715122
  59.3032839  73.8263933   2.1632311  56.7948829  79.9072737   3.7697932
  56.2670190  79.1725496   3.4571170  56.2936332  80.6847413   3.5237901
  61.7741675  78.1021757   8.8864979  61.1165349  78.7921019   8.9745107
  62.5782074  78.4918189   9.2298965  51.5267556  70.5692403   6.1304544
  52.1011308  70.3467585   5.3977737  52.1138539  70.6381098   6.8833145
  60.5847134  76.4566130   6.9368920  61.0979015  77.0896122   7.4390630
  61.2348358  75.8567326   6.5712280  51.8537144  72.5996864   0.1500429
  51.0174456  72.9371551   0.4709704  51.7141913  72.4645844  -0.7872434
  53.8290224  67.4433652   4.8579613  53.1754637  67.1282669   4.2336228
  53.7870698  66.8209392   5.5839436  54.9401429  77.7252947  -3.2267095
  54.0328491  77.4942201  -3.0275946  55.4372461  76.9290566  -3.0393113
  57.0627965  73.9315586   9.1827261  56.1450526  74.1530533   9.0248949
  57.4788108  74.0061896   8.3238968  57.8463012  75.3307001   4.3129941
  58.5934831  75.8428398   4.0037063  58.1154602  75.0091054   5.1734335
  56.1189662  77.8265542   1.2956896  55.2100882  77.5424575   1.3929365
  56.1484746  78.2464621   0.4360202  61.3508930  81.4372131   5.0648063
  60.8971257  80.5963041   5.1213254  60.7202897  82.0733530   5.4022843
  60.2941849  72.3664118   6.2948731  59.5564606  71.8541504   6.6258973
  60.5468623  71.9264499   5.4832007  59.7941869  83.2748628   5.9997881
  60.0864844  83.8353685   5.2810247  60.3040490  83.5677189   6.7551040
  60.3953477  65.1440370   6.8890500  60.7012354  64.2837733   6.6016415
  61.1206082  65.7357990   6.6889494  46.6877833  75.5471056   5.2772098
  46.4902233  74.9540417   4.5523164  46.1324497  75.2423266   5.9948037
  54.6674557  75.4394163   7.3966691  54.7223166  74.4867999   7.3209167
  53.8565759  75.5953602   7.8807989  55.8165750  79.3674286  -1.3655026
  55.3785180  78.6510145  -1.8249389  56.5576191  79.5950400  -1.9269934
  52.6066916  74.0571222   5.1557070  51.7934782  74.3565393   5.5622262
  53.1025911  73.6626911   5.8731552  54.7575494  84.0528979   7.0891334
  54.7151673  84.2789826   6.1599866  55.6738193  83.8192354   7.2377136
  58.2041128  74.5213047  13.9871964  58.5590516  74.7484520  14.8466429
  58.8513259  74.8531424  13.3649219  63.9338865  77.6431483   4.6921293
  63.7956764  77.8333079   3.7642482  63.5775084  78.4050865   5.1489344
  52.0980991  71.6289578  10.7718305  52.7380371  71.4878337  10.0741268
  51.2658522  71.3424091  10.3956907  63.9608245  79.7108010   9.7032564
  64.3944751  79.6183299  10.5515618  64.6739825  79.6865510   9.0652580
  52.8741295  80.9292008   6.8853297  53.6681894  80.4342328   6.6835872
  52.1632987  80.4009871   6.5221003  57.6936140  83.3110104  11.2365665
  57.7473162  83.8801040  12.0043381  56.8250921  83.4811989  10.8719702
  49.1824059  75.0735090   2.9613050  48.2521647  75.0119545   3.1783012
  49.2781531  74.5511043   2.1649691  49.1009608  71.5989903   5.5491292
  49.3616425  72.5135236   5.4400452  49.9226780  71.1314345   5.6987904
  50.5734533  73.0127660  12.7190116  51.2457586  72.8045022  12.0702765
  49.7464319  72.8149746  12.2795348  64.8223794  79.7531710  12.2365450
  65.0159684  80.6577521  12.4824725  64.7224412  79.2939129  13.0704035
  56.4760105  69.6389601  14.7355777  55.8288020  70.3379551  14.6420253
  57.2461120  70.0725745  15.1032025  59.8838903  79.9038453  17.8106330
  59.7324409  79.6749005  16.8936414  59.8743582  80.8609055  17.8237675
  56.6524239  77.4770366  12.7952597  57.5816299  77.6281525  12.6221564
  56.2315269  77.5654387  11.9401243  55.4512571  81.5021030  10.5651134
  55.3123657  81.1339815  11.4377072  54.6627167  82.0168670  10.3935092
  56.0460723  86.6030127   1.9076671  56.2212479  86.1318170   2.7222293
  55.3593511  87.2295893   2.1357932  57.0017786  80.8802633   7.9539972
  56.6667619  80.8403403   8.8497622  56.5021732  80.2147349   7.4810382
  50.9762030  76.2870263  13.4792553  50.8381828  75.5550502  14.0804092
  51.8866954  76.1979163  13.1976741  59.9376978  78.2258667  -1.7722968
  59.3206149  77.5005495  -1.8689916  59.4693466  78.9868028  -2.1155894
  53.6044331  75.9990222  12.9676233  54.3143949  75.3583414  12.9262851
  53.5613639  76.2503117  13.8902414  61.5931110  82.9357576  15.8882812
  61.5343656  82.2516796  15.2213395  61.9950628  83.6776566  15.4363438
  52.3173265  72.9855440  14.7871872  51.7810622  72.5346179  15.4393469
  51.7289973  73.1201349  14.0442337  50.6121808  89.7519489   8.6816531
  50.8518407  90.3838014   9.3595550  49.7691005  89.4007530   8.9681890
  51.7275524  72.4444092  -2.6501664  50.8504990  72.3232892  -3.0139417
  52.2033277  71.6530170  -2.9022775  61.5948517  80.8997160  14.1196792
  60.7075296  80.5623081  14.2423191  62.1647068  80.1680191  14.3565557
  43.2477664  77.2321251   7.4439843  43.9348704  76.9182981   6.8560858
  43.0925793  78.1362616   7.1707095  48.0512386  72.1211448  11.8724867
  47.9670575  71.5137117  11.1375277  47.2295092  72.6120466  11.8734363
  55.1249670  85.5598612  11.0858035  55.0519842  86.3653583  11.5977339
  54.6827063  85.7590578  10.2606056  54.9139450  84.7970382   4.5960856
  54.1306972  85.3392062   4.6899081  55.6132195  85.3144362   4.9955098
  58.2236100  70.6065011   7.2395062  58.7204800  69.8534974   6.9196132
  57.4523081  70.6429328   6.6738271  66.0765857  76.3105377   8.8813353
  66.0655734  77.1930092   8.5107286  65.2083237  75.9576928   8.6867890
  57.5848354  85.4585446  13.2416194  58.2976326  86.0932911  13.1692095
  57.0938382  85.5549312  12.4256195  59.3065881  79.3636699   4.8133485
  58.3722159  79.4838161   4.6438190  59.4842549  78.4609165   4.5493495
  54.8071069  72.7482394   6.9666746  54.4368856  72.1953435   7.6547652
  55.3030161  72.1440528   6.4141747  62.6938432  75.2054018   5.3483519
  63.1598884  76.0382010   5.2743822  63.1445933  74.7398999   6.0528778
  52.6360267  83.2079889  14.0621764  53.3369727  83.8416372  14.2151159
  52.1655382  83.5494621  13.3017404  60.7614663  81.5497839   2.3469671
  61.0374507  81.4354434   3.2563546  59.8919162  81.1515324   2.3081845
  60.6655095  67.5734605   9.3874421  59.7518175  67.8038832   9.5556628
  61.0948196  67.6573049  10.2388453  60.4361553  75.7624497  11.8874315
  59.7833003  76.0100404  11.2326768  60.8141933  74.9488635  11.5536792
  57.3968727  85.7984190   5.9902485  57.5791122  84.9805846   6.4530237
  58.2201713  86.0151882   5.5527375  57.7310893  84.7252375   3.2517534
  58.2598659  84.2144830   2.6387696  57.9939112  84.4094905   4.1163067
  56.4849126  76.5044308  18.3740352  55.8089763  76.4038437  19.0442727
  57.3076760  76.3483522  18.8376349  48.2327985  82.7416244  10.9952867
  48.8181422  81.9959932  11.1280771  48.0352824  83.0520201  11.8789531
  51.0866641  85.7767492   6.0115309  50.4177016  86.2613619   5.5279350
  50.9479510  86.0236712   6.9258688  42.8245640  75.3121845   9.7157310
  42.8629740  74.7785435  10.5094428  42.3185933  74.7857050   9.0968287
  55.2271909  87.8111235  12.6097968  55.7790217  87.9742857  13.3747053
  55.5678103  88.4015673  11.9377993  50.2036402  70.1586385  13.2119853
  50.2677729  71.0201216  12.7997250  50.1403523  69.5460387  12.4792211
  49.6788675  72.2309518  16.8592887  50.3060714  71.8486595  17.4730411
  48.8216594  72.0123720  17.2248579  60.0782783  82.6372493  18.4646622
  60.6222687  83.2502451  17.9701577  59.4969628  83.1952071  18.9813635
  46.4554218  74.0385947   2.7911242  46.7507659  73.1296625   2.7378295
  45.5542253  74.0173686   2.4692244  58.3640296  85.7593211   9.5961650
  58.2391436  84.9582951   9.0872595  59.0219388  86.2539404   9.1075620
  49.9848465  72.1141943   8.7738790  49.2635050  72.7277911   8.6346264
  50.7741720  72.6499708   8.6955436  60.4275205  83.5602231  11.2241200
  59.4805540  83.4407582  11.1519527  60.7757978  82.6724729  11.3067462
  52.7874778  69.4496370  15.0479442  53.3109180  69.6958666  15.8105751
  52.5687111  70.2816405  14.6282579  48.1842059  71.7200044   2.9150567
  47.8554765  70.8397423   2.7325673  48.5381430  71.6647713   3.8026956
  57.4321638  83.3554947   7.4245552  57.2846601  82.4271655   7.6053122
  58.2575132  83.3775038   6.9402628  51.2983882  72.0073014   3.2826044
  51.6379955  72.5358936   2.5604653  51.7456003  72.3453420   4.0584611
  61.0355760  84.1783506   8.5110425  61.9602307  83.9726367   8.3734876
  60.8671063  83.9299907   9.4199767  53.9927323  70.3910065  12.7329113
  53.6524144  69.5917878  13.1349792  53.2866329  70.6911776  12.1605946
  54.6443795  67.4759377  11.1856436  55.4669864  67.0019856  11.0635326
  54.8881859  68.2549861  11.6855122  53.2852030  70.5047636   1.4819337
  54.0060392  70.8828889   0.9783054  52.6617334  71.2236513   1.5854315
  57.4283152  71.2092785   2.4177670  57.6446767  72.0917423   2.1166498
  56.9477220  70.8178998   1.6883312  52.1682374  74.1678498   8.9948414
  52.0226955  74.4818801   9.8872696  51.6907577  74.7863398   8.4419313
  54.0278757  71.1581046   9.0429304  54.0140325  70.2622139   8.7061602
  54.7451185  71.1651710   9.6767590  55.8804887  71.5918386  11.0882431
  55.6222665  72.5135457  11.0866762  55.3489928  71.1948821  11.7782895
  60.8251076  84.6969173   3.8672517  60.9987954  84.1315596   3.1146369
  61.3179967  85.4970068   3.6852006  46.6428036  76.7083842  11.9336075
  46.0981504  77.4843650  12.0656350  47.5207386  77.0554647  11.7755197
  53.4315653  70.0395426   4.3116874  53.5531564  69.1112073   4.5107761
  53.1417695  70.0534112   3.3995189  56.3006843  67.7250337   7.4483594
  56.3228540  67.7889670   6.4935573  56.7174902  66.8854845   7.6424100
  66.6790467  77.4605596   5.4862816  67.1221613  76.7112922   5.0881940
  65.8016978  77.4515733   5.1036548  61.8126249  84.0135938   0.9669415
  62.5077153  84.6342630   1.1856729  62.1549399  83.1631289   1.2421793
  47.4294058  75.8353739  14.8266232  46.6875794  75.9836374  15.4130863
  47.1086802  76.0962004  13.9632982  63.7117672  81.4635643   2.4956746
  64.2368996  81.8022916   1.7706066  63.6240024  80.5282659   2.3119880
  55.3737720  85.3769717  14.6246622  55.6824847  85.1318864  15.4969322
  56.1713202  85.5816355  14.1365492  55.3958333  87.5307627   6.8551999
  54.9563323  87.0384005   7.5484855  56.1466449  86.9880594   6.6144074
  47.8750672  83.7219167   6.8576627  48.7008691  83.4222939   6.4775270
  47.5244723  82.9526790   7.3066416  52.8432205  83.0745636   8.9274300
  52.2212214  82.4116341   8.6276528  53.5137072  83.1006768   8.2447948
  46.0759277  81.6405494   7.8165560  45.2391185  81.2127668   7.6349562
  46.0482922  81.8337937   8.7536352  52.9156732  71.5527424  18.5206806
  52.9644888  72.4289547  18.1384576  53.4579246  71.0104817  17.9478450
  63.4011578  82.0968547  17.8007944  62.6107122  82.0792686  17.2612443
  63.1644932  82.6356841  18.5556980  63.5209453  78.9461013  15.1140672
  63.5707458  78.7811021  16.0556195  63.4123376  78.0788272  14.7238553
  52.4045712  81.6249559   2.4032761  52.5533832  82.3085023   1.7499434
  53.2112155  81.6054649   2.9182217  60.8113215  74.9291941  16.4299979
  61.7123078  74.7898406  16.1383977  60.8861190  75.0946396  17.3698156
  55.1456021  72.3058796  15.2753165  54.2759330  72.5992362  15.0035754
  55.3815501  72.8899241  15.9960429  65.0227650  81.3657955  15.3582694
  64.7312458  81.7287935  16.1946155  64.4099781  80.6524963  15.1796026
  66.2223332  78.9310835   7.8785264  67.0570223  79.3700639   8.0422824
  66.3582461  78.4549488   7.0593510  63.2714838  76.4890569  13.8262752
  63.7468960  76.6818216  13.0181603  62.3480403  76.5449755  13.5806135
  50.1598345  77.6514737   3.4093830  49.9144386  76.7477067   3.6074040
  50.3294259  77.6531887   2.4673308  57.8495054  68.5238413  12.7918586
  58.3676998  69.2599440  12.4665074  57.4950187  68.8302406  13.6265345
  49.4293992  73.3843094   0.9079991  48.7363237  73.4587449   0.2520027
  49.1845744  72.6203438   1.4301508  58.1007649  64.9438696   8.3119482
  58.3809402  64.2761885   8.9379909  58.8858256  65.1367791   7.7994146
  55.9041117  84.1197689  -0.1255492  55.3315084  84.7387877  -0.5785020
  56.4773911  84.6697051   0.4084430  61.9716507  73.3656330  12.0591057
  62.9233930  73.4654427  12.0803281  61.8019957  72.5734598  12.5689142
  59.9930886  70.4511913  12.2450458  59.3980819  70.7316926  11.5496947
  59.7080583  70.9405814  13.0167199  59.1238377  84.4034840   1.0053091
  60.0569050  84.3380401   1.2085966  59.0361590  85.2391106   0.5467623
  64.4504585  76.5862449  11.1733357  64.4180905  75.6478450  11.3593041
  65.0605208  76.6646486  10.4399182  56.2887916  75.4558502  -2.7839439
  57.2347020  75.3264710  -2.7151021  55.9102161  74.7173164  -2.3070011
  64.5999073  73.3773493  11.2191640  64.0838122  72.5931949  11.0321569
  65.4839022  73.0492209  11.3838160  62.2609800  67.1214508   7.1787453
  62.0634621  66.8129596   8.0630785  62.8709506  67.8476147   7.3085383
  70.2681135  77.6478456  10.3139394  70.9984523  77.3863744  10.8747097
  69.6588080  76.9107178  10.3541462  68.3496432  75.7886319  10.9113845
  67.6229595  75.6542284  10.3030336  67.9343719  76.0963147  11.7170563
  56.1726608  79.5076248  18.6761218  57.0929618  79.6854847  18.8701264
  56.1376191  78.5632294  18.5240917  54.4730833  73.3808479  -2.8484554
  53.5662288  73.0841591  -2.7721840  54.7506814  73.0838297  -3.7150268
  45.3908773  74.7014842   7.6014493  45.0711557  73.8480150   7.3088867
  44.8442201  74.9163420   8.3572460  49.1688681  77.4177283  11.3183999
  49.3874690  78.3494391  11.3372033  49.5814455  77.0585257  12.1038803
  56.0892898  67.9245368   3.3059687  55.2793627  67.5792453   3.6814933
  56.7777315  67.6152912   3.8947299  58.0183447  67.0023415   4.9283984
  58.5714485  67.4218869   5.5874007  58.2553533  66.0759163   4.9706940
  54.0416546  72.9910489  20.7086748  53.9413273  73.9404846  20.6398839
  53.8238088  72.6628728  19.8362818  53.2429617  70.2395414  -2.7072575
  54.1048781  70.5650312  -2.4476757  53.4279962  69.4526910  -3.2199509
  45.2597033  78.3217754   9.5707614  44.5660505  77.9071706   9.0577569
  46.0070024  78.3638290   8.9741033  61.3962254  69.1123940   4.4362648
  60.8160923  69.7708744   4.0540701  61.1298187  68.2901285   4.0250066
  59.8465820  68.5128998   6.6383969  60.3465599  68.6245533   5.8298287
  60.4901428  68.2090051   7.2784777  53.9047816  76.4207628  19.5251810
  53.4214898  77.2207988  19.7315699  53.9908755  76.4315572  18.5719254
  47.1733776  78.2536007   7.4473629  47.1504464  78.3523695   6.4955512
  47.4834412  79.1001158   7.7690795  49.8321154  80.3112162  11.5620243
  50.7864407  80.2796105  11.4950175  49.6333677  79.8502786  12.3770469
  50.4220536  78.8813278  14.1291041  51.2413425  79.3757357  14.1525878
  50.6957343  77.9645247  14.1008609  60.1787132  71.2724031   3.4918997
  59.2912987  71.5573681   3.2739191  60.5941121  71.1117794   2.6446273
  63.5301668  71.2970552   7.2073336  64.3062058  71.7867004   7.4797953
  62.8049802  71.7228606   7.6645205  65.9674227  72.0098171   8.2647276
  66.5618717  71.7693907   7.5540585  66.0400810  71.2905301   8.8920813
  48.1871382  85.8531782   8.5790441  48.0525850  85.0932183   8.0128439
  47.7703445  86.5772682   8.1119230  59.3230345  81.0368705  -2.4132983
  60.0266195  81.2418708  -1.7975328  58.5992994  81.6045467  -2.1483900
  60.1528156  76.7878567   3.7069287  60.0963357  77.2447118   2.8676919
  60.7056498  76.0269251   3.5292129  63.9632962  72.5768298   4.5319406
  63.7069896  72.1764934   5.3627614  63.3385830  73.2912092   4.4069545
  68.2745299  75.3164372   7.0390698  67.7144857  75.3857561   7.8122260
  67.6688803  75.1405356   6.3190194  51.3440508  86.7501099   8.7908884
  51.2272892  87.6946531   8.6887574  50.5232954  86.4474660   9.1794683
  61.2317043  81.4751235  -0.3634523  62.0662647  81.0432433  -0.5457049
  61.0701386  81.3033248   0.5642371  60.8862935  77.9783348   1.0021816
  60.8311739  77.8127619   0.0610260  60.2608990  78.6859381   1.1584006
  45.6755450  73.2151412  14.8283238  46.3214314  72.7050366  15.3170463
  45.4672601  73.9520094  15.4026663  58.2008842  80.2832260  20.3275379
  59.0700002  80.4572912  19.9662014  57.7215594  81.1026677  20.2051108
  54.1959060  67.4791457   0.5807134  54.1837730  68.4233297   0.7375405
  55.0882482  67.2961602   0.2866596  52.3695022  87.4029361  12.0064812
  53.2722269  87.4352971  12.3231307  52.1432392  86.4729812  12.0211148
  54.1248624  86.1560347   8.6674891  53.1744255  86.1562209   8.5539263
  54.4281110  85.4093082   8.1510926  58.0111180  64.0734234   4.8353071
  57.2443576  63.5192720   4.9809753  58.4221885  64.1456102   5.6967223
  50.0152941  70.3619029  18.9258252  50.8784402  70.0055834  19.1361577
  49.4418352  70.0232924  19.6133657  69.8601318  91.9920886   9.7320653
  70.4979728  91.8727633   9.0283993  69.7422161  92.9401730   9.7908606
  66.6691024  91.9448314   9.6682178  66.3309536  91.8289378   8.7802713
  67.5380792  91.5439479   9.6483184  67.1510807  93.0983165  15.6268384
  67.1399448  92.7035964  14.7548887  67.3131447  92.3649238  16.2202155
  60.0742272  95.2934982   8.4963289  60.8663564  94.9525806   8.0809589
  60.3138922  95.4029957   9.4165443  63.8718068  95.8820277  14.5747568
  63.5807934  96.7865908  14.4594234  64.5075053  95.9236805  15.2891637
  64.7974275  93.2597126  11.1648927  65.3937847  93.0353148  10.4505890
  64.8549247  92.5181871  11.7674375  69.4142586  89.7172340   6.8073861
  70.2005676  89.2991763   6.4564278  69.6781291  90.6218432   6.9755510
  72.3376434  83.3669147  12.1701449  72.0059759  84.2364558  11.9462663
  71.7422047  83.0505431  12.8495479  68.8307953  95.5681693  11.5697361
  68.5308676  96.4706732  11.4613168  68.4859013  95.3013876  12.4218514
  62.2820435  92.0195490   7.6034066  61.3570931  91.8871704   7.8111757
  62.5304848  92.7989709   8.1004008  72.2305097  88.0864233   9.2494799
  71.3221974  88.0179641   8.9553560  72.1792693  88.5636178  10.0776624
  59.6429246  91.6628763   8.4377855  59.7721627  91.9163242   9.3517266
  58.9626697  92.2556471   8.1182510  66.3045963  89.5053879  17.1929696
  65.5279297  90.0647799  17.1832560  66.9436526  89.9910662  17.7144566
  74.0966744  86.2880671  11.0272672  73.4541124  86.5813205  10.3812467
  73.5921672  86.1733592  11.8325869  64.5592335  92.3139332  16.7547663
  65.3007020  92.8524376  16.4782486  63.8529321  92.9405621  16.9119215
  70.0347675  94.4568472  15.3519824  70.4431031  94.0150883  14.6074457
  69.3124936  93.8821100  15.6054017  66.3878745  89.3941079  12.7253381
  67.2339940  89.8180493  12.8688030  66.3277383  88.7374703  13.4191944
  69.5378190  87.0545448  14.3834555  69.2939122  87.8087508  13.8468831
  69.8138121  87.4330795  15.2181802  71.4916653  93.5984060  13.0611821
  71.7033548  94.2415820  12.3846202  71.4446401  92.7646376  12.5933751
  69.0942882  86.2101881   9.9648393  68.2327361  86.5083134  10.2565130
  69.1205317  86.4272279   9.0329425  62.8028532  94.3015553   9.3101962
  63.3729890  94.7302821   8.6719446  63.3936644  94.0198137  10.0086147
  63.2953699  89.4678980  17.5562973  62.6652360  90.1495261  17.7898370
  63.1889787  89.3562062  16.6116111  58.5898671  89.1350776   8.4828897
  57.7997725  89.3908305   8.0069008  59.0809919  89.9499114   8.5880938
  60.5413417  89.4995355   5.4412374  59.7444580  89.6114050   5.9595869
  60.3139009  89.8382008   4.5753264  66.3719084  96.0240059  13.3894888
  66.4363517  96.4860466  14.2253060  65.6630008  95.3937424  13.5177198
  56.8736374  89.3881267  10.9143888  57.1244413  90.2728277  11.1801464
  57.4095923  89.2085868  10.1418980  62.5734442  83.7699746  19.9188224
  62.1801387  83.2165945  20.5935868  63.3900582  84.0810324  20.3094741
  65.4902403  85.1857625  17.5108480  66.2312116  85.7864778  17.4312943
  65.7220326  84.4435263  16.9526523  60.6343741  90.3713992  15.7886710
  60.5197256  89.4699250  16.0893809  59.7788258  90.6177689  15.4371527
  67.7135578  98.3131733  17.3874211  67.2699433  97.5268111  17.0695115
  68.3752792  98.5010883  16.7218102  62.4722700  99.8427534  11.9134889
  63.0230125  99.7144598  11.1411883  61.6334176 100.1422423  11.5629782
  69.8116816  98.5934533  15.4155612  69.7935292  99.4143414  14.9235881
  70.7336737  98.4688608  15.6405753  66.2689871  96.1078662  16.2579120
  66.8018207  95.3466950  16.0278428  65.7403952  95.8152314  17.0003275
  69.4359566  81.2138728  11.7872762  69.0923835  82.1040370  11.7111873
  69.8038528  81.0240386  10.9242347  57.5045416  93.5372258   4.6061364
  58.3420638  93.9469267   4.3895072  57.6823684  92.5971701   4.5761558
  66.9856959  86.0497040   5.3530436  66.1298556  85.6603890   5.1736074
  67.3983911  86.1289001   4.4930221  68.5156106  83.5843383   9.7521995
  68.0120902  83.5473518   8.9389801  68.8086713  84.4936126   9.8118652
  64.7598992  83.6682113   8.7588177  65.6251989  83.4724922   8.3994067
  64.8276501  83.4392465   9.6857534  62.3661311  85.8984321   6.1304544
  62.9405063  85.6759502   5.3977737  62.9532293  85.9673015   6.8833145
  64.6683979  82.7725570   4.8579613  64.0148391  82.4574587   4.2336228
  64.6264453  82.1501310   5.5839436  67.9021719  89.2607503   9.1827261
  66.9844280  89.4822450   9.0248949  68.3181863  89.3353814   8.3238968
  71.2347231  80.4732287   6.8890500  71.5406108  79.6129651   6.6016415
  71.9599836  81.0649907   6.6889494  57.5271587  90.8762974   5.2772098
  57.3295987  90.2832334   4.5523164  56.9718251  90.5715184   5.9948037
  65.5068311  90.7686080   7.3966691  65.5616921  89.8159917   7.3209167
  64.6959513  90.9245519   7.8807989  63.4460671  89.3863140   5.1557070
  62.6328536  89.6857311   5.5622262  63.9419665  88.9918829   5.8731552
  69.0434883  89.8504964  13.9871964  69.3984270  90.0776438  14.8466429
  69.6907014  90.1823341  13.3649219  62.9374746  86.9581496  10.7718305
  63.5774125  86.8170255  10.0741268  62.1052276  86.6716009  10.3956907
  68.5329894  98.6402021  11.2365665  68.5866916  99.2092958  12.0043381
  67.6644675  98.8103907  10.8719702  59.9403362  86.9281821   5.5491292
  60.2010179  87.8427154   5.4400452  60.7620534  86.4606263   5.6987904
  61.4128287  88.3419578  12.7190116  62.0851341  88.1336940  12.0702765
  60.5858074  88.1441664  12.2795348  67.3153859  84.9681519  14.7355777
  66.6681775  85.6671468  14.6420253  68.0854875  85.4017663  15.1032025
  70.7232657  95.2330371  17.8106330  70.5718164  95.0040922  16.8936414
  70.7137337  96.1900972  17.8237675  67.4917994  92.8062284  12.7952597
  68.4210054  92.9573443  12.6221564  67.0709024  92.8946304  11.9401243
  66.2906326  96.8312948  10.5651134  66.1517411  96.4631732  11.4377072
  65.5020922  97.3460587  10.3935092  61.8155785  91.6162181  13.4792553
  61.6775583  90.8842419  14.0804092  62.7260708  91.5271081  13.1976741
  64.4438085  91.3282140  12.9676233  65.1537704  90.6875332  12.9262851
  64.4007394  91.5795035  13.8902414  72.4324864  98.2649493  15.8882812
  72.3737410  97.5808713  15.2213395  72.8344382  99.0068483  15.4363438
  63.1567019  88.3147358  14.7871872  62.6204376  87.8638096  15.4393469
  62.5683728  88.4493267  14.0442337  72.4342271  96.2289077  14.1196792
  71.5469050  95.8914999  14.2423191  73.0040822  95.4972108  14.3565557
  54.0871418  92.5613169   7.4439843  54.7742458  92.2474899   6.8560858
  53.9319547  93.4654534   7.1707095  58.8906141  87.4503366  11.8724867
  58.8064329  86.8429035  11.1375277  58.0688847  87.9412384  11.8734363
  69.0629854  85.9356929   7.2395062  69.5598554  85.1826891   6.9196132
  68.2916836  85.9721246   6.6738271  68.4242108 100.7877364  13.2416194
  69.1370080 101.4224828  13.1692095  67.9332137 100.8841230  12.4256195
  65.6464823  88.0774312   6.9666746  65.2762611  87.5245352   7.6547652
  66.1423916  87.4732446   6.4141747  63.4754022  98.5371807  14.0621764
  64.1763481  99.1708290  14.2151159  63.0049137  98.8786539  13.3017404
  71.5048849  82.9026523   9.3874421  70.5911929  83.1330749   9.5556628
  71.9341951  82.9864967  10.2388453  71.2755308  91.0916415  11.8874315
  70.6226758  91.3392322  11.2326768  71.6535688  90.2780553  11.5536792
  67.3242881  91.8336226  18.3740352  66.6483518  91.7330355  19.0442727
  68.1470515  91.6775439  18.8376349  59.0721740  98.0708162  10.9952867
  59.6575177  97.3251850  11.1280771  58.8746578  98.3812119  11.8789531
  53.6639395  90.6413762   9.7157310  53.7023494  90.1077353  10.5094428
  53.1579687  90.1148968   9.0968287  61.0430157  85.4878303  13.2119853
  61.1071483  86.3493134  12.7997250  60.9797277  84.8752305  12.4792211
  60.5182429  87.5601435  16.8592887  61.1454468  87.1778513  17.4730411
  59.6610348  87.3415637  17.2248579  70.9176538  97.9664411  18.4646622
  71.4616442  98.5794369  17.9701577  70.3363383  98.5243989  18.9813635
  57.2947972  89.3677865   2.7911242  57.5901413  88.4588543   2.7378295
  56.3936008  89.3465604   2.4692244  60.8242219  87.4433861   8.7738790
  60.1028805  88.0569829   8.6346264  61.6135475  87.9791626   8.6955436
  63.6268533  84.7788288  15.0479442  64.1502934  85.0250584  15.8105751
  63.4080866  85.6108322  14.6282579  59.0235814  87.0491962   2.9150567
  58.6948520  86.1689341   2.7325673  59.3775184  86.9939631   3.8026956
  62.1377637  87.3364932   3.2826044  62.4773709  87.8650853   2.5604653
  62.5849757  87.6745338   4.0584611  64.8321078  85.7201983  12.7329113
  64.4917898  84.9209796  13.1349792  64.1260084  86.0203694  12.1605946
  65.4837550  82.8051295  11.1856436  66.3063619  82.3311773  11.0635326
  65.7275613  83.5841779  11.6855122  63.0076128  89.4970416   8.9948414
  62.8620709  89.8110719   9.8872696  62.5301332  90.1155316   8.4419313
  64.8672511  86.4872964   9.0429304  64.8534080  85.5914057   8.7061602
  65.5844939  86.4943627   9.6767590  66.7198642  86.9210304  11.0882431
  66.4616420  87.8427375  11.0866762  66.1883682  86.5240738  11.7782895
  57.4821790  92.0375760  11.9336075  56.9375259  92.8135568  12.0656350
  58.3601140  92.3846565  11.7755197  64.2709407  85.3687344   4.3116874
  64.3925318  84.4403990   4.5107761  63.9811449  85.3826030   3.3995189
  67.1400597  83.0542254   7.4483594  67.1622294  83.1181588   6.4935573
  67.5568657  82.2146763   7.6424100  58.2687812  91.1645656  14.8266232
  57.5269548  91.3128292  15.4130863  57.9480557  91.4253922  13.9632982
  66.2131475 100.7061635  14.6246622  66.5218601 100.4610781  15.4969322
  67.0106957 100.9108273  14.1365492  56.9153031  96.9697412   7.8165560
  56.0784939  96.5419586   7.6349562  56.8876676  97.1629855   8.7536352
  63.7550487  86.8819341  18.5206806  63.8038642  87.7581464  18.1384576
  64.2973001  86.3396734  17.9478450  74.2405332  97.4260465  17.8007944
  73.4500876  97.4084603  17.2612443  74.0038687  97.9648758  18.5556980
  74.3603207  94.2752931  15.1140672  74.4101212  94.1102938  16.0556195
  74.2517131  93.4080190  14.7238553  71.6506970  90.2583859  16.4299979
  72.5516833  90.1190324  16.1383977  71.7254944  90.4238314  17.3698156
  65.9849775  87.6350714  15.2753165  65.1153085  87.9284280  15.0035754
  66.2209255  88.2191159  15.9960429  75.8621404  96.6949873  15.3582694
  75.5706213  97.0579853  16.1946155  75.2493535  95.9816881  15.1796026
  74.1108592  91.8182487  13.8262752  74.5862714  92.0110133  13.0181603
  73.1874158  91.8741673  13.5806135  68.6888809  83.8530331  12.7918586
  69.2070753  84.5891358  12.4665074  68.3343942  84.1594324  13.6265345
  68.9401403  80.2730613   8.3119482  69.2203157  79.6053802   8.9379909
  69.7252010  80.4659709   7.7994146  72.8110261  88.6948247  12.0591057
  73.7627684  88.7946345  12.0803281  72.6413712  87.9026516  12.5689142
  70.8324641  85.7803830  12.2450458  70.2374573  86.0608843  11.5496947
  70.5474338  86.2697731  13.0167199  75.2898339  91.9154367  11.1733357
  75.2574659  90.9770368  11.3593041  75.8998963  91.9938404  10.4399182
  75.4392828  88.7065410  11.2191640  74.9231876  87.9223867  11.0321569
  76.3232776  88.3784127  11.3838160  73.1003555  82.4506426   7.1787453
  72.9028376  82.1421514   8.0630785  73.7103260  83.1768065   7.3085383
  67.0120363  94.8368166  18.6761218  67.9323372  95.0146765  18.8701264
  66.9769946  93.8924211  18.5240917  56.2302528  90.0306760   7.6014493
  55.9105312  89.1772068   7.3088867  55.6835956  90.2455338   8.3572460
  60.0082435  92.7469201  11.3183999  60.2268445  93.6786309  11.3372033
  60.4208209  92.3877175  12.1038803  66.9286653  83.2537286   3.3059687
  66.1187381  82.9084371   3.6814933  67.6171070  82.9444830   3.8947299
  68.8577201  82.3315333   4.9283984  69.4108240  82.7510786   5.5874007
  69.0947288  81.4051081   4.9706940  64.8810300  88.3202406  20.7086748
  64.7807027  89.2696763  20.6398839  64.6631843  87.9920645  19.8362818
  56.0990788  93.6509671   9.5707614  55.4054259  93.2363624   9.0577569
  56.8463779  93.6930208   8.9741033  70.6859575  83.8420916   6.6383969
  71.1859353  83.9537450   5.8298287  71.3295183  83.5381969   7.2784777
  64.7441571  91.7499545  19.5251810  64.2608652  92.5499905  19.7315699
  64.8302510  91.7607490  18.5719254  58.0127530  93.5827925   7.4473629
  57.9898218  93.6815612   6.4955512  58.3228167  94.4293076   7.7690795
  60.6714908  95.6404080  11.5620243  61.6258162  95.6088022  11.4950175
  60.4727432  95.1794704  12.3770469  61.2614290  94.2105196  14.1291041
  62.0807179  94.7049275  14.1525878  61.5351098  93.2937164  14.1008609
  74.3695423  86.6262469   7.2073336  75.1455813  87.1158922   7.4797953
  73.6443557  87.0520524   7.6645205  56.5149204  88.5443330  14.8283238
  57.1608068  88.0342284  15.3170463  56.3066356  89.2812012  15.4026663
  69.0402597  95.6124177  20.3275379  69.9093756  95.7864830  19.9662014
  68.5609348  96.4318594  20.2051108  63.2088777 102.7321278  12.0064812
  64.1116024 102.7644889  12.3231307  62.9826147 101.8021729  12.0211148
  68.8504934  79.4026151   4.8353071  68.0837330  78.8484638   4.9809753
  69.2615639  79.4748020   5.6967223  60.8546695  85.6910947  18.9258252
  61.7178157  85.3347752  19.1361577  60.2812106  85.3524842  19.6133657
  73.4128196  99.0991664  19.9188224  73.0195142  98.5457862  20.5935868
  74.2294337  99.4102242  20.3094741  76.3296157 100.5149543  17.5108480
  77.0705871 101.1156696  17.4312943  76.5614080  99.7727181  16.9526523
  71.3576184 102.8893353  16.8592887  71.9848223 102.5070430  17.4730411
  70.5004103 102.6707555  17.2248579  74.5944241 102.2111259  18.5206806
  74.6432397 103.0873382  18.1384576  75.1366755 101.6688652  17.9478450
  75.7204055 103.6494324  20.7086748  75.6200782 104.5988681  20.6398839
  75.5025597 103.3212563  19.8362818  67.3542959 103.8735248  14.8283238
  68.0001822 103.3634202  15.3170463  67.1460110 104.6103929  15.4026663
  71.6940450 101.0202865  18.9258252  72.5571911 100.6639670  19.1361577
  71.1205861 100.6816759  19.6133657  46.0348071  44.6610020   4.1119517
  45.5911925  43.8746398   3.7940422  46.6965284  44.8489170   3.4463408
  48.1329309  44.9412820   2.1400919  48.1147784  45.7621701   1.6481188
  49.0549229  44.8166895   2.3651060  49.0445150  41.5808658   4.5351637
  48.8930656  41.3519210   3.6181721  49.0349829  42.5379259   4.5482982
  50.7537356  44.6127781   2.6128119  50.6949902  43.9287001   1.9458702
  51.1556875  45.3546771   2.1608745  49.2389030  44.3142698   5.1891929
  49.7828934  44.9272656   4.6946884  48.6575875  44.8722276   5.7058942
  52.5617825  43.7738752   4.5253250  51.7713368  43.7562891   3.9857750
  52.3251179  44.3127046   5.2802287  54.1833896  43.0428160   2.0828000
  53.8918705  43.4058140   2.9191461  53.5706028  42.3295168   1.9041332
  47.3615089  41.9602465   7.0520685  48.2306249  42.1343117   6.6907320
  46.8821840  42.7796881   6.9296415  59.0207565  53.6691091  -3.5434040
  59.6585975  53.5497838  -4.2470700  58.9028408  54.6171935  -3.4846088
  55.8297271  53.6218519  -3.6072515  55.4915782  53.5059583  -4.4951980
  56.6987039  53.2209684  -3.6271509  56.3117054  54.7753370   2.3513690
  56.3005695  54.3806169   1.4794194  56.4737693  54.0419443   2.9447462
  49.2348519  56.9705187  -4.7791404  50.0269810  56.6296011  -5.1945105
  49.4745169  57.0800162  -3.8589251  53.0324315  57.5590482   1.2992874
  52.7414181  58.4636113   1.1839541  53.6681299  57.6007010   2.0136944
  53.9580522  54.9367331  -2.1105766  54.5544094  54.7123353  -2.8248803
  54.0155493  54.1952076  -1.5080318  63.9757260  51.3317778  -5.5647853
  64.7082432  50.7616994  -5.3310024  63.2196616  50.9439378  -5.1241348
  61.4982681  45.0439352  -1.1053245  61.1666005  45.9134763  -1.3292030
  60.9028294  44.7275636  -0.4259214  57.9914200  57.2451898  -1.7057332
  57.6914923  58.1476937  -1.8141525  57.6465260  56.9784081  -0.8536179
  61.3911344  49.7634438  -4.0259895  60.4828221  49.6949846  -4.3201134
  61.3398940  50.2406383  -3.1978069  52.9734980  64.0096218  -8.7386364
  52.8959010  64.9604043  -8.6597884  52.3696623  63.6642091  -8.0811438
  55.4652210  51.1824084   3.9175002  54.6885544  51.7418004   3.9077867
  56.1042773  51.6680866   4.4389873  63.2572990  47.9650876  -2.2482021
  62.6147371  48.2583409  -2.8942226  62.7527919  47.8503797  -1.4428824
  53.7198582  53.9909537   3.4792969  54.4613266  54.5294581   3.2027793
  53.0135567  54.6175826   3.6364521  59.1953922  56.1338677   2.0765131
  59.6037278  55.6921088   1.3319763  58.4731183  55.5591305   2.3299324
  55.5484992  51.0711284  -0.5501312  56.3946187  51.4950698  -0.4066663
  55.4883629  50.4144908   0.1437251  59.5182736  56.6939868  -4.1682580
  58.8891599  56.8585582  -4.8706512  59.1308398  57.1081478  -3.3971616
  63.3971968  57.6294306  -6.8138216  62.7123006  58.0093207  -7.3641183
  63.4815817  58.2389632  -6.0806269  58.6984437  48.7315652   1.1079862
  58.4545369  49.4857713   0.5714137  58.9744368  49.1101000   1.9427109
  60.6522900  55.2754265  -0.2142873  60.8639795  55.9186025  -0.8908492
  60.6052648  54.4416581  -0.6820943  55.0710698  56.4314276  -6.9032495
  55.5349044  56.7101979  -7.6927873  54.8067496  55.5297721  -7.0859404
  51.9634779  55.9785758  -3.9652732  52.5336136  56.4073026  -4.6035247
  52.5542891  55.6968342  -3.2668546  52.4559946  51.1449185   4.2808279
  51.8258606  51.8265466   4.5143676  52.3496034  51.0332267   3.3361418
  61.7668728  58.1526220  -2.0420516  62.5886171  57.7506408  -2.3237834
  61.7631131  58.0494454  -1.0904400  55.5325331  57.7010264   0.1140195
  55.5969764  58.1630671   0.9498367  54.8236255  57.0707628   0.2422505
  69.8574721  54.4964969  -5.6935544  69.1038429  53.9272367  -5.8491540
  69.9922262  54.4627633  -4.7464909  51.7340688  45.4469951   6.6433531
  51.3407634  44.8936149   7.3181175  52.5506829  45.7580529   7.0340048
  50.5097631  60.0019565  -7.3630146  50.6864259  60.9237530  -7.5509163
  51.3054464  59.6877985  -6.9335767  54.6508649  46.8627830   4.2353787
  55.3918363  47.4634983   4.1558250  54.8826572  46.1205468   3.6771830
  49.7949987  52.0484197   2.5132017  49.6803503  51.1469454   2.8139116
  48.9394505  52.2947894   2.1616833  56.8741825  59.9901938   4.1119517
  56.4305679  59.2038316   3.7940422  57.5359039  60.1781088   3.4463408
  51.6328946  61.5197739  -1.3619804  52.1836371  61.3914803  -2.1342810
  50.7940422  61.8192628  -1.7124911  58.9723063  60.2704737   2.1400919
  58.9541539  61.0913619   1.6481188  59.8942983  60.1458813   2.3651060
  55.4296117  57.7848867   2.9824427  55.9624454  57.0237155   2.7523735
  54.9010199  57.4922519   3.7248582  61.7741676  55.1083880  -4.3889715
  61.1165351  55.7983141  -4.3009586  62.5782075  55.4980312  -4.0455728
  60.5847135  53.4628253  -6.3385773  61.0979017  54.0958244  -5.8364063
  61.2348359  52.8629448  -6.7042413  57.0627966  50.9377708  -4.0927432
  56.1450527  51.1592655  -4.2505744  57.4788109  51.0124019  -4.9515725
  61.3508931  58.4434254  -8.2106630  60.8971258  57.6025164  -8.1541440
  60.7202898  59.0795652  -7.8731850  59.7941870  60.2810751  -7.2756812
  60.0864845  60.8415808  -7.9944446  60.3040491  60.5739312  -6.5203653
  54.7575496  61.0591102  -6.1863359  54.7151674  61.2851948  -7.1154827
  55.6738194  60.8254476  -6.0377558  58.2041129  51.5275169   0.7117270
  58.5590517  51.7546643   1.5711736  58.8513261  51.8593546   0.0894526
  63.9338866  54.6493605  -8.5833401  63.7956765  54.8395201  -9.5112211
  63.5775085  55.4112988  -8.1265350  63.9608246  56.7170132  -3.5722129
  64.3944753  56.6245421  -2.7239075  64.6739827  56.6927633  -4.2102113
  52.8741296  57.9354131  -6.3901396  53.6681895  57.4404451  -6.5918821
  52.1632989  57.4071994  -6.7533691  57.6936141  60.3172226  -2.0389029
  57.7473163  60.8863163  -1.2711313  56.8250922  60.4874111  -2.4034991
  50.5734534  50.0189783  -0.5564577  51.2457588  49.8107145  -1.2051928
  49.7464321  49.8211869  -0.9959345  64.8223796  56.7593833  -1.0389244
  65.0159686  57.6639643  -0.7929969  64.7224414  56.3001252  -0.2050659
  56.4760106  46.6451724   1.4601084  55.8288021  47.3441673   1.3665560
  57.2461122  47.0787867   1.8277332  59.8838904  56.9100576   4.5351637
  59.7324411  56.6811127   3.6181721  59.8743584  57.8671177   4.5482982
  56.6524241  54.4832488  -0.4802097  57.5816301  54.6343648  -0.6533129
  56.2315271  54.5716509  -1.3353450  55.4512572  58.5083153  -2.7103559
  55.3123658  58.1401937  -1.8377621  54.6627169  59.0230792  -2.8819601
  56.0460724  63.6092249 -11.3678023  56.2212480  63.1380293 -10.5532400
  55.3593512  64.2358016 -11.1396762  57.0017788  57.8864756  -5.3214721
  56.6667620  57.8465526  -4.4257071  56.5021733  57.2209471  -5.7944311
  50.9762031  53.2932386   0.2037860  50.8381829  52.5612624   0.8049399
  51.8866955  53.2041286  -0.0777952  53.6044332  53.0052345  -0.3078460
  54.3143951  52.3645537  -0.3491842  53.5613640  53.2565240   0.6147720
  61.5931111  59.9419698   2.6128119  61.5343657  59.2578918   1.9458702
  61.9950629  60.6838688   2.1608745  52.3173266  49.9917563   1.5117179
  51.7810623  49.5408301   2.1638775  51.7289975  50.1263472   0.7687643
  50.6121810  66.7581612  -4.5938162  50.8518408  67.3900136  -3.9159144
  49.7691006  66.4069652  -4.3072803  61.5948518  57.9059282   0.8442098
  60.7075297  57.5685204   0.9668497  62.1647069  57.1742313   1.0810864
  55.1249671  62.5660735  -2.1896658  55.0519843  63.3715706  -1.6777354
  54.6827065  62.7652700  -3.0148637  54.9139451  61.8032505  -8.6793837
  54.1306973  62.3454185  -8.5855612  55.6132196  62.3206484  -8.2799596
  66.0765859  53.3167500  -4.3941340  66.0655735  54.1992215  -4.7647407
  65.2083238  52.9639050  -4.5886803  57.5848355  62.4647569  -0.0338500
  58.2976327  63.0995033  -0.1062598  57.0938384  62.5611435  -0.8498498
  59.3065882  56.3698821  -8.4621208  58.3722161  56.4900284  -8.6316504
  59.4842550  55.4671288  -8.7261198  62.6938433  52.2116141  -7.9271174
  63.1598885  53.0444132  -8.0010871  63.1445934  51.7461122  -7.2225915
  52.6360269  60.2142012   0.7867071  53.3369728  60.8478495   0.9396465
  52.1655384  60.5556744   0.0262710  60.4361555  52.7686619  -1.3880379
  59.7833005  53.0162527  -2.0427926  60.8141934  51.9550758  -1.7217901
  57.3968728  62.8046313  -7.2852208  57.5791123  61.9867969  -6.8224456
  58.2201714  63.0214005  -7.7227318  57.7310894  61.7314498 -10.0237160
  58.2598660  61.2206952 -10.6366998  57.9939113  61.4157028  -9.1591627
  56.4849128  53.5106431   5.0985659  55.8089765  53.4100560   5.7688034
  57.3076761  53.3545644   5.5621656  48.2327987  59.7478367  -2.2801826
  48.8181423  59.0022055  -2.1473922  48.0352825  60.0582324  -1.3965162
  51.0866642  62.7829614  -7.2639384  50.4177017  63.2675742  -7.7475344
  50.9479512  63.0298835  -6.3496005  55.2271910  64.8173358  -0.6656726
  55.7790218  64.9804979   0.0992360  55.5678104  65.4077796  -1.3376701
  49.6788676  49.2371640   3.5838193  50.3060715  48.8548718   4.1975718
  48.8216595  49.0185842   3.9493886  60.0782785  59.6434615   5.1891929
  60.6222689  60.2564574   4.6946884  59.4969630  60.2014194   5.7058942
  58.3640298  62.7655334  -3.6793043  58.2391437  61.9645073  -4.1882098
  59.0219389  63.2601527  -4.1679073  60.4275206  60.5664354  -2.0513493
  59.4805542  60.4469705  -2.1235167  60.7757979  59.6786852  -1.9687232
  52.7874779  46.4558493   1.7724749  53.3109181  46.7020789   2.5351058
  52.5687113  47.2878527   1.3527886  57.4321639  60.3617070  -5.8509141
  57.2846602  59.4333777  -5.6701571  58.2575133  60.3837161  -6.3352066
  61.0355761  61.1845629  -4.7644268  61.9602309  60.9788490  -4.9019817
  60.8671065  60.9362030  -3.8554927  53.9927324  47.3972188  -0.5425581
  53.6524145  46.5980001  -0.1404901  53.2866331  47.6973898  -1.1148748
  55.8804889  48.5980509  -2.1872262  55.6222666  49.5197580  -2.1887932
  55.3489929  48.2010943  -1.4971798  60.8251077  61.7031296  -9.4082177
  60.9987955  61.1377718 -10.1608324  61.3179969  62.5032191  -9.5902687
  46.6428037  53.7145965  -1.3418618  46.0981505  54.4905773  -1.2098344
  47.5207387  54.0616770  -1.4999497  66.6790469  54.4667719  -7.7891877
  67.1221615  53.7175044  -8.1872754  65.8016979  54.4577855  -8.1718145
  61.8126250  61.0198060 -12.3085279  62.5077155  61.6404753 -12.0897964
  62.1549400  60.1693412 -12.0332901  47.4294059  52.8415861   1.5511539
  46.6875795  52.9898497   2.1376169  47.1086803  53.1024127   0.6878288
  63.7117673  58.4697766 -10.7797948  64.2368997  58.8085039 -11.5048628
  63.6240026  57.5344781 -10.9634813  55.3737722  62.3831840   1.3491929
  55.6824848  62.1380986   2.2214628  56.1713204  62.5878478   0.8610799
  55.3958334  64.5369749  -6.4202695  54.9563324  64.0446128  -5.7269838
  56.1466451  63.9942717  -6.6610619  47.8750673  60.7281290  -6.4178067
  48.7008693  60.4285062  -6.7979423  47.5244725  59.9588912  -5.9688278
  52.8432206  60.0807758  -4.3480393  52.2212215  59.4178463  -4.6478165
  53.5137073  60.1068890  -5.0306745  52.9156733  48.5589546   5.2452113
  52.9644889  49.4351669   4.8629883  53.4579248  48.0166939   4.6723756
  63.4011579  59.1030670   4.5253250  62.6107123  59.0854808   3.9857750
  63.1644934  59.6418963   5.2802287  63.5209454  55.9523136   1.8385979
  63.5707459  55.7873143   2.7801502  63.4123377  55.0850395   1.4483859
  60.8113217  51.9354064   3.1545285  61.7123079  51.7960529   2.8629283
  60.8861191  52.1008519   4.0943463  55.1456022  49.3120919   1.9998472
  54.2759331  49.6054485   1.7281060  55.3815502  49.8961364   2.7205735
  65.0227651  58.3720077   2.0828000  64.7312459  58.7350058   2.9191461
  64.4099782  57.6587086   1.9041332  66.2223333  55.9372957  -5.3969430
  67.0570225  56.3762761  -5.2331869  66.3582462  55.4611610  -6.2161184
  63.2714839  53.4952692   0.5508058  63.7468961  53.6880338  -0.2573090
  62.3480405  53.5511878   0.3051442  57.8495056  45.5300536  -0.4836108
  58.3677000  46.2661563  -0.8089619  57.4950188  45.8364529   0.3510651
  61.9716508  50.3718452  -1.2163636  62.9233931  50.4716550  -1.1951412
  61.8019959  49.5796721  -0.7065552  59.9930888  47.4574035  -1.0304235
  59.3980820  47.7379048  -1.7257747  59.7080584  47.9467936  -0.2587494
  64.4504586  53.5924572  -2.1021337  64.4180906  52.6540573  -1.9161653
  65.0605210  53.6708609  -2.8355512  64.5999074  50.3835615  -2.0563053
  64.0838123  49.5994072  -2.2433124  65.4839023  50.0554332  -1.8916534
  70.2681136  54.6540579  -2.9615300  70.9984524  54.3925867  -2.4007596
  69.6588081  53.9169301  -2.9213232  68.3496433  52.7948441  -2.3640849
  67.6229597  52.6604406  -2.9724357  67.9343720  53.1025270  -1.5584130
  56.1726609  56.5138371   5.4006525  57.0929619  56.6916970   5.5946571
  56.1376192  55.5694416   5.2486224  49.1688682  54.4239406  -1.9570694
  49.3874692  55.3556513  -1.9382661  49.5814456  54.0647380  -1.1715890
  54.0416547  49.9972611   7.4332055  53.9413274  50.9466968   7.3644146
  53.8238089  49.6690850   6.5608125  53.9047817  53.4269750   6.2497116
  53.4214899  54.2270110   6.4561005  53.9908756  53.4377695   5.2964560
  49.8321155  57.3174285  -1.7134450  50.7864408  57.2858227  -1.7804518
  49.6333678  56.8564909  -0.8984224  50.4220537  55.8875401   0.8536348
  51.2413426  56.3819480   0.8771185  50.6957345  54.9707369   0.8253915
  63.5301669  48.3032674  -6.0681358  64.3062059  48.7929127  -5.7956741
  62.8049803  48.7290728  -5.6109488  65.9674228  49.0160293  -5.0107417
  66.5618719  48.7756029  -5.7214109  66.0400812  48.2967424  -4.3833881
  48.1871384  62.8593904  -4.6964252  48.0525852  62.0994305  -5.2626254
  47.7703446  63.5834804  -5.1635463  68.2745301  52.3226494  -6.2363996
  67.7144859  52.3919684  -5.4632434  67.6688804  52.1467479  -6.9564499
  51.3440509  63.7563221  -4.4845809  51.2272894  64.7008654  -4.5867119
  50.5232956  63.4536783  -4.0960010  45.6755451  50.2213535   1.5528545
  46.3214315  49.7112489   2.0415770  45.4672602  50.9582216   2.1271970
  58.2008843  57.2894382   7.0520685  59.0700003  57.4635035   6.6907320
  57.7215595  58.1088799   6.9296415  52.3695024  64.4091483  -1.2689881
  53.2722270  64.4415094  -0.9523386  52.1432394  63.4791934  -1.2543545
  54.1248626  63.1622470  -4.6079802  53.1744257  63.1624331  -4.7215430
  54.4281112  62.4155204  -5.1243768  50.0152942  47.3681152   5.6503559
  50.8784404  47.0117957   5.8606884  49.4418353  47.0295047   6.3378963
  69.8601319  68.9983008  -3.5434040  70.4979729  68.8789756  -4.2470700
  69.7422162  69.9463852  -3.4846088  66.6691025  68.9510436  -3.6072515
  66.3309537  68.8351501  -4.4951980  67.5380794  68.5501601  -3.6271509
  67.1510808  70.1045288   2.3513690  67.1399449  69.7098086   1.4794194
  67.3131448  69.3711361   2.9447462  60.0742273  72.2997104  -4.7791404
  60.8663565  71.9587929  -5.1945105  60.3138923  72.4092079  -3.8589251
  63.8718070  72.8882400   1.2992874  63.5807935  73.7928031   1.1839541
  64.5075054  72.9298928   2.0136944  64.7974276  70.2659248  -2.1105766
  65.3937849  70.0415271  -2.8248803  64.8549248  69.5243994  -1.5080318
  69.4142588  66.7234462  -6.4680832  70.2005677  66.3053885  -6.8190415
  69.6781292  67.6280554  -6.2999184  72.3376435  60.3731269  -1.1053245
  72.0059760  61.2426680  -1.3292030  71.7422048  60.0567553  -0.4259214
  68.8307955  72.5743815  -1.7057332  68.5308678  73.4768854  -1.8141525
  68.4859014  72.3075999  -0.8536179  62.2820436  69.0257612  -5.6720628
  61.3570933  68.8933826  -5.4642936  62.5304849  69.8051831  -5.1750685
  72.2305098  65.0926356  -4.0259895  71.3221976  65.0241764  -4.3201134
  72.1792694  65.5698301  -3.1978069  59.6429247  68.6690886  -4.8376839
  59.7721628  68.9225365  -3.9237427  58.9626698  69.2618594  -5.1572184
  66.3045964  66.5116001   3.9175002  65.5279298  67.0709921   3.9077867
  66.9436527  66.9972784   4.4389873  74.0966745  63.2942794  -2.2482021
  73.4541125  63.5875327  -2.8942226  73.5921673  63.1795714  -1.4428824
  64.5592336  69.3201455   3.4792969  65.3007021  69.8586499   3.2027793
  63.8529322  69.9467743   3.6364521  70.0347676  71.4630595   2.0765131
  70.4431032  71.0213006   1.3319763  69.3124938  70.8883223   2.3299324
  66.3878746  66.4003202  -0.5501312  67.2339941  66.8242615  -0.4066663
  66.3277384  65.7436826   0.1437251  69.5378191  64.0607570   1.1079862
  69.2939123  64.8149631   0.5714137  69.8138122  64.4392918   1.9427109
  71.4916654  70.6046183  -0.2142873  71.7033550  71.2477942  -0.8908492
  71.4446403  69.7708499  -0.6820943  69.0942883  63.2164003  -3.3106301
  68.2327362  63.5145257  -3.0189563  69.1205318  63.4334402  -4.2425268
  62.8028534  71.3077675  -3.9652732  63.3729891  71.7364944  -4.6035247
  63.3936646  71.0260260  -3.2668546  63.2953700  66.4741103   4.2808279
  62.6652361  67.1557384   4.5143676  63.1889788  66.3624184   3.3361418
  58.5898673  66.1412899  -4.7925796  57.7997727  66.3970427  -5.2685686
  59.0809920  66.9561237  -4.6873756  60.5413418  66.5057478  -7.8342320
  59.7444581  66.6176172  -7.3158824  60.3139010  66.8444130  -8.7001429
  66.3719086  73.0302181   0.1140195  66.4363518  73.4922588   0.9498367
  65.6630010  72.3999546   0.2422505  56.8736376  66.3943389  -2.3610806
  57.1244414  67.2790399  -2.0953230  57.4095924  66.2147991  -3.1335714
  62.5734443  60.7761869   6.6433531  62.1801389  60.2228067   7.3181175
  63.3900583  61.0872447   7.0340048  65.4902404  62.1919748   4.2353787
  66.2312117  62.7926901   4.1558250  65.7220327  61.4497385   3.6771830
  60.6343742  67.3776115   2.5132017  60.5197257  66.4761372   2.8139116
  59.7788260  67.6239812   2.1616833  67.7135580  75.3193855   4.1119517
  67.2699434  74.5330234   3.7940422  68.3752793  75.5073006   3.4463408
  62.4722701  76.8489657  -1.3619804  63.0230126  76.7206720  -2.1342810
  61.6334177  77.1484546  -1.7124911  69.8116818  75.5996655   2.1400919
  69.7935293  76.4205536   1.6481188  70.7336738  75.4750730   2.3651060
  66.2689872  73.1140785   2.9824427  66.8018209  72.3529073   2.7523735
  65.7403953  72.8214436   3.7248582  69.4359567  58.2200851  -1.4881931
  69.0923836  59.1102492  -1.5642821  69.8038529  58.0302508  -2.3512346
  57.5045417  70.5434381  -8.6693329  58.3420639  70.9531389  -8.8859621
  57.6823685  69.6033823  -8.6993135  66.9856961  63.0559162  -7.9224258
  66.1298557  62.6666013  -8.1018619  67.3983912  63.1351123  -8.7824472
  68.5156107  60.5905506  -3.5232698  68.0120903  60.5535641  -4.3364893
  68.8086714  61.4998248  -3.4636041  64.7598993  60.6744235  -4.5166516
  65.6251990  60.4787044  -4.8760627  64.8276502  60.4454587  -3.5897159
  62.3661312  62.9046443  -7.1450149  62.9405064  62.6821625  -7.8776956
  62.9532295  62.9735138  -6.3921548  64.6683980  59.7787692  -8.4175080
  64.0148392  59.4636709  -9.0418465  64.6264454  59.1563433  -7.6915257
  67.9021720  66.2669626  -4.0927432  66.9844282  66.4884573  -4.2505744
  68.3181864  66.3415936  -4.9515725  71.2347233  57.4794410  -6.3864194
  71.5406109  56.6191773  -6.6738278  71.9599837  58.0712030  -6.5865200
  57.5271589  67.8825096  -7.9982596  57.3295988  67.2894457  -8.7231529
  56.9718253  67.5777307  -7.2806657  65.5068312  67.7748203  -5.8788002
  65.5616922  66.8222039  -5.9545526  64.6959514  67.9307642  -5.3946704
  63.4460672  66.3925263  -8.1197624  62.6328538  66.6919433  -7.7132431
  63.9419666  65.9980951  -7.4023141  69.0434884  66.8567087   0.7117270
  69.3984272  67.0838560   1.5711736  69.6907015  67.1885464   0.0894526
  62.9374747  63.9643618  -2.5036389  63.5774126  63.8232377  -3.2013425
  62.1052278  63.6778132  -2.8797787  68.5329895  75.6464144  -2.0389029
  68.5866918  76.2155080  -1.2711313  67.6644677  75.8166029  -2.4034991
  59.9403363  63.9343943  -7.7263402  60.2010181  64.8489276  -7.8354241
  60.7620536  63.4668386  -7.5766789  61.4128289  65.3481700  -0.5564577
  62.0851342  65.1399062  -1.2051928  60.5858075  65.1503786  -0.9959345
  67.3153861  61.9743641   1.4601084  66.6681776  62.6733591   1.3665560
  68.0854876  62.4079785   1.8277332  70.7232659  72.2392493   4.5351637
  70.5718165  72.0103045   3.6181721  70.7137338  73.1963095   4.5482982
  67.4917995  69.8124406  -0.4802097  68.4210055  69.9635566  -0.6533129
  67.0709025  69.9008427  -1.3353450  66.2906327  73.8375071  -2.7103559
  66.1517413  73.4693855  -1.8377621  65.5020923  74.3522710  -2.8819601
  61.8155786  68.6224303   0.2037860  61.6775584  67.8904542   0.8049399
  62.7260709  68.5333203  -0.0777952  64.4438087  68.3344263  -0.3078460
  65.1537705  67.6937455  -0.3491842  64.4007395  68.5857157   0.6147720
  72.4324865  75.2711616   2.6128119  72.3737411  74.5870836   1.9458702
  72.8344384  76.0130606   2.1608745  63.1567021  65.3209480   1.5117179
  62.6204378  64.8700219   2.1638775  62.5683729  65.4555389   0.7687643
  72.4342273  73.2351200   0.8442098  71.5469051  72.8977122   0.9668497
  73.0040824  72.5034231   1.0810864  54.0871420  69.5675292  -5.8314850
  54.7742460  69.2537022  -6.4193835  53.9319548  70.4716656  -6.1047599
  58.8906142  64.4565488  -1.4029827  58.8064331  63.8491158  -2.1379417
  58.0688848  64.9474506  -1.4020330  69.0629856  62.9419052  -6.0359631
  69.5598555  62.1889014  -6.3558561  68.2916837  62.9783368  -6.6016422
  68.4242109  77.7939486  -0.0338500  69.1370082  78.4286951  -0.1062598
  67.9332138  77.8903352  -0.8498498  65.6464824  65.0836435  -6.3087947
  65.2762612  64.5307475  -5.6207041  66.1423917  64.4794568  -6.8612947
  63.4754023  75.5433930   0.7867071  64.1763483  76.1770413   0.9396465
  63.0049138  75.8848661   0.0262710  71.5048851  59.9088645  -3.8880273
  70.5911930  60.1392872  -3.7198066  71.9341952  59.9927089  -3.0366240
  71.2755309  68.0978537  -1.3880379  70.6226759  68.3454445  -2.0427926
  71.6535689  67.2842675  -1.7217901  67.3242882  68.8398348   5.0985659
  66.6483519  68.7392478   5.7688034  68.1470516  68.6837562   5.5621656
  59.0721741  75.0770285  -2.2801826  59.6575178  74.3313973  -2.1473922
  58.8746580  75.3874241  -1.3965162  53.6639396  67.6475885  -3.5597383
  53.7023495  67.1139476  -2.7660265  53.1579689  67.1211090  -4.1786406
  61.0430158  62.4940425  -0.0634841  61.1071485  63.3555256  -0.4757443
  60.9797278  61.8814427  -0.7962482  60.5182431  64.5663558   3.5838193
  61.1454469  64.1840635   4.1975718  59.6610350  64.3477760   3.9493886
  70.9176539  74.9726533   5.1891929  71.4616443  75.5856491   4.6946884
  70.3363384  75.5306112   5.7058942  57.2947973  66.3739987 -10.4843452
  57.5901414  65.4650666 -10.5376398  56.3936009  66.3527727 -10.8062449
  60.8242220  64.4495984  -4.5015903  60.1028806  65.0631951  -4.6408430
  61.6135476  64.9853749  -4.5799257  63.6268534  61.7850410   1.7724749
  64.1502936  62.0312707   2.5351058  63.4080867  62.6170445   1.3527886
  59.0235815  64.0554085 -10.3604127  58.6948521  63.1751464 -10.5429021
  59.3775186  64.0001753  -9.4727737  62.1377638  64.3427055  -9.9928649
  62.4773711  64.8712976 -10.7150041  62.5849759  64.6807461  -9.2170082
  64.8321079  62.7264105  -0.5425581  64.4917899  61.9271918  -0.1404901
  64.1260085  63.0265816  -1.1148748  65.4837551  59.8113418  -2.0898258
  66.3063620  59.3373896  -2.2119367  65.7275614  60.5903901  -1.5899572
  63.0076130  66.5032538  -4.2806279  62.8620710  66.8172841  -3.3881998
  62.5301333  67.1217439  -4.8335381  64.8672512  63.4935086  -4.2325390
  64.8534081  62.5976180  -4.5693092  65.5844941  63.5005750  -3.5987104
  66.7198643  63.9272427  -2.1872262  66.4616421  64.8489497  -2.1887932
  66.1883684  63.5302861  -1.4971798  57.4821792  69.0437883  -1.3418618
  56.9375260  69.8197691  -1.2098344  58.3601142  69.3908687  -1.4999497
  64.2709408  62.3749467  -8.9637820  64.3925320  61.4466113  -8.7646932
  63.9811451  62.3888153  -9.8759504  67.1400599  60.0604377  -5.8271100
  67.1622296  60.1243710  -6.7819120  67.5568658  59.2208886  -5.6330594
  58.2687814  68.1707779   1.5511539  57.5269550  68.3190414   2.1376169
  57.9480558  68.4316045   0.6878288  66.2131476  77.7123757   1.3491929
  66.5218603  77.4672904   2.2214628  67.0106958  77.9170396   0.8610799
  56.9153032  73.9759534  -5.4589133  56.0784941  73.5481709  -5.6405132
  56.8876678  74.1691978  -4.5218342  63.7550488  63.8881464   5.2452113
  63.8038643  64.7643587   4.8629883  64.2973002  63.3458857   4.6723756
  74.2405334  74.4322587   4.5253250  73.4500877  74.4146726   3.9857750
  74.0038688  74.9710881   5.2802287  74.3603209  71.2815054   1.8385979
  74.4101214  71.1165061   2.7801502  74.2517132  70.4142313   1.4483859
  71.6506971  67.2645982   3.1545285  72.5516834  67.1252446   2.8629283
  71.7254946  67.4300436   4.0943463  65.9849776  64.6412836   1.9998472
  65.1153086  64.9346402   1.7281060  66.2209257  65.2253281   2.7205735
  75.8621405  73.7011995   2.0828000  75.5706214  74.0641976   2.9191461
  75.2493537  72.9879003   1.9041332  74.1108594  68.8244610   0.5508058
  74.5862715  69.0172256  -0.2573090  73.1874159  68.8803796   0.3051442
  68.6888810  60.8592453  -0.4836108  69.2070754  61.5953480  -0.8089619
  68.3343943  61.1656447   0.3510651  68.9401404  57.2792736  -4.9635211
  69.2203158  56.6115925  -4.3374785  69.7252011  57.4721831  -5.4760547
  72.8110263  65.7010370  -1.2163636  73.7627686  65.8008468  -1.1951412
  72.6413713  64.9088638  -0.7065552  70.8324642  62.7865953  -1.0304235
  70.2374574  63.0670966  -1.7257747  70.5474339  63.2759854  -0.2587494
  75.2898340  68.9216490  -2.1021337  75.2574661  67.9832490  -1.9161653
  75.8998964  69.0000526  -2.8355512  75.4392829  65.7127533  -2.0563053
  74.9231878  64.9285990  -2.2433124  76.3232778  65.3846250  -1.8916534
  73.1003556  59.4568549  -6.0967241  72.9028377  59.1483637  -5.2123909
  73.7103261  60.1830187  -5.9669311  67.0120364  71.8430289   5.4006525
  67.9323373  72.0208888   5.5946571  66.9769947  70.8986334   5.2486224
  56.2302529  67.0368882  -5.6740201  55.9105313  66.1834190  -5.9665827
  55.6835957  67.2517460  -4.9182234  60.0082436  69.7531323  -1.9570694
  60.2268446  70.6848431  -1.9382661  60.4208210  69.3939298  -1.1715890
  66.9286654  60.2599409  -9.9695006  66.1187383  59.9146494  -9.5939760
  67.6171071  59.9506952  -9.3807394  68.8577203  59.3377455  -8.3470709
  69.4108241  59.7572909  -7.6880686  69.0947289  58.4113204  -8.3047753
  64.8810302  65.3264529   7.4332055  64.7807029  66.2758886   7.3644146
  64.6631844  64.9982768   6.5608125  56.0990789  70.6571794  -3.7047079
  55.4054260  70.2425747  -4.2177125  56.8463780  70.6992330  -4.3013660
  70.6859576  60.8483038  -6.6370725  71.1859354  60.9599573  -7.4456406
  71.3295184  60.5444091  -5.9969916  64.7441572  68.7561668   6.2497116
  64.2608654  69.5562028   6.4561005  64.8302511  68.7669613   5.2964560
  58.0127531  70.5890048  -5.8281064  57.9898220  70.6877735  -6.7799181
  58.3228168  71.4355198  -5.5063898  60.6714909  72.6466203  -1.7134450
  61.6258163  72.6150145  -1.7804518  60.4727433  72.1856826  -0.8984224
  61.2614291  71.2167319   0.8536348  62.0807180  71.7111397   0.8771185
  61.5351099  70.2999287   0.8253915  74.3695424  63.6324592  -6.0681358
  75.1455814  64.1221044  -5.7956741  73.6443558  64.0582646  -5.6109488
  56.5149206  65.5505453   1.5528545  57.1608069  65.0404406   2.0415770
  56.3066357  66.2874134   2.1271970  69.0402598  72.6186300   7.0520685
  69.9093757  72.7926952   6.6907320  68.5609349  73.4380717   6.9296415
  63.2088778  79.7383401  -1.2689881  64.1116025  79.7707011  -0.9523386
  62.9826148  78.8083852  -1.2543545  68.8504936  56.4088274  -8.4401622
  68.0837331  55.8546760  -8.2944940  69.2615641  56.4810143  -7.5787471
  60.8546697  62.6973070   5.6503559  61.7178158  62.3409874   5.8606884
  60.2812107  62.3586964   6.3378963  73.4128197  76.1053786   6.6433531
  73.0195143  75.5519985   7.3181175  74.2294338  76.4164365   7.0340048
  76.3296158  77.5211665   4.2353787  77.0705872  78.1218818   4.1558250
  76.5614081  76.7789303   3.6771830  71.3576185  79.8955476   3.5838193
  71.9848224  79.5132553   4.1975718  70.5004104  79.6769678   3.9493886
  74.5944242  79.2173382   5.2452113  74.6432398  80.0935504   4.8629883
  75.1366757  78.6750775   4.6723756  75.7204056  80.6556447   7.4332055
  75.6200783  81.6050804   7.3644146  75.5025598  80.3274686   6.5608125
  67.3542960  80.8797370   1.5528545  68.0001824  80.3696324   2.0415770
  67.1460111  81.6166052   2.1271970  71.6940451  78.0264987   5.6503559
  72.5571913  77.6701792   5.8606884  71.1205862  77.6878882   6.3378963
  67.7135581  52.3255978  -9.1635176  67.2699435  51.5392356  -9.4814271
  68.3752795  52.5135128  -9.8291285  69.8116819  52.6058778 -11.1353775
  69.7935294  53.4267659 -11.6273506  70.7336739  52.4812853 -10.9103634
  70.7232660  49.2454616  -8.7403057  70.5718166  49.0165168  -9.6572973
  70.7137339  50.2025217  -8.7271712  72.4324867  52.2773739 -10.6626575
  72.3737413  51.5932959 -11.3295992  72.8344385  53.0192729 -11.1145949
  70.9176540  51.9788656  -8.0862764  71.4616444  52.5918614  -8.5807810
  70.3363385  52.5368234  -7.5695751  74.2405335  51.4384710  -8.7501443
  73.4500879  51.4208849  -9.2896944  74.0038689  51.9773004  -7.9952407
  75.8621407  50.7074118 -11.1926693  75.5706215  51.0704098 -10.3563232
  75.2493538  49.9941126 -11.3713361  69.0402599  49.6248423  -6.2234008
  69.9093759  49.7989075  -6.5847373  68.5609351  50.4442839  -6.3458279
  73.4128199  53.1115909  -6.6321163  73.0195144  52.5582107  -5.9573519
  74.2294339  53.4226487  -6.2414645  76.3296160  54.5273788  -9.0400906
  77.0705873  55.1280941  -9.1196444  76.5614083  53.7851426  -9.5982864
  71.3576186  56.9017598  -9.6916500  71.9848225  56.5194676  -9.0778976
  70.5004105  56.6831800  -9.3260807  74.5944244  56.2235504  -8.0302580
  74.6432399  57.0997627  -8.4124811  75.1366758  55.6812897  -8.6030937
  75.7204057  57.6618569  -5.8422639  75.6200784  58.6112926  -5.9110548
  75.5025600  57.3336808  -6.7146569  67.3542961  57.8859493 -11.7226149
  68.0001825  57.3758447 -11.2338923  67.1460113  58.6228174 -11.1482723
  71.6940452  55.0327110  -7.6251134  72.5571914  54.6763915  -7.4147810
  71.1205863  54.6941005  -6.9375730   4.8212189 100.4840725  47.4083226
   4.0675897  99.9148123  47.2527231   4.9559730 100.4503390  48.3553861
   1.6427937 100.4543476  45.3126893   2.0859083  99.7050801  44.9146017
   0.7654447 100.4453612  44.9300625   1.1860801 101.9248714  47.7049341
   2.0207693 102.3638518  47.8686901   1.3219930 101.4487367  46.8857587
   5.2318604 100.6416335  50.1403471   5.9621992 100.3801623  50.7011174
   4.6225549  99.9045057  50.1805539   3.3133901  98.7824198  50.7377922
   2.5867065  98.6480163  50.1294413   2.8981188  99.0901026  51.5434640
   0.9311696  95.0036050  48.0911353   1.5256187  94.7631786  47.3804662
   1.0038280  94.2843181  48.7184890   3.2382769  98.3102251  46.8654775
   2.6782327  98.3795440  47.6386337   2.6326272  98.1343236  46.1454271
   4.3997035 104.2076607  51.6136839   4.0561304 105.0978249  51.5375950
   4.7675998 104.0178265  50.7506424   6.1984701 103.4670166  46.7154577
   6.5043577 102.6067530  46.4280492   6.9237305 104.0587787  46.5153571
   6.4686319 105.8964402  49.2138498   5.5549398 106.1268629  49.3820705
   6.8979420 105.9802846  50.0652530   3.9038872 103.2668492  48.1383559
   4.1840626 102.5991682  48.7643986   4.6889479 103.4597588  47.6258223
   8.0641024 105.4444305  47.0051530   7.8665845 105.1359393  47.8894862
   8.6740730 106.1705944  47.1349460   3.8214671 105.3253212  44.7548061
   4.3745709 105.7448665  45.4138084   4.0584757 104.3988960  44.7971017
   3.8142404 102.3964030  44.6617148   3.0474799 101.8422517  44.8073830
   4.2253109 102.4685899  45.5231300   4.8212190  77.4902848  34.1328533
   4.0675898  76.9210246  33.9772537   4.9559731  77.4565512  35.0799168
   1.6427938  77.4605598  32.0372200   2.0859084  76.7112923  31.6391323
   0.7654448  77.4515734  31.6545932   1.1860803  78.9310836  34.4294647
   2.0207694  79.3700640  34.5932208   1.3219931  78.4549490  33.6102893
   5.2318605  77.6478458  36.8648777   5.9621994  77.3863746  37.4256481
   4.6225551  76.9107180  36.9050845   3.3133902  75.7886320  37.4623228
   2.5867066  75.6542285  36.8539720   2.8981189  76.0963149  38.2679947
   0.9311697  72.0098173  34.8156660   1.5256188  71.7693909  34.1049968
   1.0038281  71.2905303  35.4430196   3.2382770  75.3164374  33.5900081
   2.6782328  75.3857563  34.3631643   2.6326273  75.1405358  32.8699578
   4.8238788  91.9920887  36.2830037   5.4617198  91.8727635  35.5793377
   4.7059631  92.9401731  36.3417989   1.6328495  91.9448316  36.2191562
   1.2947006  91.8289380  35.3312097   2.5018263  91.5439481  36.1992568
   2.1148278  93.0983167  42.1777767   2.1036918  92.7035966  41.3058271
   2.2768917  92.3649240  42.7711539   4.3780057  89.7172341  33.3583245
   5.1643146  89.2991764  33.0073662   4.6418761  90.6218433  33.5264893
   9.7788484  89.6547574  34.2616224  10.5113656  89.0846791  34.4954053
   9.0227840  89.2669175  34.7022729   1.3964604  92.0774816  31.4579566
   1.0322811  91.5505437  32.1692487   2.2531720  91.6873285  31.2846051
   7.3013904  83.3669149  38.7210832   6.9697229  84.2364560  38.4972047
   6.7059518  83.0505433  39.4004863   3.7945424  95.5681695  38.1206745
   3.4946147  96.4706733  38.0122552   3.4496483  95.3013878  38.9727898
   7.1942568  88.0864235  35.8004182   6.2859445  88.0179643  35.5062943
   7.1430163  88.5636180  36.6286008   1.2683433  89.5053880  43.7439079
   0.4916768  90.0647801  43.7341944   1.9073997  89.9910663  44.2653950
   9.0604214  86.2880673  37.5782056   8.4178594  86.5813206  36.9321851
   8.5559143  86.1733594  38.3835253   6.7144378  90.0343846  28.2667915
   7.6262234  90.2671233  28.0915613   6.2054025  90.6180891  27.7042994
   4.9985145  94.4568474  41.9029208   5.4068501  94.0150885  41.1583840
   4.2762407  93.8821102  42.1563401   1.3516215  89.3941081  39.2762765
   2.1977411  89.8180495  39.4197414   1.2914853  88.7374705  39.9701328
   5.3213960  95.0169665  35.6581497   4.6922822  95.1815379  34.9557565
   4.9339622  95.4311274  36.4292461   9.2003192  95.9524103  33.0125861
   8.5154230  96.3323004  32.4622894   9.2847041  96.5619429  33.7457808
   4.5015661  87.0545449  40.9343939   4.2576593  87.8087510  40.3978214
   4.7775591  87.4330797  41.7691186   6.4554124  93.5984062  39.6121204
   6.6671019  94.2415822  38.9355585   6.4083872  92.7646378  39.1443134
   4.0580353  86.2101882  36.5157776   3.1964832  86.5083136  36.8074514
   4.0842787  86.4272281  35.5838809   0.8741922  94.7544073  32.9231582
   1.3380267  95.0331776  32.1336204   0.6098720  93.8527517  32.7404673
   7.5699951  96.4756017  37.7843561   8.3917395  96.0736204  37.5026243
   7.5662354  96.3724251  38.7359677   1.3356555  96.0240060  39.9404272
   1.4000987  96.4860468  40.7762444   0.6267479  95.3937425  40.0686582
  15.6605945  92.8194766  34.1328533  14.9069653  92.2502164  33.9772537
  15.7953486  92.7857430  35.0799168   2.6773049  98.3131734  43.9383594
   2.2336903  97.5268113  43.6204499   3.3390263  98.5010885  43.2727485
   4.7754287  98.5934534  41.9664996   4.7572762  99.4143415  41.4745265
   5.6974207  98.4688610  42.1915137   1.2327341  96.1078664  42.8088504
   1.7655678  95.3466952  42.5787812   0.7041422  95.8152316  43.5512659
   4.3997036  81.2138730  38.3382146   4.0561306  82.1040371  38.2621256
   4.7675999  81.0240387  37.4751731   4.3647319  91.2047341  26.8454581
   3.8493942  91.9751946  27.0842968   4.0924627  90.5312477  27.4687642
   1.9494430  86.0497042  31.9039819   1.0936026  85.6603892  31.7245458
   2.3621382  86.1289002  31.0439605   3.4793577  83.5843385  36.3031379
   2.9758372  83.5473520  35.4899184   3.7724183  84.4936128  36.3628036
   9.3381593  93.9579696  28.7807754   8.5611036  93.6190855  28.3362916
  10.0173074  93.9632319  28.1062719   4.1533622  89.0774433  28.6714362
   3.8483758  89.3920582  29.5224505   5.1064064  89.1555853  28.7141695
   7.5772900  93.4313677  35.4374362   6.9196574  94.1212938  35.5254491
   8.3813299  93.8210109  35.7808349   6.3878359  91.7858049  33.4878304
   6.9010240  92.4188041  33.9900014   7.0379583  91.1859245  33.1221664
   2.8659190  89.2607505  35.7336645   1.9481751  89.4822452  35.5758333
   3.2819333  89.3353815  34.8748352   3.6494237  90.6598921  30.8639325
   4.3966056  91.1720318  30.5546447   3.9185827  90.3382973  31.7243718
   7.1540155  96.7664051  31.6157447   6.7002482  95.9254961  31.6722637
   6.5234122  97.4025449  31.9532227   6.0973075  87.6956037  32.8458114
   5.3595831  87.1833423  33.1768357   6.3499848  87.2556419  32.0341391
   5.5973094  98.6040548  32.5507265   5.8896069  99.1645605  31.8319631
   6.1071715  98.8969109  33.3060424   6.1984702  80.4732289  33.4399883
   6.5043579  79.6129652  33.1525799   6.9237307  81.0649909  33.2398877
   4.0072353  89.8504966  40.5381347   4.3621741  90.0776439  41.3975813
   4.6544484  90.1823343  39.9158603   9.7370090  92.9723402  31.2430676
   9.5987989  93.1624998  30.3151866   9.3806309  93.7342785  31.6998727
   9.7639470  95.0399929  36.2541948  10.1975976  94.9475218  37.1025002
  10.4771050  95.0157430  35.6161964   3.4967365  98.6402023  37.7875048
   3.5504387  99.2092960  38.5552764   2.6282146  98.8103908  37.4229086
  10.6255019  95.0823630  38.7874833  10.8190909  95.9869440  39.0334108
  10.5255637  94.6231049  39.6213418   2.2791330  84.9681520  41.2865161
   1.6319245  85.6671470  41.1929637   3.0492345  85.4017664  41.6541409
   5.6870128  95.2330373  44.3615714   5.5355634  95.0040924  43.4445798
   5.6774807  96.1900974  44.3747059   2.4555464  92.8062285  39.3461980
   3.3847524  92.9573445  39.1730948   2.0346494  92.8946306  38.4910627
   2.8049011  96.2094552  34.5049356   2.4698844  96.1695322  35.4007006
   2.3052957  95.5439268  34.0319766   7.3962335  98.2649495  42.4392196
   7.3374881  97.5808715  41.7722779   7.7981853  99.0068485  41.9872822
   7.3979742  96.2289079  40.6706175   6.5106521  95.8915001  40.7932574
   7.9678293  95.4972110  40.9074941   0.9280895 100.8890531  37.6367419
   0.8551067 101.6945503  38.1486723   0.4858288 101.0882497  36.8115440
   4.0267325  85.9356931  33.7904446   4.5236025  85.1826893  33.4705516
   3.2554307  85.9721248  33.2247655  11.8797082  91.6397296  35.4322737
  11.8686959  92.5222012  35.0616670  11.0114462  91.2868847  35.2377274
   3.3879579 100.7877365  39.7925577   4.1007551 101.4224830  39.7201479
   2.8969607 100.8841231  38.9765579   5.1097106  94.6928618  31.3642869
   4.1753384  94.8130081  31.1947573   5.2873774  93.7901085  31.1002879
   8.4969657  90.5345937  31.8992903   8.9630109  91.3673929  31.8253206
   8.9477158  90.0690919  32.6038162   6.5645888  96.8789759  28.8979055
   6.8405732  96.7646353  29.8072929   5.6950387  96.4807244  28.8591228
   6.4686320  82.9026524  35.9383804   5.5549400  83.1330751  36.1066011
   6.8979421  82.9864968  36.7897837   6.2392778  91.0916416  38.4383698
   5.5864229  91.3392324  37.7836151   6.6173158  90.2780555  38.1046176
   3.1999952 101.1276110  32.5411869   3.3822347 100.3097765  33.0039621
   4.0232938 101.3443802  32.1036759   2.2880351  91.8336227  44.9249736
   1.6120988  91.7330357  45.5952111   3.1107985  91.6775441  45.3885733
   1.0303134 103.1403155  39.1607352   1.5821442 103.3034776  39.9256437
   1.3709328 103.7307593  38.4887376   5.8814009  97.9664412  45.0156006
   6.4253912  98.5794371  44.5210961   5.3000853  98.5243991  45.5323019
   4.1671521 101.0885130  36.1471034   4.0422661 100.2874870  35.6381979
   4.8250613 101.5831324  35.6585004   6.2306430  98.8894150  37.7750584
   5.2836765  98.7699502  37.7028910   6.5789203  98.0016648  37.8576845
   3.2352863  98.6846867  33.9754936   3.0877826  97.7563574  34.1562506
   4.0606357  98.7066957  33.4912011   6.8386985  99.5075425  35.0619809
   7.7633532  99.3018287  34.9244260   6.6702288  99.2591827  35.9709150
   3.2314377  86.5384704  28.9687053   3.4477992  87.4209342  28.6675881
   2.7508445  86.1470918  28.2392695   1.6836112  86.9210306  37.6391815
   1.4253890  87.8427376  37.6376145   1.1521153  86.5240740  38.3292279
   6.6282301 100.0261093  30.4181900   6.8019179  99.4607515  29.6655753
   7.1211192 100.8261988  30.2361390   2.1038068  83.0542256  33.9992977
   2.1259765  83.1181589  33.0444957   2.5206127  82.2146765  34.1933484
  12.4821692  92.7897516  32.0372200  12.9252838  92.0404841  31.6391323
  11.6048203  92.7807652  31.6545932   9.5148897  96.7927563  29.0466129
  10.0400221  97.1314836  28.3215449   9.4271249  95.8574578  28.8629264
   1.1768946 100.7061636  41.1756006   1.4856072 100.4610783  42.0478705
   1.9744428 100.9108275  40.6874876   9.2042803  97.4260466  44.3517327
   8.4138347  97.4084605  43.8121827   8.9676157  97.9648760  45.1066364
   9.3240678  94.2752933  41.6650056   9.3738683  94.1102940  42.6065579
   9.2154601  93.4080192  41.2747936   6.6144440  90.2583861  42.9809362
   7.5154303  90.1190326  42.6893360   6.6892415  90.4238316  43.9207540
  10.8258875  96.6949874  41.9092077  10.5343683  97.0579855  42.7455538
  10.2131006  95.9816883  41.7305409  12.0254557  94.2602754  34.4294647
  12.8601448  94.6992558  34.5932208  12.1613686  93.7841407  33.6102893
   9.0746063  91.8182489  40.3772135   9.5500185  92.0110135  39.5690987
   8.1511628  91.8741675  40.1315519   3.6526279  83.8530333  39.3427969
   4.1708223  84.5891359  39.0174458   3.2981412  84.1594326  40.1774728
   3.9038874  80.2730615  34.8628866   4.1840627  79.6053804  35.4889292
   4.6889481  80.4659711  34.3503530   7.7747732  88.6948249  38.6100441
   8.7265155  88.7946347  38.6312665   7.6051182  87.9026518  39.1198525
   5.7962111  85.7803832  38.7959842   5.2012044  86.0608845  38.1006330
   5.5111808  86.2697733  39.5676583  10.2535810  91.9154369  37.7242740
  10.2212130  90.9770369  37.9102424  10.8636433  91.9938405  36.9908565
  10.4030298  88.7065412  37.7701024   9.8869347  87.9223869  37.5830953
  11.2870247  88.3784129  37.9347543   8.0641025  82.4506428  33.7296836
   7.8665846  82.1421516  34.6140168   8.6740731  83.1768067  33.8594766
  16.0712360  92.9770376  36.8648777  16.8015748  92.7155664  37.4256481
  15.4619305  92.2399097  36.9050845  14.1527657  91.1178238  37.4623228
  13.4260820  90.9834203  36.8539720  13.7374944  91.4255067  38.2679947
   1.9757833  94.8368168  45.2270602   2.8960843  95.0146767  45.4210648
   1.9407416  93.8924213  45.0750301   1.8924124  83.2537288  29.8569071
   1.0824852  82.9084373  30.2324317   2.5808540  82.9444832  30.4456683
   3.8214672  82.3315335  31.4793368   4.3745710  82.7510788  32.1383391
   4.0584758  81.4051083  31.5216324   7.1993479  84.4415860  30.9872032
   6.6192148  85.1000664  30.6050084   6.9329412  83.6193204  30.5759449
   5.6497045  83.8420917  33.1893352   6.1496824  83.9537452  32.3807671
   6.2932653  83.5381970  33.8294161   5.9818357  86.6015950  30.0428380
   5.0944212  86.8865601  29.8248575   6.3972346  86.4409714  29.1955657
   9.3332893  86.6262471  33.7582719  10.1093283  87.1158924  34.0307336
   8.6081027  87.0520525  34.2154589  11.7705452  87.3390090  34.8156660
  12.3649942  87.0985826  34.1049968  11.8432035  86.6197221  35.4430196
   5.9559381  92.1170486  30.2578670   5.8994582  92.5739037  29.4186303
   6.5087723  91.3561171  30.0801513   9.7664187  87.9060218  31.0828790
   9.5101121  87.5056854  31.9136998   9.1417055  88.6204012  30.9578929
  14.0776524  90.6456291  33.5900081  13.5176082  90.7149480  34.3631643
  13.4720028  90.4697276  32.8699578   6.6894160  93.3075267  27.5531200
   6.6342964  93.1419539  26.6119644   6.0640215  94.0151300  27.7093389
   4.0040067  95.6124179  46.8784762   4.8731227  95.7864831  46.5171397
   3.5246819  96.4318596  46.7560492   3.8142405  79.4026153  31.3862455
   3.0474801  78.8484640  31.5319137   4.2253110  79.4748022  32.2476606
  15.6632543 107.3212805  36.2830037  16.3010953 107.2019552  35.5793377
  15.5453386 108.2693649  36.3417989  12.4722249 107.2740233  36.2191562
  12.1340761 107.1581298  35.3312097  13.3412017 106.8731398  36.1992568
  12.9542032 108.4275085  42.1777767  12.9430673 108.0327883  41.3058271
  13.1162672 107.6941158  42.7711539  15.2173811 105.0464259  33.3583245
  16.0036901 104.6283682  33.0073662  15.4812516 105.9510351  33.5264893
  20.6182239 104.9839492  34.2616224  21.3507410 104.4138709  34.4954053
  19.8621594 104.5961093  34.7022729  12.2358358 107.4066734  31.4579566
  11.8716565 106.8797355  32.1692487  13.0925474 107.0165203  31.2846051
  18.1407659  98.6961066  38.7210832  17.8090984  99.5656477  38.4972047
  17.5453272  98.3797350  39.4004863  18.0336322 103.4156152  35.8004182
  17.1253200 103.3471561  35.5062943  17.9823918 103.8928097  36.6286008
  12.1077188 104.8345798  43.7439079  11.3310522 105.3939718  43.7341944
  12.7467751 105.3202581  44.2653950  19.8997969 101.6172591  37.5782056
  19.2572349 101.9105124  36.9321851  19.3952897 101.5025511  38.3835253
  17.5538132 105.3635764  28.2667915  18.4655988 105.5963151  28.0915613
  17.0447779 105.9472808  27.7042994  15.8378900 109.7860392  41.9029208
  16.2462256 109.3442802  41.1583840  15.1156161 109.2113019  42.1563401
  12.1909970 104.7232999  39.2762765  13.0371165 105.1472412  39.4197414
  12.1308608 104.0666623  39.9701328  15.3409415 102.3837367  40.9343939
  15.0970347 103.1379428  40.3978214  15.6169346 102.7622715  41.7691186
  17.2947878 108.9275979  39.6121204  17.5064773 109.5707739  38.9355585
  17.2477626 108.0938296  39.1443134  14.8974107 101.5393800  36.5157776
  14.0358586 101.8375054  36.8074514  14.9236542 101.7564199  35.5838809
  10.6504562 106.2059143  29.7321147  11.3528606 106.6580187  30.1995073
  10.3185191 105.5642962  30.3601040   9.0984924 104.7970900  44.1072356
   8.4683585 105.4787180  44.3407753   8.9921012 104.6853981  43.1625495
   4.3929896 104.4642696  35.0338281   3.6028950 104.7200224  34.5578391
   4.8841144 105.2791033  35.1390321  26.4999699 108.1486683  34.1328533
  25.7463407 107.5794081  33.9772537  26.6347240 108.1149348  35.0799168
   8.3765667  99.0991665  46.4697608   7.9832612  98.5457864  47.1445252
   9.1931807  99.4102244  46.8604125  11.2933628 100.5149545  44.0617864
  12.0343341 101.1156698  43.9822327  11.5251551  99.7727182  43.5035907
   6.4374966 105.7005912  42.3396094   6.3228481 104.7991169  42.6403193
   5.5819483 105.9469609  41.9880910  15.2390791  96.5430647  38.3382146
  14.8955060  97.4332289  38.2621256  15.6069753  96.3532305  37.4751731
  15.2041073 106.5339259  26.8454581  14.6887697 107.3043863  27.0842968
  14.9318382 105.8604395  27.4687642  12.7888184 101.3788959  31.9039819
  11.9329781 100.9895810  31.7245458  13.2015136 101.4580920  31.0439605
  14.3187331  98.9135303  36.3031379  13.8152127  98.8765438  35.4899184
  14.6117938  99.8228045  36.3628036  10.5630217  98.9974032  35.3097561
  11.4283214  98.8016841  34.9503450  10.6307726  98.7684384  36.2366918
  20.1775348 109.2871613  28.7807754  19.4004790 108.9482773  28.3362916
  20.8566828 109.2924236  28.1062719  14.9927377 104.4066351  28.6714362
  14.6877512 104.7212500  29.5224505  15.9457819 104.4847771  28.7141695
  18.4166654 108.7605594  35.4374362  17.7590329 109.4504856  35.5254491
  19.2207054 109.1502026  35.7808349   8.1692536 101.2276240  32.6813928
   8.7436288 101.0051422  31.9487121   8.7563518 101.2964935  33.4342529
  17.2272113 107.1149967  33.4878304  17.7403995 107.7479959  33.9900014
  17.8773337 106.5151163  33.1221664  10.4715204  98.1017489  31.4088997
   9.8179616  97.7866506  30.7845612  10.4295678  97.4793230  32.1348820
  13.7052944 104.5899423  35.7336645  12.7875505 104.8114370  35.5758333
  14.1213088 104.6645733  34.8748352  14.4887992 105.9890838  30.8639325
  15.2359811 106.5012236  30.5546447  14.7579581 105.6674891  31.7243718
  16.9366829 103.0247955  32.8458114  16.1989586 102.5125341  33.1768357
  17.1893603 102.5848336  32.0341391  17.0378456  95.8024207  33.4399883
  17.3437333  94.9421570  33.1525799  17.7631061  96.3941827  33.2398877
  11.3099536 106.0978000  33.9476075  11.3648146 105.1451836  33.8718551
  10.4990738 106.2537439  34.4317373   9.2491896 104.7155059  31.7066453
   8.4359762 105.0149230  32.1131646   9.7450890 104.3210748  32.4240936
  14.8466108 105.1796884  40.5381347  15.2015495 105.4068357  41.3975813
  15.4938239 105.5115261  39.9158603  20.5763845 108.3015320  31.2430676
  20.4381743 108.4916916  30.3151866  20.2200063 109.0634703  31.6998727
   8.7405971 102.2873415  37.3227688   9.3805350 102.1462174  36.6250652
   7.9083501 102.0007928  36.9466290  20.6033224 110.3691847  36.2541948
  21.0369731 110.2767136  37.1025002  21.3164805 110.3449347  35.6161964
   5.7434587 102.2573740  32.1000675   6.0041404 103.1719073  31.9909836
   6.5651759 101.7898183  32.2497288   7.2159512 103.6711497  39.2699500
   7.8882566 103.4628859  38.6212149   6.3889299 103.4733583  38.8304732
  21.4648774 110.4115547  38.7874833  21.6584664 111.3161358  39.0334108
  21.3649392 109.9522967  39.6213418  13.1185084 100.2973438  41.2865161
  12.4713000 100.9963388  41.1929637  13.8886100 100.7309582  41.6541409
  13.2949219 108.1354203  39.3461980  14.2241279 108.2865363  39.1730948
  12.8740249 108.2238224  38.4910627   7.6187010 106.9454100  40.0301937
   7.4806808 106.2134339  40.6313476   8.5291933 106.8563000  39.7486125
  10.2469310 106.6574059  39.5185617  10.9568929 106.0167252  39.4772235
  10.2038619 106.9086954  40.4411797   8.9598244 103.6439277  41.3381256
   8.4235601 103.1930016  41.9902852   8.3714953 103.7785186  40.5951720
   4.6937366 102.7795285  38.4234250   4.6095554 102.1720955  37.6884660
   3.8720072 103.2704303  38.4243747  14.8661079 101.2648849  33.7904446
  15.3629779 100.5118811  33.4705516  14.0948061 101.3013165  33.2247655
  22.7190837 106.9689214  35.4322737  22.7080713 107.8513930  35.0616670
  21.8508216 106.6160765  35.2377274  11.4496048 103.4066232  33.5176130
  11.0793836 102.8537272  34.2057036  11.9455141 102.8024365  32.9651130
  19.3363412 105.8637855  31.8992903  19.8023864 106.6965847  31.8253206
  19.7870912 105.3982837  32.6038162  17.3080074  98.2318442  35.9383804
  16.3943154  98.4622669  36.1066011  17.7373176  98.3156886  36.7897837
  17.0786533 106.4208334  38.4383698  16.4257983 106.6684241  37.7836151
  17.4566913 105.6072472  38.1046176  13.1274106 107.1628145  44.9249736
  12.4514743 107.0622274  45.5952111  13.9501740 107.0067359  45.3885733
   6.8461382 100.8170222  39.7629236   6.9102708 101.6785053  39.3506634
   6.7828502 100.2044224  39.0301595   6.3213654 102.8893355  43.4102270
   6.9485693 102.5070432  44.0239795   5.4641573 102.6707557  43.7757963
   6.6273444 102.7725781  35.3248174   5.9060030 103.3861748  35.1855647
   7.4166700 103.3083545  35.2464820   9.4299758 100.1080207  41.5988826
   9.9534160 100.3542504  42.3615135   9.2112091 100.9400242  41.1791963
  10.6352303 101.0493902  39.2838496  10.2949123 100.2501715  39.6859176
   9.9291309 101.3495613  38.7115329  11.2868775  98.1343215  37.7365819
  12.1094844  97.6603693  37.6144710  11.5306838  98.9133698  38.2364505
   9.9277009 101.1631473  28.0328721  10.6485372 101.5412726  27.5292438
   9.3042313 101.8820350  28.1363699  14.0708132 101.8676622  28.9687053
  14.2871746 102.7501260  28.6675881  13.5902199 101.4762835  28.2392695
   8.8107353 104.8262335  35.5457798   8.6651934 105.1402638  36.4382079
   8.3332557 105.4447236  34.9928696  10.6703736 101.8164883  35.5938687
  10.6565305 100.9205977  35.2570985  11.3876164 101.8235547  36.2276973
  12.5229867 102.2502223  37.6391815  12.2647645 103.1719294  37.6376145
  11.9914907 101.8532658  38.3292279  10.0740632 100.6979263  30.8626257
  10.1956543  99.7695910  31.0617145   9.7842675 100.7117949  29.9504573
  12.9431823  98.3834174  33.9992977  12.9653519  98.4473507  33.0444957
  13.3599882  97.5438683  34.1933484  23.3215447 108.1189433  32.0372200
  23.7646593 107.3696759  31.6391323  22.4441957 108.1099570  31.6545932
   9.5581712 102.2111261  45.0716190   9.6069867 103.0873384  44.6893960
  10.1004226 101.6688654  44.4987833  20.1634432 109.6044850  41.6650056
  20.2132437 109.4394858  42.6065579  20.0548356 108.7372109  41.2747936
  17.4538195 105.5875778  42.9809362  18.3548058 105.4482243  42.6893360
  17.5286169 105.7530233  43.9207540  11.7881000 102.9642633  41.8262549
  10.9184310 103.2576199  41.5545137  12.0240480 103.5483078  42.5469812
  22.8648312 109.5894672  34.4294647  23.6995203 110.0284476  34.5932208
  23.0007440 109.1133325  33.6102893  19.9139817 107.1474407  40.3772135
  20.3893939 107.3402053  39.5690987  18.9905383 107.2033592  40.1315519
  14.4920034  99.1822250  39.3427969  15.0101978  99.9183277  39.0174458
  14.1375167  99.4886243  40.1774728  14.7432628  95.6022533  34.8628866
  15.0234382  94.9345722  35.4889292  15.5283235  95.7951628  34.3503530
  18.6141486 104.0240167  38.6100441  19.5658909 104.1238264  38.6312665
  18.4444937 103.2318435  39.1198525  16.6355866 101.1095750  38.7959842
  16.0405798 101.3900763  38.1006330  16.3505563 101.5989651  39.5676583
  21.0929564 107.2446286  37.7242740  21.0605884 106.3062287  37.9102424
  21.7030188 107.3230323  36.9908565  21.2424053 104.0357330  37.7701024
  20.7263101 103.2515786  37.5830953  22.1264001 103.7076046  37.9347543
  18.9034780  97.7798345  33.7296836  18.7059601  97.4713434  34.6140168
  19.5134485  98.5059984  33.8594766  26.9106114 108.3062293  36.8648777
  27.6409503 108.0447581  37.4256481  26.3013060 107.5691015  36.9050845
  24.9921411 106.4470156  37.4623228  24.2654575 106.3126121  36.8539720
  24.5768698 106.7546984  38.2679947  12.7317878  98.5829205  29.8569071
  11.9218606  98.2376290  30.2324317  13.4202295  98.2736749  30.4456683
  14.6608426  97.6607252  31.4793368  15.2139465  98.0802706  32.1383391
  14.8978513  96.7343000  31.5216324  10.6841526 103.6494326  47.2596132
  10.5838252 104.5988683  47.1908223  10.4663068 103.3212565  46.3872202
  18.0387233  99.7707777  30.9872032  17.4585902 100.4292581  30.6050084
  17.7723166  98.9485122  30.5759449  16.4890800  99.1712835  33.1893352
  16.9890578  99.2829370  32.3807671  17.1326408  98.8673888  33.8294161
  10.5472796 107.0791465  46.0761193  10.0639877 107.8791825  46.2825082
  10.6333735 107.0899410  45.1228637  16.8212111 101.9307868  30.0428380
  15.9337966 102.2157518  29.8248575  17.2366100 101.7701631  29.1955657
  20.1726648 101.9554389  33.7582719  20.9487038 102.4450841  34.0307336
  19.4474782 102.3812443  34.2154589  22.6099206 102.6682008  34.8156660
  23.2043697 102.4277744  34.1049968  22.6825790 101.9489139  35.4430196
  16.7953135 107.4462404  30.2578670  16.7388337 107.9030955  29.4186303
  17.3481478 106.6853088  30.0801513  20.6057941 103.2352136  31.0828790
  20.3494875 102.8348771  31.9136998  19.9810809 103.9495930  30.9578929
  24.9170279 105.9748209  33.5900081  24.3569837 106.0441398  34.3631643
  24.3113782 105.7989193  32.8699578  17.5287914 108.6367185  27.5531200
  17.4736718 108.4711456  26.6119644  16.9033970 109.3443218  27.7093389
   2.3180429 103.8735249  41.3792622   2.9639293 103.3634203  41.8679847
   2.1097581 104.6103931  41.9536047  10.8384040  98.1375294  27.1316518
  10.8262710  99.0817134  27.2884789  11.7307462  97.9545439  26.8375979
  14.6536159  94.7318071  31.3862455  13.8868555  94.1776557  31.5319137
  15.0646864  94.8039939  32.2476606   6.6577920 101.0202866  45.4767636
   7.5209382 100.6639671  45.6870961   6.0843331 100.6816761  46.1643040
  26.0784545 111.8722565  38.3382146  25.7348815 112.7624207  38.2621256
  26.4463508 111.6824223  37.4751731  27.8772211 111.1316124  33.4399883
  28.1831088 110.2713488  33.1525799  28.6024816 111.7233745  33.2398877
  28.1473829 113.5610360  35.9383804  27.2336909 113.7914587  36.1066011
  28.5766930 113.6448804  36.7897837  25.5826383 110.9314450  34.8628866
  25.8628136 110.2637639  35.4889292  26.3676990 111.1243546  34.3503530
  29.7428534 113.1090263  33.7296836  29.5453355 112.8005351  34.6140168
  30.3528240 113.8351902  33.8594766  25.5002181 112.9899170  31.4793368
  26.0533219 113.4094623  32.1383391  25.7372267 112.0634918  31.5216324
  25.4929914 110.0609988  31.3862455  24.7262310 109.5068475  31.5319137
  25.9040619 110.1331857  32.2476606   4.8212191  54.4964971  20.8573840
   4.0675900  53.9272369  20.7017844   4.9559733  54.4627635  21.8044474
   1.6427939  54.4667721  18.7617507   2.0859085  53.7175046  18.3636630
   0.7654449  54.4577857  18.3791239   1.1860804  55.9372959  21.1539954
   2.0207695  56.3762763  21.3177514   1.3219933  55.4611612  20.3348200
   5.2318606  54.6540580  23.5894084   5.9621995  54.3925869  24.1501787
   4.6225552  53.9169302  23.6296152   3.3133904  52.7948443  24.1868535
   2.5867067  52.6604408  23.5785027   2.8981190  53.1025272  24.9925253
   0.9311698  49.0160295  21.5401967   1.5256189  48.7756031  20.8295275
   1.0038282  48.2967426  22.1675503   3.2382771  52.3226496  20.3145388
   2.6782329  52.3919685  21.0876950   2.6326275  52.1467481  19.5944884
   4.8238790  68.9983010  23.0075344   5.4617200  68.8789757  22.3038684
   4.7059633  69.9463854  23.0663296   1.6328496  68.9510438  22.9436868
   1.2947007  68.8351503  22.0557403   2.5018264  68.5501603  22.9237874
   2.1148279  70.1045290  28.9023074   2.1036920  69.7098088  28.0303578
   2.2768918  69.3711362  29.4956845   4.3780058  66.7234464  20.0828552
   5.1643147  66.3053887  19.7318969   4.6418762  67.6280556  20.2510200
   9.7788485  66.6609697  20.9861530  10.5113657  66.0908914  21.2199360
   9.0227841  66.2731298  21.4268036   1.3964605  69.0836939  18.1824873
   1.0322812  68.5567560  18.8937794   2.2531721  68.6935408  18.0091358
   7.3013906  60.3731271  25.4456139   6.9697230  61.2426682  25.2217354
   6.7059519  60.0567555  26.1250169   3.7945425  72.5743817  24.8452052
   3.4946148  73.4768856  24.7367859   3.4496485  72.3076000  25.6973204
   7.1942569  65.0926357  22.5249489   6.2859446  65.0241766  22.2308250
   7.1430165  65.5698302  23.3531314   1.2683435  66.5116003  30.4684386
   0.4916769  67.0709923  30.4587251   1.9073998  66.9972786  30.9899256
   9.0604215  63.2942796  24.3027363   8.4178596  63.5875329  23.6567157
   8.5559144  63.1795716  25.1080559   6.7144379  67.0405969  14.9913222
   7.6262235  67.2733356  14.8160920   6.2054026  67.6243013  14.4288301
   4.9985147  71.4630597  28.6274515   5.4068503  71.0213007  27.8829147
   4.2762408  70.8883224  28.8808708   1.3516217  66.4003204  26.0008072
   2.1977412  66.8242617  26.1442721   1.2914854  65.7436828  26.6946635
   5.3213961  72.0231787  22.3826804   4.6922824  72.1877502  21.6802871
   4.9339623  72.4373397  23.1537768   9.2003193  72.9586225  19.7371167
   8.5154231  73.3385127  19.1868201   9.2847043  73.5681552  20.4703115
   4.5015662  64.0607572  27.6589245   4.2576594  64.8149632  27.1223521
   4.7775593  64.4392920  28.4936492   6.4554125  70.6046184  26.3366511
   6.6671020  71.2477944  25.6600892   6.4083873  69.7708501  25.8688441
   4.0580354  63.2164005  23.2403083   3.1964833  63.5145259  23.5319821
   4.0842788  63.4334404  22.3084116   0.8741923  71.7606196  19.6476889
   1.3380269  72.0393898  18.8581511   0.6098721  70.8589640  19.4649979
   7.5699953  73.4818140  24.5088868   8.3917396  73.0798327  24.2271550
   7.5662356  73.3786374  25.4604984   1.3356556  73.0302183  26.6649579
   1.4000989  73.4922590  27.5007750   0.6267480  72.3999548  26.7931888
  15.6605946  69.8256888  20.8573840  14.9069654  69.2564286  20.7017844
  15.7953487  69.7919553  21.8044474   2.6773050  75.3193857  30.6628901
   2.2336904  74.5330236  30.3449806   3.3390264  75.5073008  29.9972792
   4.7754288  75.5996657  28.6910302   4.7572764  76.4205538  28.1990571
   5.6974208  75.4750732  28.9160443   1.2327342  73.1140786  29.5333811
   1.7655679  72.3529075  29.3033119   0.7041424  72.8214438  30.2757965
   4.3997037  58.2200852  25.0627452   4.0561307  59.1102494  24.9866563
   4.7676000  58.0302510  24.1997037   4.3647320  68.2109463  13.5699888
   3.8493944  68.9814068  13.8088275   4.0924629  67.5374600  14.1932949
   1.9494431  63.0559164  18.6285126   1.0936028  62.6666015  18.4490765
   2.3621383  63.1351125  17.7684911   3.4793578  60.5905508  23.0276686
   2.9758373  60.5535643  22.2144491   3.7724185  61.4998250  23.0873342
   9.3381594  70.9641818  15.5053061   8.5611037  70.6252978  15.0608223
  10.0173075  70.9694441  14.8308026   4.1533623  66.0836556  15.3959669
   3.8483759  66.3982705  16.2469812   5.1064065  66.1617975  15.4387002
   7.5772901  70.4375799  22.1619669   6.9196576  71.1275061  22.2499798
   8.3813300  70.8272231  22.5053655   6.3878360  68.7920172  20.2123611
   6.9010242  69.4250164  20.7145320   7.0379584  68.1921368  19.8466971
   2.8659191  66.2669628  22.4581951   1.9481752  66.4884575  22.3003639
   3.2819334  66.3415938  21.5993659   3.6494239  67.6661043  17.5884632
   4.3966058  68.1782441  17.2791754   3.9185828  67.3445096  18.4489025
   7.1540156  73.7726174  18.3402753   6.7002483  72.9317083  18.3967944
   6.5234123  74.4087572  18.6777534   6.0973076  64.7018160  19.5703421
   5.3595833  64.1895546  19.9013663   6.3499849  64.2618541  18.7586698
   5.5973095  75.6102670  19.2752572   5.8896070  76.1707727  18.5564937
   6.1071716  75.9031231  20.0305731   6.1984703  57.4794412  20.1645190
   6.5043580  56.6191775  19.8771105   6.9237308  58.0712032  19.9644184
   4.0072354  66.8567089  27.2626654   4.3621742  67.0838562  28.1221120
   4.6544486  67.1885466  26.6403909   9.7370091  69.9785525  17.9675983
   9.5987990  70.1687121  17.0397172   9.3806310  70.7404908  18.4244034
   9.7639471  72.0462052  22.9787254  10.1975978  71.9537341  23.8270309
  10.4771052  72.0219552  22.3407270   3.4967366  75.6464146  24.5120355
   3.5504388  76.2155082  25.2798071   2.6282147  75.8166031  24.1474392
  10.6255021  72.0885752  25.5120140  10.8190911  72.9931563  25.7579415
  10.5255639  71.6293171  26.3458725   2.2791331  61.9743643  28.0110467
   1.6319246  62.6733593  27.9174944   3.0492347  62.4079787  28.3786715
   5.6870129  72.2392495  31.0861020   5.5355636  72.0103047  30.1691104
   5.6774809  73.1963097  31.0992365   2.4555466  69.8124408  26.0707287
   3.3847526  69.9635567  25.8976254   2.0346496  69.9008429  25.2155933
   2.8049013  73.2156675  21.2294662   2.4698845  73.1757445  22.1252312
   2.3052958  72.5501391  20.7565073   7.3962336  75.2711618  29.1637502
   7.3374882  74.5870838  28.4968085   7.7981854  76.0130608  28.7118128
   7.3979743  73.2351202  27.3951482   6.5106522  72.8977123  27.5177881
   7.9678294  72.5034233  27.6320247   0.9280897  77.8952654  24.3612725
   0.8551068  78.7007625  24.8732030   0.4858290  78.0944620  23.5360747
   4.0267326  62.9419053  20.5149752   4.5236026  62.1889016  20.1950822
   3.2554308  62.9783370  19.9492961  11.8797084  68.6459419  22.1568044
  11.8686960  69.5284134  21.7861977  11.0114463  68.2930970  21.9622581
   3.3879580  77.7939488  26.5170884   4.1007552  78.4286953  26.4446785
   2.8969609  77.8903354  25.7010886   5.1097107  71.6990741  18.0888176
   4.1753386  71.8192203  17.9192880   5.2873775  70.7963207  17.8248185
   8.4969658  67.5408060  18.6238210   8.9630111  68.3736052  18.5498512
   8.9477159  67.0753042  19.3283468   6.5645889  73.8851881  15.6224362
   6.8405733  73.7708476  16.5318236   5.6950388  73.4869366  15.5836535
   6.4686321  59.9088647  22.6629111   5.5549401  60.1392874  22.8311318
   6.8979423  59.9927091  23.5143143   6.2392780  68.0978539  25.1629005
   5.5864230  68.3454446  24.5081458   6.6173159  67.2842677  24.8291482
   3.1999953  78.1338232  19.2657175   3.3822348  77.3159888  19.7284928
   4.0232939  78.3505924  18.8282065   2.2880353  68.8398350  31.6495042
   1.6120990  68.7392479  32.3197417   3.1107986  68.6837564  32.1131039
   1.0303135  80.1465277  25.8852658   1.5821443  80.3096899  26.6501743
   1.3709329  80.7369715  25.2132683   5.8814010  74.9726535  31.7401313
   6.4253914  75.5856493  31.2456267   5.3000855  75.5306113  32.2568326
   4.1671523  78.0947253  22.8716340   4.0422662  77.2936993  22.3627286
   4.8250614  78.5893446  22.3830310   6.2306431  75.8956273  24.4995890
   5.2836767  75.7761624  24.4274217   6.5789204  75.0078771  24.5822152
   3.2352864  75.6908989  20.7000243   3.0877827  74.7625697  20.8807813
   4.0606358  75.7129080  20.2157318   6.8386986  76.5137548  21.7865115
   7.7633534  76.3080409  21.6489567   6.6702290  76.2653949  22.6954457
   3.2314379  63.5446827  15.6932360   3.4477993  64.4271465  15.3921188
   2.7508446  63.1533040  14.9638002   1.6836114  63.9272428  24.3637121
   1.4253892  64.8489499  24.3621452   1.1521154  63.5302863  25.0537586
   6.6282302  77.0323215  17.1427207   6.8019180  76.4669638  16.3901059
   7.1211194  77.8324110  16.9606697   2.1038069  60.0604379  20.7238284
   2.1259766  60.1243712  19.7690264   2.5206128  59.2208887  20.9178790
  12.4821694  69.7959638  18.7617507  12.9252840  69.0466964  18.3636630
  11.6048204  69.7869775  18.3791239   9.5148898  73.7989685  15.7711436
  10.0400222  74.1376958  15.0460756   9.4271251  72.8636701  15.5874570
   1.1768947  77.7123759  27.9001312   1.4856073  77.4672906  28.7724012
   1.9744429  77.9170397  27.4120183   9.2042804  74.4322589  31.0762634
   8.4138348  74.4146728  30.5367133   8.9676159  74.9710883  31.8311670
   9.3240679  71.2815055  28.3895362   9.3738684  71.1165063  29.3310885
   9.2154603  70.4142314  27.9993243   6.6144442  67.2645983  29.7054669
   7.5154304  67.1252448  29.4138667   6.6892416  67.4300438  30.6452847
  10.8258876  73.7011997  28.6337384  10.5343684  74.0641977  29.4700845
  10.2131007  72.9879005  28.4550716  12.0254558  71.2664877  21.1539954
  12.8601450  71.7054681  21.3177514  12.1613687  70.7903530  20.3348200
   9.0746064  68.8244612  27.1017442   9.5500186  69.0172258  26.2936293
   8.1511630  68.8803797  26.8560826   3.6526281  60.8592455  26.0673276
   4.1708225  61.5953482  25.7419764   3.2981414  61.1656448  26.9020035
   3.9038875  57.2792738  21.5874172   4.1840629  56.6115927  22.2134599
   4.6889482  57.4721833  21.0748836   7.7747733  65.7010372  25.3345747
   8.7265156  65.8008469  25.3557972   7.6051184  64.9088640  25.8443832
   5.7962113  62.7865955  25.5205148   5.2012045  63.0670968  24.8251637
   5.5111809  63.2759856  26.2921890  10.2535811  68.9216491  24.4488047
  10.2212131  67.9832492  24.6347731  10.8636435  69.0000528  23.7153872
  10.4030300  65.7127535  24.4946330   9.8869348  64.9285991  24.3076259
  11.2870248  65.3846251  24.6592850   8.0641026  59.4568550  20.4542143
   7.8665848  59.1483638  21.3385475   8.6740732  60.1830189  20.5840073
  16.0712361  69.9832498  23.5894084  16.8015749  69.7217786  24.1501787
  15.4619306  69.2461220  23.6296152  14.1527658  68.1240361  24.1868535
  13.4260822  67.9896326  23.5785027  13.7374945  68.4317189  24.9925253
   1.9757834  71.8430290  31.9515908   2.8960844  72.0208889  32.1455955
   1.9407417  70.8986336  31.7995607   1.8924125  60.2599410  16.5814378
   1.0824853  59.9146495  16.9569624   2.5808542  59.9506954  17.1701989
   3.8214673  59.3377457  18.2038674   4.3745712  59.7572911  18.8628697
   4.0584759  58.4113205  18.2461630   7.1993480  61.4477982  17.7117339
   6.6192149  62.1062786  17.3295391   6.9329413  60.6255327  17.3004756
   5.6497047  60.8483040  19.9138659   6.1496825  60.9599575  19.1052978
   6.2932654  60.5444093  20.5539467   5.9818358  63.6078073  16.7673687
   5.0944213  63.8927723  16.5493882   6.3972347  63.4471836  15.9200964
   9.3332894  63.6324594  20.4828026  10.1093284  64.1221046  20.7552643
   8.6081028  64.0582648  20.9399896  11.7705453  64.3452213  21.5401967
  12.3649944  64.1047949  20.8295275  11.8432037  63.6259344  22.1675503
   5.9559382  69.1232609  16.9823977   5.8994583  69.5801160  16.1431609
   6.5087724  68.3623293  16.8046820   9.7664188  64.9122341  17.8074097
   9.5101122  64.5118976  18.6382304   9.1417056  65.6266134  17.6824236
  14.0776526  67.6518414  20.3145388  13.5176084  67.7211603  21.0876950
  13.4720029  67.4759398  19.5944884   6.6894161  70.3137390  14.2776506
   6.6342965  70.1481661  13.3364950   6.0640216  71.0213423  14.4338696
   4.0040068  72.6186302  33.6030069   4.8731228  72.7926954  33.2416704
   3.5246820  73.4380719  33.4805798   3.8142406  56.4088276  18.1107761
   3.0474802  55.8546762  18.2564444   4.2253111  56.4810144  18.9721913
  15.6632544  84.3274928  23.0075344  16.3010954  84.2081675  22.3038684
  15.5453387  85.2755772  23.0663296  12.4722250  84.2802356  22.9436868
  12.1340762  84.1643421  22.0557403  13.3412019  83.8793521  22.9237874
  12.9542033  85.4337208  28.9023074  12.9430674  85.0390006  28.0303578
  13.1162673  84.7003280  29.4956845   9.6749295  88.2174319  27.8502258
   9.3839161  89.1219950  27.7348924  10.3106279  88.2590847  28.5646327
  10.6005501  85.5951168  24.4403617  11.1969074  85.3707190  23.7260580
  10.6580473  84.8535913  25.0429065  15.2173813  82.0526382  20.0828552
  16.0036902  81.6345805  19.7318969  15.4812517  82.9572474  20.2510200
  20.6182240  81.9901615  20.9861530  21.3507412  81.4200832  21.2199360
  19.8621595  81.6023215  21.4268036  12.2358359  84.4128856  18.1824873
  11.8716567  83.8859477  18.8937794  13.0925475  84.0227325  18.0091358
  18.1407660  75.7023189  25.4456139  17.8090985  76.5718600  25.2217354
  17.5453273  75.3859473  26.1250169  14.6339180  87.9035735  24.8452052
  14.3339903  88.8060774  24.7367859  14.2890239  87.6367918  25.6973204
   8.0851661  84.3549532  20.8788756   7.1602158  84.2225746  21.0866448
   8.3336074  85.1343751  21.3758698  18.0336323  80.4218275  22.5249489
  17.1253201  80.3533683  22.2308250  17.9823919  80.8990220  23.3531314
  12.1077189  81.8407921  30.4684386  11.3310523  82.4001841  30.4587251
  12.7467752  82.3264704  30.9899256  19.8997970  78.6234713  24.3027363
  19.2572350  78.9167247  23.6567157  19.3952898  78.5087634  25.1080559
  17.5538133  82.3697887  14.9913222  18.4655990  82.6025273  14.8160920
  17.0447781  82.9534931  14.4288301  10.3623562  84.6493374  30.0302353
  11.1038246  85.1878418  29.7537177   9.6560547  85.2759663  30.1873905
  15.8378901  86.7922514  28.6274515  16.2462257  86.3504925  27.8829147
  15.1156163  86.2175142  28.8808708  12.1909971  81.7295121  26.0008072
  13.0371166  82.1534535  26.1442721  12.1308609  81.0728746  26.6946635
  16.1607716  87.3523705  22.3826804  15.5316578  87.5169419  21.6802871
  15.7733378  87.7665315  23.1537768  20.0396948  88.2878143  19.7371167
  19.3547986  88.6677044  19.1868201  20.1240797  88.8973470  20.4703115
  15.3409417  79.3899490  27.6589245  15.0970348  80.1441550  27.1223521
  15.6169347  79.7684837  28.4936492  17.2947879  85.9338102  26.3366511
  17.5064775  86.5769862  25.6600892  17.2477628  85.1000419  25.8688441
  14.8974108  78.5455923  23.2403083  14.0358587  78.8437176  23.5319821
  14.9236543  78.7626322  22.3084116  11.7135678  87.0898113  19.6476889
  12.1774023  87.3685816  18.8581511  11.4492476  86.1881558  19.4649979
   8.6059759  86.6369595  22.5856652   9.1761116  87.0656863  21.9474136
   9.1967871  86.3552179  23.2840838  10.6504564  83.2121266  16.4566454
  11.3528607  83.6642309  16.9240380  10.3185192  82.5705084  17.0846347
   9.0984925  81.8033022  30.8317663   8.4683586  82.4849303  31.0653060
   8.9921013  81.6916104  29.8870801   4.3929898  81.4704818  21.7583587
   3.6028952  81.7262347  21.2823698   4.8841145  82.2853156  21.8635628
  18.4093707  88.8110057  24.5088868  19.2311151  88.4090245  24.2271550
  18.4056110  88.7078292  25.4604984  12.1750311  88.3594101  26.6649579
  12.2394743  88.8214508  27.5007750  11.4661235  87.7291466  26.7931888
   2.6767601  81.7235309  24.1898578   2.9275639  82.6082319  24.4556154
   3.2127149  81.5439910  23.4173670  26.4999700  85.1548806  20.8573840
  25.7463409  84.5856204  20.7017844  26.6347242  85.1211470  21.8044474
   8.3765668  76.1053788  33.1942914   7.9832614  75.5519987  33.8690558
   9.1931808  76.4164366  33.5849432  11.2933629  77.5211667  30.7863171
  12.0343342  78.1218820  30.7067633  11.5251552  76.7789305  30.2281213
   6.4374967  82.7068034  29.0641400   6.3228482  81.8053292  29.3648499
   5.5819485  82.9531731  28.7126217  13.5166805  90.6485775  30.6628901
  13.0730659  89.8622153  30.3449806  14.1784018  90.8364925  29.9972792
   8.2753926  92.1781576  25.1889580   8.8261351  92.0498640  24.4166573
   7.4365402  92.4776465  24.8384472  15.6148043  90.9288575  28.6910302
  15.5966518  91.7497456  28.1990571  16.5367963  90.8042650  28.9160443
  12.0721097  88.4432704  29.5333811  12.6049434  87.6820992  29.3033119
  11.5435178  88.1506356  30.2757965  15.2390792  73.5492770  25.0627452
  14.8955061  74.4394412  24.9866563  15.6069755  73.3594428  24.1997037
  15.2041075  83.5401381  13.5699888  14.6887698  84.3105986  13.8088275
  14.9318383  82.8666517  14.1932949  12.7888186  78.3851082  18.6285126
  11.9329782  77.9957932  18.4490765  13.2015137  78.4643043  17.7684911
  14.3187332  75.9197425  23.0276686  13.8152128  75.8827560  22.2144491
  14.6117939  76.8290168  23.0873342  10.5630218  76.0036155  22.0342867
  11.4283215  75.8078964  21.6748757  10.6307727  75.7746507  22.9612224
  20.1775349  86.2933736  15.5053061  19.4004792  85.9544895  15.0608223
  20.8566830  86.2986359  14.8308026  14.9927378  81.4128473  15.3959669
  14.6877513  81.7274622  16.2469812  15.9457820  81.4909893  15.4387002
  18.4166656  85.7667717  22.1619669  17.7590330  86.4566978  22.2499798
  19.2207055  86.1564149  22.5053655   8.1692537  78.2338363  19.4059234
   8.7436289  78.0113544  18.6732427   8.7563520  78.3027057  20.1587836
  17.2272114  84.1212090  20.2123611  17.7403996  84.7542082  20.7145320
  17.8773338  83.5213285  19.8466971  10.4715205  75.1079612  18.1334304
   9.8179617  74.7928629  17.5090918  10.4295679  74.4855352  18.8594127
  13.7052945  81.5961545  22.4581951  12.7875507  81.8176492  22.3003639
  14.1213089  81.6707856  21.5993659  14.4887993  82.9952961  17.5884632
  15.2359812  83.5074358  17.2791754  14.7579583  82.6737014  18.4489025
  17.9933911  89.1018091  18.3402753  17.5396238  88.2609001  18.3967944
  17.3627877  89.7379490  18.6777534  16.9366830  80.0310077  19.5703421
  16.1989587  79.5187463  19.9013663  17.1893604  79.5910459  18.7586698
  16.4366850  90.9394588  19.2752572  16.7289824  91.4999645  18.5564937
  16.9465471  91.2323149  20.0305731  17.0378458  72.8086329  20.1645190
  17.3437334  71.9483693  19.8771105  17.7631062  73.4003949  19.9644184
  11.3099537  83.1040122  20.6721381  11.3648147  82.1513959  20.5963858
  10.4990739  83.2599561  21.1562680   9.2491897  81.7217182  18.4311760
   8.4359763  82.0211353  18.8376952   9.7450891  81.3272871  19.1486242
  14.8466109  82.1859007  27.2626654  15.2015497  82.4130480  28.1221120
  15.4938240  82.5177383  26.6403909  20.5763846  85.3077442  17.9675983
  20.4381744  85.4979038  17.0397172  20.2200065  86.0696825  18.4244034
   8.7405972  79.2935538  24.0472995   9.3805351  79.1524297  23.3495958
   7.9083503  79.0070051  23.6711597  20.6033225  87.3753969  22.9787254
  21.0369732  87.2829259  23.8270309  21.3164806  87.3511470  22.3407270
  14.3361120  90.9756064  24.5120355  14.3898143  91.5447000  25.2798071
  13.4675902  91.1457949  24.1474392   5.7434588  79.2635863  18.8245982
   6.0041406  80.1781196  18.7155142   6.5651761  78.7960305  18.9742595
   7.2159514  80.6773620  25.9944806   7.8882567  80.4690982  25.3457455
   6.3889300  80.4795706  25.5550039  21.4648775  87.4177670  25.5120140
  21.6584665  88.3223481  25.7579415  21.3649393  86.9585089  26.3458725
  13.1185086  77.3035561  28.0110467  12.4713001  78.0025510  27.9174944
  13.8886101  77.7371705  28.3786715  16.5263884  87.5684413  31.0861020
  16.3749390  87.3394965  30.1691104  16.5168563  88.5255014  31.0992365
  13.2949220  85.1416326  26.0707287  14.2241280  85.2927485  25.8976254
  12.8740250  85.2300346  25.2155933  12.0937552  89.1666990  23.8405825
  11.9548638  88.7985774  24.7131763  11.3052148  89.6814629  23.6689782
  13.6442767  88.5448593  21.2294662  13.3092600  88.5049363  22.1252312
  13.1446713  87.8793309  20.7565073   7.6187011  83.9516223  26.7547243
   7.4806809  83.2196462  27.3558783   8.5291934  83.8625123  26.4731431
  10.2469312  83.6636182  26.2430923  10.9568930  83.0229374  26.2017542
  10.2038620  83.9149077  27.1657104  18.2356090  90.6003535  29.1637502
  18.1768637  89.9162756  28.4968085  18.6375609  91.3422525  28.7118128
   8.9598246  80.6501400  28.0626563   8.4235603  80.1992138  28.7148159
   8.3714954  80.7847309  27.3197027  18.2373498  88.5643119  27.3951482
  17.3500276  88.2269041  27.5177881  18.8072049  87.8326151  27.6320247
   4.6937367  79.7857408  25.1479557   4.6095556  79.1783077  24.4129967
   3.8720073  80.2766426  25.1489053  11.7674651  93.2244572  24.3612725
  11.6944822  94.0299543  24.8732030  11.3252044  93.4236537  23.5360747
  14.8661081  78.2710971  20.5149752  15.3629780  77.5180933  20.1950822
  14.0948062  78.3075288  19.9492961  22.7190838  83.9751337  22.1568044
  22.7080714  84.8576052  21.7861977  21.8508218  83.6222888  21.9622581
  14.2273335  93.1231406  26.5170884  14.9401307  93.7578871  26.4446785
  13.7363363  93.2195272  25.7010886  15.9490861  87.0282658  18.0888176
  15.0147140  87.1484121  17.9192880  16.1267530  86.1255125  17.8248185
  11.4496050  80.4128354  20.2421437  11.0793837  79.8599395  20.9302342
  11.9455142  79.8086488  19.6896437  19.3363413  82.8699978  18.6238210
  19.8023865  83.7027969  18.5498512  19.7870913  82.4044959  19.3283468
   9.2785248  90.8725849  27.3376455   9.9794708  91.5062332  27.4905849
   8.8080363  91.2140581  26.5772094  17.4039644  89.2143799  15.6224362
  17.6799488  89.1000394  16.5318236  16.5344143  88.8161284  15.5836535
  17.3080076  75.2380565  22.6629111  16.3943155  75.4684791  22.8311318
  17.7373177  75.3219009  23.5143143  17.0786534  83.4270457  25.1629005
  16.4257984  83.6746364  24.5081458  17.4566914  82.6134595  24.8291482
  14.0393708  93.4630150  19.2657175  14.2216102  92.6451806  19.7284928
  14.8626694  93.6797842  18.8282065  13.1274107  84.1690268  31.6495042
  12.4514744  84.0684397  32.3197417  13.9501741  84.0129481  32.1131039
  11.8696890  95.4757195  25.8852658  12.4215198  95.6388817  26.6501743
  12.2103083  96.0661633  25.2132683   6.8461383  77.8232345  26.4874543
   6.9102710  78.6847176  26.0751941   6.7828503  77.2106347  25.7546901
   6.3213656  79.8955477  30.1347577   6.9485695  79.5132555  30.7485101
   5.4641575  79.6769679  30.5003270  16.7207764  90.3018453  31.7401313
  17.2647668  90.9148411  31.2456267  16.1394609  90.8598031  32.2568326
  15.0065277  93.4239171  22.8716340  14.8816417  92.6228910  22.3627286
  15.6644368  93.9185364  22.3830310   6.6273445  79.7787903  22.0493481
   5.9060031  80.3923871  21.9100954   7.4166701  80.3145668  21.9710126
  17.0700186  91.2248191  24.4995890  16.1230521  91.1053542  24.4274217
  17.4182959  90.3370689  24.5822152   9.4299759  77.1142330  28.3234132
   9.9534161  77.3604626  29.0860442   9.2112092  77.9462364  27.9037270
  14.0746619  91.0200907  20.7000243  13.9271581  90.0917614  20.8807813
  14.9000112  91.0420998  20.2157318  17.6780741  91.8429466  21.7865115
  18.6027288  91.6372327  21.6489567  17.5096044  91.5945867  22.6954457
  10.6352304  78.0556025  26.0083803  10.2949124  77.2563838  26.4104483
   9.9291310  78.3557736  25.4360636  11.2868776  75.1405337  24.4611126
  12.1094845  74.6665815  24.3390016  11.5306839  75.9195821  24.9609812
   9.9277010  78.1693596  14.7574028  10.6485373  78.5474848  14.2537744
   9.3042314  78.8882472  14.8609005  14.0708133  78.8738745  15.6932360
  14.2871748  79.7563382  15.3921188  13.5902200  78.4824958  14.9638002
   8.8107355  81.8324458  22.2703104   8.6651935  82.1464761  23.1627386
   8.3332558  82.4509358  21.7174003  10.6703737  78.8227006  22.3183994
  10.6565306  77.9268099  21.9816292  11.3876166  78.8297670  22.9522280
  12.5229868  79.2564346  24.3637121  12.2647646  80.1781417  24.3621452
  11.9914909  78.8594781  25.0537586  17.4676057  92.3615133  17.1427207
  17.6412934  91.7961556  16.3901059  17.9604948  93.1616028  16.9606697
   3.2853017  84.3729802  25.2090766   2.7406485  85.1489610  25.3411040
   4.1632367  84.7200607  25.0509887  10.0740633  77.7041386  17.5871564
  10.1956545  76.7758032  17.7862452   9.7842676  77.7180072  16.6749880
  12.9431824  75.3896297  20.7238284  12.9653521  75.4535630  19.7690264
  13.3599883  74.5500805  20.9178790  23.3215448  85.1251556  18.7617507
  23.7646594  84.3758881  18.3636630  22.4441958  85.1161692  18.3791239
   4.0719039  83.4999698  28.1020922   3.3300775  83.6482334  28.6885553
   3.7511783  83.7607964  27.2387672  20.3542653  89.1281603  15.7711436
  20.8793977  89.4668876  15.0460756  20.2665005  88.1928618  15.5874570
  12.0162701  93.0415677  27.9001312  12.3249828  92.7964823  28.7724012
  12.8138183  93.2462315  27.4120183   9.4857185  90.7391595  22.2028991
   8.8637195  90.0762300  21.9031219  10.1562052  90.7652727  21.5202638
   9.5581713  79.2173383  31.7961497   9.6069868  80.0935506  31.4139266
  10.1004227  78.6750776  31.2233140  20.0436559  89.7614507  31.0762634
  19.2532102  89.7438646  30.5367133  19.8069913  90.3002800  31.8311670
  20.1634434  86.6106973  28.3895362  20.2132439  86.4456981  29.3310885
  20.0548357  85.7434232  27.9993243  17.4538196  82.5937901  29.7054669
  18.3548059  82.4544366  29.4138667  17.5286171  82.7592356  30.6452847
  11.7881001  79.9704756  28.5507855  10.9184311  80.2638322  28.2790444
  12.0240482  80.5545201  29.2715119  21.6652631  89.0303915  28.6337384
  21.3737439  89.3933895  29.4700845  21.0524762  88.3170923  28.4550716
  22.8648313  86.5956794  21.1539954  23.6995204  87.0346598  21.3177514
  23.0007442  86.1195448  20.3348200  19.9139819  84.1536529  27.1017442
  20.3893940  84.3464176  26.2936293  18.9905384  84.2095715  26.8560826
  14.4920035  76.1884373  26.0673276  15.0101979  76.9245400  25.7419764
  14.1375168  76.4948366  26.9020035  14.7432629  72.6084655  21.5874172
  15.0234383  71.9407844  22.2134599  15.5283236  72.8013751  21.0748836
  18.6141488  81.0302289  25.3345747  19.5658911  81.1300387  25.3557972
  18.4444938  80.2380558  25.8443832  16.6355867  78.1157873  25.5205148
  16.0405799  78.3962885  24.8251637  16.3505564  78.6051773  26.2921890
  21.0929566  84.2508409  24.4488047  21.0605886  83.3124410  24.6347731
  21.7030189  84.3292446  23.7153872  21.2424054  81.0419452  24.4946330
  20.7263103  80.2577909  24.3076259  22.1264003  80.7138169  24.6592850
  18.9034781  74.7860468  20.4542143  18.7059602  74.4775556  21.3385475
  19.5134487  75.5122107  20.5840073  26.9106115  85.3124416  23.5894084
  27.6409504  85.0509704  24.1501787  26.3013061  84.5753138  23.6296152
  24.9921413  83.4532278  24.1868535  24.2654576  83.3188243  23.5785027
  24.5768699  83.7609107  24.9925253  12.8151589  87.1722208  31.9515908
  13.7354598  87.3500807  32.1455955  12.7801172  86.2278253  31.7995607
   5.8113661  85.0823243  24.5938689   6.0299671  86.0140351  24.6126723
   6.2239435  84.7231217  25.3793493  12.7317879  75.5891328  16.5814378
  11.9218608  75.2438413  16.9569624  13.4202296  75.2798872  17.1701989
  14.6608428  74.6669375  18.2038674  15.2139466  75.0864828  18.8628697
  14.8978514  73.7405123  18.2461630  10.6841527  80.6556449  33.9841438
  10.5838254  81.6050805  33.9153529  10.4663069  80.3274687  33.1117508
  18.0387235  76.7769900  17.7117339  17.4585904  77.4354704  17.3295391
  17.7723167  75.9547245  17.3004756  16.4890801  76.1774958  19.9138659
  16.9890579  76.2891492  19.1052978  17.1326409  75.8736011  20.5539467
  10.5472797  84.0853587  32.8006500  10.0639879  84.8853947  33.0070389
  10.6333736  84.0961532  31.8473944   6.4746134  87.9758122  24.8374934
   7.4289388  87.9442064  24.7704865   6.2758658  87.5148746  25.6525160
   7.0645516  86.5459238  27.4045731   7.8838405  87.0403317  27.4280569
   7.3382324  85.6291206  27.3763299  16.8212113  78.9369990  16.7673687
  15.9337968  79.2219641  16.5493882  17.2366102  78.7763754  15.9200964
  20.1726649  78.9616511  20.4828026  20.9487039  79.4512964  20.7552643
  19.4474783  79.3874566  20.9399896  22.6099207  79.6744131  21.5401967
  23.2043698  79.4339867  20.8295275  22.6825791  78.9551261  22.1675503
  16.7953136  84.4524526  16.9823977  16.7388338  84.9093078  16.1431609
  17.3481479  83.6915211  16.8046820  20.6057942  80.2414258  17.8074097
  20.3494877  79.8410894  18.6382304  19.9810810  80.9558052  17.6824236
  24.9170280  82.9810331  20.3145388  24.3569838  83.0503521  21.0876950
  24.3113784  82.8051316  19.5944884  17.5287916  85.6429308  14.2776506
  17.4736720  85.4773579  13.3364950  16.9033971  86.3505340  14.4338696
   2.3180431  80.8797372  28.1037928   2.9639294  80.3696326  28.5925154
   2.1097582  81.6166054  28.6781354  14.8433823  87.9478219  33.6030069
  15.7124983  88.1218872  33.2416704  14.3640574  88.7672636  33.4805798
  10.8384041  75.1437417  13.8561825  10.8262711  76.0879257  14.0130095
  11.7307463  74.9607562  13.5621286   9.0120003  95.0675320  25.2819503
   9.9147250  95.0998931  25.5985998   8.7857373  94.1375771  25.2965838
  14.6536161  71.7380193  18.1107761  13.8868556  71.1838680  18.2564444
  15.0646866  71.8102062  18.9721913   6.6577922  78.0264989  32.2012943
   7.5209383  77.6701794  32.4116267   6.0843332  77.6878884  32.8888347
  26.5026299  99.6566845  23.0075344  27.1404709  99.5373593  22.3038684
  26.3847142 100.6047689  23.0663296  23.3116005  99.6094273  22.9436868
  22.9734516  99.4935338  22.0557403  24.1805773  99.2085439  22.9237874
  23.7935788 100.7629125  28.9023074  23.7824429 100.3681923  28.0303578
  23.9556427 100.0295198  29.4956845  20.5143049 103.5466237  27.8502258
  20.2232915 104.4511868  27.7348924  21.1500033 103.5882765  28.5646327
  21.4399256 100.9243086  24.4403617  22.0362828 100.6999108  23.7260580
  21.4974227 100.1827831  25.0429065  26.0567567  97.3818299  20.0828552
  26.8430656  96.9637722  19.7318969  26.3206271  98.2864391  20.2510200
  31.4575994  97.3193532  20.9861530  32.1901166  96.7492749  21.2199360
  30.7015350  96.9315133  21.4268036  23.0752114  99.7420774  18.1824873
  22.7110321  99.2151395  18.8937794  23.9319230  99.3519243  18.0091358
  28.9801415  91.0315107  25.4456139  28.6484739  91.9010518  25.2217354
  28.3847028  90.7151391  26.1250169  25.4732934 103.2327653  24.8452052
  25.1733657 104.1352691  24.7367859  25.1283994 102.9659836  25.6973204
  18.9245416  99.6841449  20.8788756  17.9995912  99.5517663  21.0866448
  19.1729829 100.4635669  21.3758698  28.8730078  95.7510193  22.5249489
  27.9646955  95.6825601  22.2308250  28.8217674  96.2282138  23.3531314
  22.9470944  97.1699838  30.4684386  22.1704278  97.7293758  30.4587251
  23.5861507  97.6556621  30.9899256  30.7391724  93.9526631  24.3027363
  30.0966105  94.2459164  23.6567157  30.2346653  93.8379551  25.1080559
  28.3931888  97.6989804  14.9913222  29.3049744  97.9317191  14.8160920
  27.8841535  98.2826849  14.4288301  21.2017316  99.9785292  30.0302353
  21.9432000 100.5170336  29.7537177  20.4954301 100.6051580  30.1873905
  26.6772656 102.1214432  28.6274515  27.0856012 101.6796843  27.8829147
  25.9549917 101.5467060  28.8808708  23.0303726  97.0587039  26.0008072
  23.8764921  97.4826452  26.1442721  22.9702363  96.4020663  26.6946635
  27.0001470 102.6815623  22.3826804  26.3710333 102.8461337  21.6802871
  26.6127132 103.0957232  23.1537768  30.8790702 103.6170061  19.7371167
  30.1941740 103.9968962  19.1868201  30.9634551 104.2265387  20.4703115
  26.1803171  94.7191407  27.6589245  25.9364103  95.4733468  27.1223521
  26.4563102  95.0976755  28.4936492  28.1341634 101.2630020  26.3366511
  28.3458529 101.9061780  25.6600892  28.0871382 100.4292336  25.8688441
  25.7367863  93.8747840  23.2403083  24.8752342  94.1729094  23.5319821
  25.7630297  94.0918239  22.3084116  22.5529432 102.4190031  19.6476889
  23.0167778 102.6977734  18.8581511  22.2886230 101.5173475  19.4649979
  19.4453513 101.9661512  22.5856652  20.0154870 102.3948781  21.9474136
  20.0361625 101.6844097  23.2840838  21.4898318  98.5413183  16.4566454
  22.1922362  98.9934227  16.9240380  21.1578947  97.8997002  17.0846347
  19.9378680  97.1324940  30.8317663  19.3077340  97.8141221  31.0653060
  19.8314768  97.0208021  29.8870801  15.2323652  96.7996736  21.7583587
  14.4422706  97.0554264  21.2823698  15.7234900  97.6145074  21.8635628
  29.2487462 104.1401975  24.5088868  30.0704905 103.7382162  24.2271550
  29.2449865 104.0370209  25.4604984  23.0144065 103.6886018  26.6649579
  23.0788498 104.1506426  27.5007750  22.3054989 103.0583383  26.7931888
  13.5161355  97.0527226  24.1898578  13.7669394  97.9374236  24.4556154
  14.0520904  96.8731828  23.4173670  37.3393455 100.4840724  20.8573840
  36.5857163  99.9148122  20.7017844  37.4740996 100.4503388  21.8044474
  19.2159422  91.4345706  33.1942914  18.8226368  90.8811904  33.8690558
  20.0325563  91.7456284  33.5849432  22.1327383  92.8503585  30.7863171
  22.8737097  93.4510738  30.7067633  22.3645306  92.1081223  30.2281213
  17.2768721  98.0359952  29.0641400  17.1622237  97.1345209  29.3648499
  16.4213239  98.2823649  28.7126217  24.3560559 105.9777692  30.6628901
  23.9124413 105.1914071  30.3449806  25.0177773 106.1656843  29.9972792
  19.1147680 107.5073494  25.1889580  19.6655106 107.3790557  24.4166573
  18.2759156 107.8068383  24.8384472  26.4541797 106.2580492  28.6910302
  26.4360273 107.0789373  28.1990571  27.3761717 106.1334568  28.9160443
  22.9114851 103.7724622  29.5333811  23.4443188 103.0112910  29.3033119
  22.3828933 103.4798274  30.2757965  26.0784546  88.8784688  25.0627452
  25.7348816  89.7686329  24.9866563  26.4463509  88.6886345  24.1997037
  26.0434829  98.8693299  13.5699888  25.5281453  99.6397903  13.8088275
  25.7712138  98.1958435  14.1932949  23.6281940  93.7143000  18.6285126
  22.7723536  93.3249850  18.4490765  24.0408892  93.7934960  17.7684911
  25.1581087  91.2489343  23.0276686  24.6545882  91.2119478  22.2144491
  25.4511694  92.1582086  23.0873342  21.4023973  91.3328073  22.0342867
  22.2676969  91.1370881  21.6748757  21.4701482  91.1038424  22.9612224
  31.0169103 101.6225653  15.5053061  30.2398546 101.2836813  15.0608223
  31.6960584 101.6278277  14.8308026  25.8321132  96.7420391  15.3959669
  25.5271268  97.0566540  16.2469812  26.7851574  96.8201811  15.4387002
  29.2560410 101.0959635  22.1619669  28.5984085 101.7858896  22.2499798
  30.0600809 101.4856067  22.5053655  19.0086292  93.5630281  19.4059234
  19.5830044  93.3405462  18.6732427  19.5957274  93.6318975  20.1587836
  28.0665869  99.4504007  20.2123611  28.5797751 100.0833999  20.7145320
  28.7167093  98.8505203  19.8466971  21.3108959  90.4371529  18.1334304
  20.6573372  90.1220547  17.5090918  21.2689434  89.8147270  18.8594127
  24.5446700  96.9253463  22.4581951  23.6269261  97.1468410  22.3003639
  24.9606843  96.9999773  21.5993659  25.3281748  98.3244879  17.5884632
  26.0753567  98.8366276  17.2791754  25.5973337  98.0028931  18.4489025
  28.8327665 104.4310009  18.3402753  28.3789992 103.5900919  18.3967944
  28.2021632 105.0671407  18.6777534  27.7760585  95.3601995  19.5703421
  27.0383342  94.8479381  19.9013663  28.0287358  94.9202377  18.7586698
  27.2760604 106.2686506  19.2752572  27.5683579 106.8291563  18.5564937
  27.7859225 106.5615067  20.0305731  27.8772212  88.1378247  20.1645190
  28.1831089  87.2775610  19.8771105  28.6024817  88.7295867  19.9644184
  22.1493292  98.4332040  20.6721381  22.2041902  97.4805876  20.5963858
  21.3384494  98.5891479  21.1562680  20.0885652  97.0509100  18.4311760
  19.2753517  97.3503270  18.8376952  20.5844646  96.6564788  19.1486242
  25.6859863  97.5150924  27.2626654  26.0409251  97.7422397  28.1221120
  26.3331995  97.8469301  26.6403909  31.4157600 100.6369360  17.9675983
  31.2775499 100.8270956  17.0397172  31.0593819 101.3988743  18.4244034
  19.5799726  94.6227455  24.0472995  20.2199106  94.4816214  23.3495958
  18.7477257  94.3361969  23.6711597  31.4426980 102.7045887  22.9787254
  31.8763487 102.6121176  23.8270309  32.1558561 102.6803388  22.3407270
  25.1754875 106.3047981  24.5120355  25.2291897 106.8738918  25.2798071
  24.3069656 106.4749866  24.1474392  16.5828343  94.5927780  18.8245982
  16.8435160  95.5073113  18.7155142  17.4045515  94.1252223  18.9742595
  18.0553268  96.0065537  25.9944806  18.7276322  95.7982900  25.3457455
  17.2283055  95.8087623  25.5550039  32.3042530 102.7469588  25.5120140
  32.4978420 103.6515398  25.7579415  32.2043148 102.2877007  26.3458725
  23.9578840  92.6327478  28.0110467  23.3106755  93.3317428  27.9174944
  24.7279856  93.0663622  28.3786715  27.3657638 102.8976330  31.0861020
  27.2143145 102.6686882  30.1691104  27.3562318 103.8546932  31.0992365
  24.1342975 100.4708243  26.0707287  25.0635035 100.6219403  25.8976254
  23.7134005 100.5592264  25.2155933  22.9331306 104.4958908  23.8405825
  22.7942392 104.1277692  24.7131763  22.1445903 105.0106547  23.6689782
  24.4836522 103.8740510  21.2294662  24.1486354 103.8341280  22.1252312
  23.9840467 103.2085226  20.7565073  18.4580765  99.2808140  26.7547243
  18.3200563  98.5488379  27.3558783  19.3685689  99.1917040  26.4731431
  21.0863066  98.9928100  26.2430923  21.7962685  98.3521292  26.2017542
  21.0432374  99.2440995  27.1657104  29.0749845 105.9295453  29.1637502
  29.0162391 105.2454673  28.4968085  29.4769363 106.6714443  28.7118128
  19.7992000  95.9793318  28.0626563  19.2629357  95.5284056  28.7148159
  19.2108709  96.1139226  27.3197027  29.0767252 103.8935037  27.3951482
  28.1894031 103.5560959  27.5177881  29.6465803 103.1618068  27.6320247
  15.5331121  95.1149325  25.1479557  15.4489310  94.5074995  24.4129967
  14.7113828  95.6058344  25.1489053  22.6068406 108.5536489  24.3612725
  22.5338577 109.3591461  24.8732030  22.1645799 108.7528455  23.5360747
  25.7054835  93.6002889  20.5149752  26.2023535  92.8472851  20.1950822
  24.9341817  93.6367205  19.9492961  33.5584593  99.3043254  22.1568044
  33.5474469 100.1867970  21.7861977  32.6901972  98.9514805  21.9622581
  25.0667089 108.4523323  26.5170884  25.7795061 109.0870788  26.4446785
  24.5757118 108.5487189  25.7010886  26.7884616 102.3574576  18.0888176
  25.8540895 102.4776039  17.9192880  26.9661284 101.4547043  17.8248185
  22.2889804  95.7420272  20.2421437  21.9187592  95.1891312  20.9302342
  22.7848896  95.1378405  19.6896437  30.1757167  98.1991895  18.6238210
  30.6417619  99.0319887  18.5498512  30.6264668  97.7336877  19.3283468
  20.1179003 106.2017767  27.3376455  20.8188462 106.8354250  27.4905849
  19.6474118 106.5432498  26.5772094  28.2433398 104.5435717  15.6224362
  28.5193242 104.4292311  16.5318236  27.3737897 104.1453201  15.5836535
  28.1473830  90.5672482  22.6629111  27.2336910  90.7976709  22.8311318
  28.5766931  90.6510926  23.5143143  27.9180289  98.7562374  25.1629005
  27.2651739  99.0038282  24.5081458  28.2960668  97.9426512  24.8291482
  24.8787462 108.7922067  19.2657175  25.0609857 107.9743723  19.7284928
  25.7020448 109.0089760  18.8282065  23.9667862  99.4982185  31.6495042
  23.2908499  99.3976315  32.3197417  24.7895495  99.3421399  32.1131039
  22.7090644 110.8049113  25.8852658  23.2608952 110.9680734  26.6501743
  23.0496838 111.3953551  25.2132683  17.6855138  93.1524263  26.4874543
  17.7496464  94.0139093  26.0751941  17.6222258  92.5398264  25.7546901
  17.1607410  95.2247395  30.1347577  17.7879449  94.8424472  30.7485101
  16.3035329  95.0061597  30.5003270  27.5601519 105.6310370  31.7401313
  28.1041423 106.2440329  31.2456267  26.9788364 106.1889949  32.2568326
  25.8459032 108.7531088  22.8716340  25.7210171 107.9520828  22.3627286
  26.5038123 109.2477282  22.3830310  17.4667200  95.1079821  22.0493481
  16.7453786  95.7215789  21.9100954  18.2560456  95.6437586  21.9710126
  27.9093940 106.5540108  24.4995890  26.9624276 106.4345460  24.4274217
  28.2576713 105.6662606  24.5822152  20.2693513  92.4434247  28.3234132
  20.7927915  92.6896544  29.0860442  20.0505847  93.2754282  27.9037270
  24.9140373 106.3492825  20.7000243  24.7665336 105.4209532  20.8807813
  25.7393867 106.3712915  20.2157318  28.5174495 107.1721383  21.7865115
  29.4421043 106.9664245  21.6489567  28.3489799 106.9237785  22.6954457
  21.4746059  93.3847942  26.0083803  21.1342879  92.5855755  26.4104483
  20.7685065  93.6849653  25.4360636  22.1262530  90.4697255  24.4611126
  22.9488600  89.9957733  24.3390016  22.3700594  91.2487739  24.9609812
  20.7670765  93.4985513  14.7574028  21.4879127  93.8766766  14.2537744
  20.1436069  94.2174390  14.8609005  24.9101888  94.2030662  15.6932360
  25.1265502  95.0855300  15.3921188  24.4295955  93.8116876  14.9638002
  19.6501109  97.1616375  22.2703104  19.5045690  97.4756679  23.1627386
  19.1726313  97.7801276  21.7174003  21.5097492  94.1518923  22.3183994
  21.4959061  93.2560017  21.9816292  22.2269920  94.1589587  22.9522280
  23.3623623  94.5856264  24.3637121  23.1041401  95.5073334  24.3621452
  22.8308663  94.1886698  25.0537586  28.3069811 107.6907051  17.1427207
  28.4806689 107.1253473  16.3901059  28.7998703 108.4907946  16.9606697
  14.1246771  99.7021720  25.2090766  13.5800239 100.4781528  25.3411040
  15.0026121 100.0492524  25.0509887  20.9134388  93.0333304  17.5871564
  21.0350299  92.1049950  17.7862452  20.6236430  93.0471990  16.6749880
  23.7825578  90.7188214  20.7238284  23.8047275  90.7827547  19.7690264
  24.1993637  89.8792723  20.9178790  34.1609203 100.4543474  18.7617507
  34.6040349  99.7050799  18.3636630  33.2835713 100.4453610  18.3791239
  14.9112793  98.8291616  28.1020922  14.1694529  98.9774252  28.6885553
  14.5905537  99.0899882  27.2387672  31.1936407 104.4573521  15.7711436
  31.7187731 104.7960793  15.0460756  31.1058760 103.5220536  15.5874570
  22.8556456 108.3707594  27.9001312  23.1643582 108.1256741  28.7724012
  23.6531938 108.5754233  27.4120183  20.3250940 106.0683513  22.2028991
  19.7030949 105.4054218  21.9031219  20.9955807 106.0944645  21.5202638
  20.3975467  94.5465301  31.7961497  20.4463623  95.4227424  31.4139266
  20.9397982  94.0042694  31.2233140  30.8830313 105.0906424  31.0762634
  30.0925857 105.0730563  30.5367133  30.6463668 105.6294718  31.8311670
  31.0028188 101.9398891  28.3895362  31.0526193 101.7748898  29.3310885
  30.8942112 101.0726150  27.9993243  28.2931951  97.9229819  29.7054669
  29.1941813  97.7836284  29.4138667  28.3679925  98.0884274  30.6452847
  22.6274756  95.2996674  28.5507855  21.7578065  95.5930240  28.2790444
  22.8634236  95.8837119  29.2715119  32.5046385 104.3595832  28.6337384
  32.2131193 104.7225813  29.4700845  31.8918516 103.6462841  28.4550716
  33.7042067 101.9248712  21.1539954  34.5388959 102.3638516  21.3177514
  33.8401196 101.4487365  20.3348200  30.7533573  99.4828447  27.1017442
  31.2287695  99.6756093  26.2936293  29.8299139  99.5387633  26.8560826
  25.3313790  91.5176290  26.0673276  25.8495734  92.2537317  25.7419764
  24.9768922  91.8240284  26.9020035  25.5826384  87.9376573  21.5874172
  25.8628138  87.2699762  22.2134599  26.3676991  88.1305669  21.0748836
  29.4535242  96.3594207  25.3345747  30.4052665  96.4592305  25.3557972
  29.2838693  95.5672476  25.8443832  27.4749622  93.4449790  25.5205148
  26.8799554  93.7254803  24.8251637  27.1899318  93.9343691  26.2921890
  31.9323320  99.5800327  24.4488047  31.8999640  98.6416327  24.6347731
  32.5423944  99.6584363  23.7153872  32.0817809  96.3711370  24.4946330
  31.5656857  95.5869827  24.3076259  32.9657757  96.0430087  24.6592850
  29.7428535  90.1152386  20.4542143  29.5453357  89.8067474  21.3385475
  30.3528241  90.8414025  20.5840073  37.7499870 100.6416334  23.5894084
  38.4803258 100.3801622  24.1501787  37.1406815  99.9045055  23.6296152
  35.8315167  98.7824196  24.1868535  35.1048331  98.6480161  23.5785027
  35.4162454  99.0901025  24.9925253  23.6545343 102.5014126  31.9515908
  24.5748353 102.6792725  32.1455955  23.6194926 101.5570171  31.7995607
  16.6507416 100.4115160  24.5938689  16.8693426 101.3432268  24.6126723
  17.0633190 100.0523135  25.3793493  23.5711634  90.9183246  16.5814378
  22.7612362  90.5730331  16.9569624  24.2596051  90.6090789  17.1701989
  25.5002182  89.9961293  18.2038674  26.0533221  90.4156746  18.8628697
  25.7372268  89.0697041  18.2461630  21.5235281  95.9848366  33.9841438
  21.4232008  96.9342723  33.9153529  21.3056823  95.6566605  33.1117508
  28.8780989  92.1061818  17.7117339  28.2979658  92.7646622  17.3295391
  28.6116922  91.2839162  17.3004756  27.3284556  91.5066875  19.9138659
  27.8284334  91.6183410  19.1052978  27.9720163  91.2027928  20.5539467
  21.3866551  99.4145505  32.8006500  20.9033633 100.2145865  33.0070389
  21.4727490  99.4253450  31.8473944  17.3139889 103.3050040  24.8374934
  18.2683142 103.2733982  24.7704865  17.1152412 102.8440663  25.6525160
  17.9039271 101.8751156  27.4045731  18.7232160 102.3695234  27.4280569
  18.1776079 100.9583124  27.3763299  27.6605867  94.2661908  16.7673687
  26.7731722  94.5511559  16.5493882  28.0759856  94.1055671  15.9200964
  31.0120403  94.2908429  20.4828026  31.7880793  94.7804882  20.7552643
  30.2868537  94.7166483  20.9399896  33.4492962  95.0036048  21.5401967
  34.0437453  94.7631784  20.8295275  33.5219546  94.2843179  22.1675503
  27.6346891  99.7816444  16.9823977  27.5782092 100.2384995  16.1431609
  28.1875233  99.0207129  16.8046820  31.4451697  95.5706176  17.8074097
  31.1888631  95.1702812  18.6382304  30.8204565  96.2849970  17.6824236
  35.7564035  98.3102249  20.3145388  35.1963593  98.3795438  21.0876950
  35.1507538  98.1343234  19.5944884  28.3681670 100.9721225  14.2776506
  28.3130474 100.8065497  13.3364950  27.7427725 101.6797258  14.4338696
  13.1574185  96.2089290  28.1037928  13.8033049  95.6988244  28.5925154
  12.9491336  96.9457971  28.6781354  25.6827577 103.2770137  33.6030069
  26.5518737 103.4510789  33.2416704  25.2034329 104.0964554  33.4805798
  21.6777796  90.4729334  13.8561825  21.6656465  91.4171174  14.0130095
  22.5701218  90.2899480  13.5621286  19.8513758 110.3967238  25.2819503
  20.7541004 110.4290848  25.5985998  19.6251128 109.4667689  25.2965838
  25.4929915  87.0672111  18.1107761  24.7262311  86.5130598  18.2564444
  25.9040620  87.1393980  18.9721913  17.4971676  93.3556907  32.2012943
  18.3603138  92.9993712  32.4116267  16.9237087  93.0170802  32.8888347
  37.3420053 114.9858763  23.0075344  37.9798463 114.8665510  22.3038684
  37.2240896 115.9339607  23.0663296  34.1509759 114.9386191  22.9436868
  33.8128271 114.8227256  22.0557403  35.0199528 114.5377356  22.9237874
  34.6329542 116.0921043  28.9023074  34.6218183 115.6973841  28.0303578
  34.7950182 115.3587116  29.4956845  36.8961322 112.7110217  20.0828552
  37.6824411 112.2929640  19.7318969  37.1600026 113.6156309  20.2510200
  42.2969749 112.6485450  20.9861530  43.0294921 112.0784667  21.2199360
  41.5409104 112.2607051  21.4268036  33.9145868 115.0712692  18.1824873
  33.5504076 114.5443313  18.8937794  34.7712984 114.6811161  18.0091358
  39.8195169 106.3607024  25.4456139  39.4878494 107.2302435  25.2217354
  39.2240782 106.0443308  26.1250169  39.7123832 111.0802110  22.5249489
  38.8040710 111.0117519  22.2308250  39.6611428 111.5574055  23.3531314
  33.7864698 112.4991756  30.4684386  33.0098032 113.0585676  30.4587251
  34.4255261 112.9848539  30.9899256  41.5785479 109.2818549  24.3027363
  40.9359859 109.5751082  23.6567157  41.0740407 109.1671469  25.1080559
  39.2325642 113.0281722  14.9913222  40.1443499 113.2609109  14.8160920
  38.7235290 113.6118766  14.4288301  37.5166410 117.4506350  28.6274515
  37.9249766 117.0088760  27.8829147  36.7943672 116.8758977  28.8808708
  33.8697480 112.3878957  26.0008072  34.7158675 112.8118370  26.1442721
  33.8096118 111.7312581  26.6946635  37.0196926 110.0483325  27.6589245
  36.7757857 110.8025385  27.1223521  37.2956856 110.4268673  28.4936492
  38.9735388 116.5921937  26.3366511  39.1852284 117.2353697  25.6600892
  38.9265137 115.7584254  25.8688441  36.5761617 109.2039758  23.2403083
  35.7146096 109.5021012  23.5319821  36.6024052 109.4210157  22.3084116
  32.3292073 113.8705101  16.4566454  33.0316116 114.3226145  16.9240380
  31.9972701 113.2288920  17.0846347  30.7772434 112.4616858  30.8317663
  30.1471095 113.1433138  31.0653060  30.6708522 112.3499939  29.8870801
  26.0717407 112.1288654  21.7583587  25.2816461 112.3846182  21.2823698
  26.5628654 112.9436991  21.8635628  48.1787209 115.8132641  20.8573840
  47.4250918 115.2440039  20.7017844  48.3134750 115.7795306  21.8044474
  30.0553177 106.7637623  33.1942914  29.6620123 106.2103822  33.8690558
  30.8719317 107.0748202  33.5849432  32.9721138 108.1795502  30.7863171
  33.7130851 108.7802656  30.7067633  33.2039061 107.4373140  30.2281213
  28.1162476 113.3651870  29.0641400  28.0015991 112.4637127  29.3648499
  27.2606994 113.6115566  28.7126217  36.9178301 104.2076605  25.0627452
  36.5742570 105.0978247  24.9866563  37.2857263 104.0178263  24.1997037
  36.8828584 114.1985217  13.5699888  36.3675207 114.9689821  13.8088275
  36.6105892 113.5250353  14.1932949  34.4675695 109.0434917  18.6285126
  33.6117291 108.6541768  18.4490765  34.8802646 109.1226878  17.7684911
  35.9974841 106.5781261  23.0276686  35.4939637 106.5411396  22.2144491
  36.2905448 107.4874003  23.0873342  32.2417727 106.6619990  22.0342867
  33.1070724 106.4662799  21.6748757  32.3095236 106.4330342  22.9612224
  41.8562858 116.9517571  15.5053061  41.0792301 116.6128731  15.0608223
  42.5354339 116.9570194  14.8308026  36.6714887 112.0712309  15.3959669
  36.3665022 112.3858458  16.2469812  37.6245329 112.1493728  15.4387002
  40.0954165 116.4251552  22.1619669  39.4377839 117.1150814  22.2499798
  40.8994564 116.8147984  22.5053655  29.8480046 108.8922198  19.4059234
  30.4223798 108.6697380  18.6732427  30.4351029 108.9610893  20.1587836
  38.9059623 114.7795925  20.2123611  39.4191505 115.4125917  20.7145320
  39.5560847 114.1797121  19.8466971  32.1502714 105.7663447  18.1334304
  31.4967126 105.4512464  17.5090918  32.1083188 105.1439188  18.8594127
  35.3840454 112.2545381  22.4581951  34.4663016 112.4760328  22.3003639
  35.8000598 112.3291691  21.5993659  36.1675502 113.6536796  17.5884632
  36.9147321 114.1658194  17.2791754  36.4367092 113.3320849  18.4489025
  38.6154339 110.6893913  19.5703421  37.8777096 110.1771299  19.9013663
  38.8681113 110.2494294  18.7586698  38.7165967 103.4670165  20.1645190
  39.0224843 102.6067528  19.8771105  39.4418571 104.0587785  19.9644184
  32.9887046 113.7623958  20.6721381  33.0435656 112.8097794  20.5963858
  32.1778248 113.9183397  21.1562680  30.9279406 112.3801017  18.4311760
  30.1147272 112.6795188  18.8376952  31.4238400 111.9856706  19.1486242
  36.5253618 112.8442842  27.2626654  36.8803006 113.0714315  28.1221120
  37.1725749 113.1761219  26.6403909  42.2551355 115.9661278  17.9675983
  42.1169253 116.1562874  17.0397172  41.8987574 116.7280661  18.4244034
  30.4193481 109.9519373  24.0472995  31.0592860 109.8108132  23.3495958
  29.5871012 109.6653886  23.6711597  42.2820734 118.0337805  22.9787254
  42.7157241 117.9413094  23.8270309  42.9952315 118.0095305  22.3407270
  27.4222097 109.9219698  18.8245982  27.6828915 110.8365031  18.7155142
  28.2439270 109.4544140  18.9742595  28.8947023 111.3357455  25.9944806
  29.5670076 111.1274817  25.3457455  28.0676809 111.1379541  25.5550039
  43.1436284 118.0761505  25.5120140  43.3372174 118.9807316  25.7579415
  43.0436902 117.6168924  26.3458725  34.7972595 107.9619396  28.0110467
  34.1500510 108.6609346  27.9174944  35.5673610 108.3955540  28.3786715
  34.9736729 115.8000161  26.0707287  35.9028789 115.9511321  25.8976254
  34.5527759 115.8884182  25.2155933  29.2974520 114.6100058  26.7547243
  29.1594318 113.8780297  27.3558783  30.2079443 114.5208958  26.4731431
  31.9256821 114.3220017  26.2430923  32.6356439 113.6813210  26.2017542
  31.8826129 114.5732912  27.1657104  30.6385755 111.3085235  28.0626563
  30.1023112 110.8575974  28.7148159  30.0502463 111.4431144  27.3197027
  26.3724876 110.4441243  25.1479557  26.2883065 109.8366913  24.4129967
  25.5507582 110.9350261  25.1489053  36.5448590 108.9294806  20.5149752
  37.0417289 108.1764769  20.1950822  35.7735571 108.9659123  19.9492961
  44.3978347 114.6335172  22.1568044  44.3868223 115.5159887  21.7861977
  43.5295727 114.2806723  21.9622581  33.1283558 111.0712189  20.2421437
  32.7581346 110.5183230  20.9302342  33.6242651 110.4670323  19.6896437
  41.0150922 113.5283813  18.6238210  41.4811374 114.3611805  18.5498512
  41.4658422 113.0628795  19.3283468  38.9867585 105.8964400  22.6629111
  38.0730664 106.1268627  22.8311318  39.4160686 105.9802844  23.5143143
  38.7574043 114.0854292  25.1629005  38.1045493 114.3330199  24.5081458
  39.1354423 113.2718430  24.8291482  34.8061616 114.8274103  31.6495042
  34.1302253 114.7268232  32.3197417  35.6289250 114.6713317  32.1131039
  28.5248892 108.4816180  26.4874543  28.5890219 109.3431011  26.0751941
  28.4616012 107.8690182  25.7546901  28.0001165 110.5539313  30.1347577
  28.6273203 110.1716390  30.7485101  27.1429084 110.3353515  30.5003270
  28.3060954 110.4371738  22.0493481  27.5847540 111.0507706  21.9100954
  29.0954210 110.9729503  21.9710126  31.1087268 107.7726165  28.3234132
  31.6321670 108.0188462  29.0860442  30.8899601 108.6046200  27.9037270
  32.3139813 108.7139860  26.0083803  31.9736633 107.9147673  26.4104483
  31.6078819 109.0141571  25.4360636  32.9656285 105.7989173  24.4611126
  33.7882354 105.3249651  24.3390016  33.2094348 106.5779656  24.9609812
  31.6064519 108.8277431  14.7574028  32.3272882 109.2058684  14.2537744
  30.9829823 109.5466308  14.8609005  35.7495642 109.5322580  15.6932360
  35.9659257 110.4147218  15.3921188  35.2689709 109.1408793  14.9638002
  30.4894864 112.4908293  22.2703104  30.3439444 112.8048596  23.1627386
  30.0120067 113.1093193  21.7174003  32.3491246 109.4810841  22.3183994
  32.3352815 108.5851934  21.9816292  33.0663675 109.4881505  22.9522280
  34.2017377 109.9148181  24.3637121  33.9435155 110.8365252  24.3621452
  33.6702418 109.5178616  25.0537586  31.7528142 108.3625221  17.5871564
  31.8744054 107.4341868  17.7862452  31.4630185 108.3763907  16.6749880
  34.6219333 106.0480132  20.7238284  34.6441030 106.1119465  19.7690264
  35.0387392 105.2084641  20.9178790  45.0002957 115.7835391  18.7617507
  45.4434103 115.0342717  18.3636630  44.1229467 115.7745528  18.3791239
  31.2369222 109.8757219  31.7961497  31.2857377 110.7519342  31.4139266
  31.7791736 109.3334612  31.2233140  41.8421943 117.2690808  28.3895362
  41.8919948 117.1040816  29.3310885  41.7335866 116.4018067  27.9993243
  39.1325705 113.2521736  29.7054669  40.0335568 113.1128201  29.4138667
  39.2073680 113.4176191  30.6452847  33.4668510 110.6288591  28.5507855
  32.5971820 110.9222157  28.2790444  33.7027991 111.2129036  29.2715119
  44.5435822 117.2540630  21.1539954  45.3782713 117.6930434  21.3177514
  44.6794951 116.7779283  20.3348200  41.5927328 114.8120365  27.1017442
  42.0681449 115.0048011  26.2936293  40.6692893 114.8679550  26.8560826
  36.1707544 106.8468208  26.0673276  36.6889488 107.5829235  25.7419764
  35.8162677 107.1532201  26.9020035  36.4220138 103.2668491  21.5874172
  36.7021892 102.5991680  22.2134599  37.2070745 103.4597586  21.0748836
  40.2928997 111.6886125  25.3345747  41.2446420 111.7884222  25.3557972
  40.1232447 110.8964393  25.8443832  38.3143376 108.7741708  25.5205148
  37.7193308 109.0546721  24.8251637  38.0293073 109.2635609  26.2921890
  42.7717075 114.9092244  24.4488047  42.7393395 113.9708245  24.6347731
  43.3817698 114.9876281  23.7153872  42.9211563 111.7003288  24.4946330
  42.4050612 110.9161744  24.3076259  43.8051512 111.3722004  24.6592850
  40.5822290 105.4444303  20.4542143  40.3847111 105.1359392  21.3385475
  41.1921995 106.1705942  20.5840073  48.5893624 115.9708251  23.5894084
  49.3197013 115.7093539  24.1501787  47.9800570 115.2336973  23.6296152
  46.6708921 114.1116114  24.1868535  45.9442085 113.9772079  23.5785027
  46.2556208 114.4192942  24.9925253  34.4105388 106.2475163  16.5814378
  33.6006117 105.9022248  16.9569624  35.0989805 105.9382707  17.1701989
  36.3395937 105.3253210  18.2038674  36.8926975 105.7448664  18.8628697
  36.5766023 104.3988958  18.2461630  32.3629036 111.3140284  33.9841438
  32.2625763 112.2634641  33.9153529  32.1450578 110.9858523  33.1117508
  39.7174744 107.4353735  17.7117339  39.1373413 108.0938539  17.3295391
  39.4510676 106.6131080  17.3004756  38.1678310 106.8358793  19.9138659
  38.6678088 106.9475328  19.1052978  38.8113918 106.5319846  20.5539467
  32.2260306 114.7437423  32.8006500  31.7427388 115.5437783  33.0070389
  32.3121245 114.7545368  31.8473944  38.4999622 109.5953826  16.7673687
  37.6125477 109.8803476  16.5493882  38.9153611 109.4347589  15.9200964
  41.8514158 109.6200347  20.4828026  42.6274548 110.1096799  20.7552643
  41.1262292 110.0458401  20.9399896  44.2886716 110.3327966  21.5401967
  44.8831207 110.0923702  20.8295275  44.3613300 109.6135097  22.1675503
  38.4740645 115.1108362  16.9823977  38.4175847 115.5676913  16.1431609
  39.0268988 114.3499046  16.8046820  42.2845451 110.8998094  17.8074097
  42.0282386 110.4994729  18.6382304  41.6598319 111.6141887  17.6824236
  46.5957789 113.6394167  20.3145388  46.0357347 113.7087356  21.0876950
  45.9901293 113.4635151  19.5944884  39.2075425 116.3013143  14.2776506
  39.1524228 116.1357414  13.3364950  38.5821480 117.0089176  14.4338696
  23.9967940 111.5381207  28.1037928  24.6426803 111.0280161  28.5925154
  23.7885091 112.2749889  28.6781354  32.5171550 105.8021252  13.8561825
  32.5050220 106.7463092  14.0130095  33.4094972 105.6191397  13.5621286
  36.3323670 102.3964029  18.1107761  35.5656065 101.8422515  18.2564444
  36.7434375 102.4685897  18.9721913  28.3365431 108.6848824  32.2012943
  29.1996892 108.3285629  32.4116267  27.7630841 108.3462719  32.8888347
  47.7572055 119.5368523  25.0627452  47.4136325 120.4270165  24.9866563
  48.1251018 119.3470181  24.1997037  49.5559721 118.7962082  20.1645190
  49.8618598 117.9359446  19.8771105  50.2812326 119.3879702  19.9644184
  49.8261339 121.2256318  22.6629111  48.9124419 121.4560545  22.8311318
  50.2554440 121.3094762  23.5143143  47.2613893 118.5960408  21.5874172
  47.5415647 117.9283597  22.2134599  48.0464500 118.7889504  21.0748836
  51.4216044 120.7736221  20.4542143  51.2240866 120.4651309  21.3385475
  52.0315750 121.4997860  20.5840073  47.1789691 120.6545128  18.2038674
  47.7320730 121.0740581  18.8628697  47.4159777 119.7280876  18.2461630
  47.1717424 117.7255946  18.1107761  46.4049820 117.1714433  18.2564444
  47.5828129 117.7977815  18.9721913   2.6773051  52.3255980  17.3874208
   2.2336906  51.5392358  17.0695112   3.3390265  52.5135130  16.7218098
   4.7754290  52.6058780  15.4155609   4.7572765  53.4267661  14.9235878
   5.6974210  52.4812855  15.6405750   5.6870130  49.2454618  17.8106327
   5.5355637  49.0165169  16.8936411   5.6774810  50.2025219  17.8237672
   7.3962337  52.2773740  15.8882809   7.3374883  51.5932960  15.2213392
   7.7981855  53.0192730  15.4363435   5.8814011  51.9788658  18.4646619
   6.4253915  52.5918616  17.9701574   5.3000856  52.5368236  18.9813632
   9.2042805  51.4384712  17.8007940   8.4138349  51.4208850  17.2612440
   8.9676160  51.9773005  18.5556977  10.8258877  50.7074119  15.3582691
  10.5343686  51.0704100  16.1946151  10.2131009  49.9941128  15.1796023
   4.0040070  49.6248424  20.3275376   4.8731229  49.7989077  19.9662011
   3.5246821  50.4442841  20.2051105  15.6632545  61.3337050   9.7320650
  16.3010955  61.2143798   9.0283990  15.5453388  62.2817894   9.7908602
  12.4722252  61.2864478   9.6682175  12.1340763  61.1705543   8.7802710
  13.3412020  60.8855644   9.6483181  12.9542035  62.4399330  15.6268380
  12.9430675  62.0452128  14.7548884  13.1162674  61.7065403  16.2202152
   9.6749296  65.2236442  14.5747564   9.3839162  66.1282073  14.4594231
  10.3106280  65.2652970  15.2891634  10.6005503  62.6013290  11.1648924
  11.1969075  62.3769313  10.4505887  10.6580474  61.8598036  11.7674372
  20.6182241  58.9963737   7.7106837  21.3507413  58.4262954   7.9444666
  19.8621597  58.6085338   8.1513342  18.1407661  52.7085311  12.1701445
  17.8090986  53.5780722  11.9462660  17.5453275  52.3921595  12.8495476
  14.6339181  64.9097857  11.5697358  14.3339904  65.8122896  11.4613165
  14.2890240  64.6430041  12.4218511  18.0336325  57.4280398   9.2494795
  17.1253202  57.3595806   8.9553556  17.9823920  57.9052343  10.0776621
  12.1077190  58.8470043  17.1929693  11.3310525  59.4063963  17.1832557
  12.7467754  59.3326826  17.7144563  19.8997971  55.6296836  11.0272669
  19.2572351  55.9229369  10.3812464  19.3952900  55.5149756  11.8325866
  10.3623563  61.6555497  16.7547660  11.1038247  62.1940541  16.4782483
   9.6560548  62.2821785  16.9119212  15.8378902  63.7984637  15.3519821
  16.2462258  63.3567048  14.6074454  15.1156164  63.2237265  15.6054014
  12.1909972  58.7357244  12.7253378  13.0371168  59.1596657  12.8688027
  12.1308610  58.0790868  13.4191941  16.1607717  64.3585828   9.1072110
  15.5316579  64.5231542   8.4048178  15.7733379  64.7727437   9.8783074
  20.0396949  65.2940266   6.4616474  19.3547987  65.6739167   5.9113507
  20.1240798  65.9035592   7.1948422  15.3409418  56.3961612  14.3834552
  15.0970350  57.1503673  13.8468828  15.6169348  56.7746960  15.2181799
  17.2947881  62.9400225  13.0611817  17.5064776  63.5831984  12.3846199
  17.2477629  62.1062541  12.5933748  11.7135679  64.0960236   6.3722195
  12.1774024  64.3747939   5.5826818  11.4492477  63.1943680   6.1895286
   8.6059760  63.6431717   9.3101958   9.1761117  64.0718986   8.6719443
   9.1967872  63.3614302  10.0086144   9.0984927  58.8095145  17.5562970
   8.4683587  59.4911426  17.7898367   8.9921014  58.6978226  16.6116108
  18.4093709  65.8172180  11.2334175  19.2311152  65.4152367  10.9516856
  18.4056111  65.7140414  12.1850291  12.1750312  65.3656223  13.3894885
  12.2394744  65.8276631  14.2253057  11.4661236  64.7353588  13.5177195
  26.4999702  62.1610928   7.5819146  25.7463410  61.5918327   7.4263151
  26.6347243  62.1273593   8.5289781   8.3765669  53.1115911  19.9188221
   7.9832615  52.5582109  20.5935865   9.1931810  53.4226489  20.3094738
  11.2933630  54.5273790  17.5108477  12.0343344  55.1280943  17.4312940
  11.5251553  53.7851427  16.9526520   6.4374968  59.7130157  15.7886707
   6.3228483  58.8115414  16.0893806   5.5819486  59.9593854  15.4371524
  13.5166806  67.6547897  17.3874208  13.0730660  66.8684276  17.0695112
  14.1784020  67.8427048  16.7218098   8.2753927  69.1843699  11.9134886
   8.8261352  69.0560762  11.1411880   7.4365403  69.4838588  11.5629779
  15.6148044  67.9350697  15.4155609  15.5966519  68.7559578  14.9235878
  16.5367964  67.8104772  15.6405750  12.0721098  65.4494827  16.2579117
  12.6049435  64.6883115  16.0278425  11.5435179  65.1568478  17.0003272
  18.4166657  62.7729840   8.8864976  17.7590331  63.4629101   8.9745104
  19.2207056  63.1626272   9.2298962  17.2272116  61.1274212   6.9368917
  17.7403997  61.7604204   7.4390627  17.8773340  60.5275408   6.5712277
  13.7052947  58.6023668   9.1827258  12.7875508  58.8238615   9.0248946
  14.1213090  58.6769978   8.3238965  17.9933912  66.1080214   5.0648060
  17.5396239  65.2671124   5.1213250  17.3627879  66.7441612   5.4022840
  16.4366851  67.9456710   5.9997878  16.7289826  68.5061768   5.2810244
  16.9465472  68.2385271   6.7551037  14.8466110  59.1921129  13.9871961
  15.2015498  59.4192602  14.8466426  15.4938241  59.5239506  13.3649216
  20.5763847  62.3139565   4.6921290  20.4381746  62.5041161   3.7642479
  20.2200066  63.0758948   5.1489341  20.6033227  64.3816092   9.7032561
  21.0369733  64.2891381  10.5515615  21.3164807  64.3573592   9.0652577
  14.3361122  67.9818186  11.2365662  14.3898144  68.5509122  12.0043378
  13.4675903  68.1520071  10.8719699   7.2159515  57.6835742  12.7190113
   7.8882568  57.4753104  12.0702762   6.3889302  57.4857828  12.2795345
  21.4648776  64.4239793  12.2365447  21.6584666  65.3285603  12.4824721
  21.3649394  63.9647212  13.0704032  13.1185087  54.3097683  14.7355774
  12.4713002  55.0087633  14.6420250  13.8886102  54.7433827  15.1032022
  16.5263885  64.5746535  17.8106327  16.3749391  64.3457087  16.8936411
  16.5168564  65.5317137  17.8237672  13.2949221  62.1478448  12.7952594
  14.2241281  62.2989608  12.6221561  12.8740251  62.2362469  11.9401240
  12.0937553  66.1729113  10.5651131  11.9548639  65.8047897  11.4377069
  11.3052149  66.6876752  10.3935089  13.6442768  65.5510715   7.9539969
  13.3092601  65.5111485   8.8497619  13.1446714  64.8855431   7.4810379
   7.6187012  60.9578345  13.4792550   7.4806810  60.2258584  14.0804089
   8.5291936  60.8687245  13.1976738  10.2469313  60.6698305  12.9676230
  10.9568931  60.0291497  12.9262848  10.2038621  60.9211199  13.8902411
  18.2356092  67.6065658  15.8882809  18.1768638  66.9224878  15.2213392
  18.6375610  68.3484648  15.4363435   8.9598247  57.6563523  14.7871869
   8.4235604  57.2054261  15.4393466   8.3714955  57.7909431  14.0442334
  18.2373499  65.5705242  14.1196789  17.3500278  65.2331164  14.2423188
  18.8072050  64.8388273  14.3565554  11.7674652  70.2306694  11.0858032
  11.6944824  71.0361666  11.5977336  11.3252045  70.4298660  10.2606053
  22.7190839  60.9813459   8.8813350  22.7080716  61.8638175   8.5107283
  21.8508219  60.6285010   8.6867887  14.2273336  70.1293528  13.2416191
  14.9401308  70.7640993  13.1692092  13.7363364  70.2257394  12.4256192
  15.9490863  64.0344781   4.8133482  15.0147141  64.1546243   4.6438187
  16.1267531  63.1317248   4.5493492  19.3363414  59.8762100   5.3483516
  19.8023866  60.7090092   5.2743819  19.7870915  59.4107082   6.0528775
   9.2785249  67.8787972  14.0621761   9.9794709  68.5124455  14.2151156
   8.8080364  68.2202703  13.3017401  17.0786535  60.4332579  11.8874312
  16.4257986  60.6808487  11.2326764  17.4566915  59.6196717  11.5536789
  14.0393709  70.4692272   5.9902482  14.2216104  69.6513928   6.4530234
  14.8626695  70.6859965   5.5527372  13.1274108  61.1752390  18.3740349
  12.4514745  61.0746520  19.0442724  13.9501742  61.0191604  18.8376346
  11.8696891  72.4819318  12.6097965  12.4215199  72.6450939  13.3747050
  12.2103085  73.0723756  11.9377990   6.3213657  56.9017600  16.8592884
   6.9485696  56.5194677  17.4730408   5.4641576  56.6831802  17.2248576
  16.7207766  67.3080575  18.4646619  17.2647669  67.9210533  17.9701574
  16.1394610  67.8660154  18.9813632  15.0065278  70.4301293   9.5961647
  14.8816418  69.6291033   9.0872592  15.6644370  70.9247487   9.1075617
  17.0700187  68.2310313  11.2241197  16.1230522  68.1115665  11.1519524
  17.4182960  67.3432811  11.3067458   9.4299760  54.1204452  15.0479439
   9.9534162  54.3666749  15.8105748   9.2112093  54.9524487  14.6282576
  14.0746620  68.0263030   7.4245549  13.9271583  67.0979737   7.6053119
  14.9000114  68.0483120   6.9402624  17.6780742  68.8491588   8.5110422
  18.6027289  68.6434450   8.3734873  17.5096045  68.6007989   9.4199763
  10.6352305  55.0618147  12.7329109  10.2949126  54.2625960  13.1349789
   9.9291312  55.3619858  12.1605943  12.5229869  56.2626469  11.0882428
  12.2647647  57.1843539  11.0866758  11.9914910  55.8656903  11.7782892
  17.4676058  69.3677256   3.8672513  17.6412936  68.8023678   3.1146366
  17.9604949  70.1678151   3.6852003   3.2853018  61.3791925  11.9336072
   2.7406486  62.1551733  12.0656347   4.1632368  61.7262729  11.7755194
  23.3215449  62.1313679   5.4862813  23.7646595  61.3821004   5.0881936
  22.4441960  62.1223815   5.1036545   4.0719040  60.5061821  14.8266229
   3.3300776  60.6544456  15.4130860   3.7511784  60.7670087  13.9632979
  20.3542654  66.1343726   2.4956742  20.8793978  66.4730998   1.7706063
  20.2665006  65.1990741   2.3119877  12.0162703  70.0477799  14.6246619
  12.3249829  69.8026946  15.4969319  12.8138185  70.2524438  14.1365489
   9.4857187  67.7453718   8.9274297   8.8637196  67.0824423   8.6276525
  10.1562054  67.7714850   8.2447945   9.5581714  56.2235506  18.5206803
   9.6069870  57.0997629  18.1384573  10.1004228  55.6812899  17.9478447
  20.0436560  66.7676629  17.8007940  19.2532104  66.7500768  17.2612440
  19.8069914  67.3064923  18.5556977  20.1634435  63.6169096  15.1140669
  20.2132440  63.4519103  16.0556192  20.0548358  62.7496355  14.7238550
  17.4538197  59.6000024  16.4299976  18.3548060  59.4606489  16.1383974
  17.5286172  59.7654479  17.3698153  11.7881003  56.9766878  15.2753162
  10.9184312  57.2700444  15.0035751  12.0240483  57.5607323  15.9960426
  21.6652632  66.0366037  15.3582691  21.3737440  66.3996018  16.1946151
  21.0524763  65.3233045  15.1796023  22.8648314  63.6018917   7.8785261
  23.6995205  64.0408721   8.0422821  23.0007443  63.1257570   7.0593507
  19.9139820  61.1598652  13.8262749  20.3893942  61.3526298  13.0181600
  18.9905385  61.2157838  13.5806132  14.4920036  53.1946495  12.7918582
  15.0101980  53.9307522  12.4665071  14.1375169  53.5010489  13.6265342
  18.6141489  58.0364412  12.0591054  19.5658912  58.1362510  12.0803278
  18.4444939  57.2442680  12.5689138  16.6355868  55.1219995  12.2450455
  16.0405801  55.4025008  11.5496944  16.3505565  55.6113896  13.0167196
  21.0929567  61.2570532  11.1733354  21.0605887  60.3186532  11.3593038
  21.7030190  61.3354568  10.4399179  21.2424055  58.0481575  11.2191637
  20.7263104  57.2640032  11.0321566  22.1264004  57.7200292  11.3838156
  26.9106117  62.3186538  10.3139391  27.6409505  62.0571827  10.8747094
  26.3013062  61.5815260  10.3541459  24.9921414  60.4594401  10.9113842
  24.2654577  60.3250366  10.3030333  24.5768701  60.7671230  11.7170560
  12.8151590  64.1784331  18.6761215  13.7354600  64.3562930  18.8701261
  12.7801173  63.2340376  18.5240914   5.8113663  62.0885365  11.3183996
   6.0299673  63.0202473  11.3372030   6.2239437  61.7293340  12.1038800
  10.6841528  57.6618571  20.7086745  10.5838255  58.6112928  20.6398836
  10.4663070  57.3336810  19.8362815  10.5472798  61.0915710  19.5251807
  10.0639880  61.8916070  19.7315696  10.6333737  61.1023655  18.5719251
   6.4746136  64.9820245  11.5620240   7.4289389  64.9504187  11.4950172
   6.2758659  64.5210868  12.3770466   7.0645518  63.5521361  14.1291038
   7.8838407  64.0465439  14.1525875   7.3382325  62.6353329  14.1008605
  20.1726650  55.9678634   7.2073333  20.9487040  56.4575086   7.4797950
  19.4474784  56.3936688   7.6645202  22.6099209  56.6806253   8.2647273
  23.2043699  56.4401989   7.5540582  22.6825792  55.9613384   8.8920810
  24.9170281  59.9872454   7.0390695  24.3569839  60.0565643   7.8122257
  24.3113785  59.8113439   6.3190191   2.3180432  57.8859495  14.8283235
   2.9639296  57.3758449  15.3170460   2.1097583  58.6228176  15.4026660
  14.8433824  64.9540342  20.3275376  15.7124984  65.1280994  19.9662011
  14.3640576  65.7734759  20.2051105   9.0120004  72.0737443  12.0064809
   9.9147251  72.1061053  12.3231304   8.7857374  71.1437894  12.0211145
   6.6577923  55.0327112  18.9258249   7.5209385  54.6763916  19.1361574
   6.0843334  54.6941006  19.6133654  26.5026300  76.6628968   9.7320650
  27.1404710  76.5435715   9.0283990  26.3847143  77.6109812   9.7908602
  23.3116006  76.6156396   9.6682175  22.9734518  76.4997461   8.7802710
  24.1805774  76.2147561   9.6483181  23.7935789  77.7691248  15.6268380
  23.7824430  77.3744046  14.7548884  23.9556429  77.0357320  16.2202152
  20.5143050  80.5528360  14.5747564  20.2232916  81.4573990  14.4594231
  21.1500035  80.5944887  15.2891634  21.4399257  77.9305208  11.1648924
  22.0362829  77.7061231  10.4505887  21.4974229  77.1889954  11.7674372
  26.0567568  74.3880422   6.8073858  26.8430658  73.9699845   6.4564275
  26.3206273  75.2926514   6.9755507  31.4575996  74.3255655   7.7106837
  32.1901167  73.7554872   7.9444666  30.7015351  73.9377255   8.1513342
  23.0752115  76.7482897   4.9070179  22.7110322  76.2213518   5.6183101
  23.9319231  76.3581366   4.7336665  28.9801416  68.0377229  12.1701445
  28.6484741  68.9072640  11.9462660  28.3847029  67.7213513  12.8495476
  25.4732935  80.2389775  11.5697358  25.1733658  81.1414814  11.4613165
  25.1283995  79.9721958  12.4218511  18.9245417  76.6903572   7.6034063
  17.9995913  76.5579786   7.8111754  19.1729830  77.4697791   8.1004005
  28.8730079  72.7572315   9.2494795  27.9646957  72.6887724   8.9553556
  28.8217675  73.2344260  10.0776621  22.9470945  74.1761961  17.1929693
  22.1704279  74.7355881  17.1832557  23.5861508  74.6618744  17.7144563
  30.7391726  70.9588754  11.0272669  30.0966106  71.2521287  10.3812464
  30.2346654  70.8441674  11.8325866  28.3931889  74.7051927   1.7158529
  29.3049745  74.9379314   1.5406226  27.8841536  75.2888971   1.1533607
  21.2017317  76.9847414  16.7547660  21.9432002  77.5232458  16.4782483
  20.4954303  77.6113703  16.9119212  26.6772657  79.1276555  15.3519821
  27.0856013  78.6858965  14.6074454  25.9549918  78.5529182  15.6054014
  23.0303727  74.0649162  12.7253378  23.8764922  74.4888575  12.8688027
  22.9702365  73.4082786  13.4191941  27.0001472  79.6877745   9.1072110
  26.3710334  79.8523459   8.4048178  26.6127134  80.1019355   9.8783074
  30.8790703  80.6232183   6.4616474  30.1941742  81.0031085   5.9113507
  30.9634553  81.2327510   7.1948422  26.1803172  71.7253530  14.3834552
  25.9364104  72.4795590  13.8468828  26.4563103  72.1038877  15.2181799
  28.1341635  78.2692142  13.0611817  28.3458530  78.9123902  12.3846199
  28.0871383  77.4354459  12.5933748  25.7367864  70.8809963   9.9648390
  24.8752343  71.1791216  10.2565127  25.7630299  71.0980362   9.0329422
  22.5529433  79.4252153   6.3722195  23.0167779  79.7039856   5.5826818
  22.2886232  78.5235598   6.1895286  19.4453514  78.9723635   9.3101958
  20.0154872  79.4010903   8.6719443  20.0361626  78.6906220  10.0086144
  21.4898319  75.5475306   3.1811760  22.1922363  75.9996349   3.6485687
  21.1578948  74.9059125   3.8091653  19.9378681  74.1387062  17.5562970
  19.3077342  74.8203343  17.7898367  19.8314769  74.0270144  16.6116108
  15.2323653  73.8058858   8.4828894  14.4422707  74.0616387   8.0069005
  15.7234901  74.6207196   8.5880934  29.2487463  81.1464098  11.2334175
  30.0704907  80.7444285  10.9516856  29.2449866  81.0432332  12.1850291
  23.0144066  80.6948141  13.3894885  23.0788499  81.1568548  14.2253057
  22.3054990  80.0645506  13.5177195  13.5161356  74.0589349  10.9143885
  13.7669395  74.9436359  11.1801461  14.0520905  73.8793950  10.1418977
  37.3393456  77.4902846   7.5819146  36.5857164  76.9210244   7.4263151
  37.4740997  77.4565511   8.5289781  19.2159424  68.4407828  19.9188221
  18.8226369  67.8874027  20.5935865  20.0325564  68.7518407  20.3094738
  22.1327385  69.8565707  17.5108477  22.8737098  70.4572861  17.4312940
  22.3645308  69.1143345  16.9526520  17.2768723  75.0422075  15.7886707
  17.1622238  74.1407332  16.0893806  16.4213240  75.2885771  15.4371524
  24.3560560  82.9839815  17.3874208  23.9124415  82.1976194  17.0695112
  25.0177774  83.1718965  16.7218098  19.1147682  84.5135617  11.9134886
  19.6655107  84.3852680  11.1411880  18.2759158  84.8130506  11.5629779
  26.4541799  83.2642615  15.4155609  26.4360274  84.0851496  14.9235878
  27.3761719  83.1396690  15.6405750  22.9114853  80.7786744  16.2579117
  23.4443189  80.0175033  16.0278425  22.3828934  80.4860396  17.0003272
  26.0784548  65.8846810  11.7872759  25.7348817  66.7748452  11.7111870
  26.4463510  65.6948468  10.9242344  26.0434830  75.8755421   0.2945194
  25.5281454  76.6460026   0.5333582  25.7712139  75.2020558   0.9178256
  23.6281941  70.7205122   5.3530433  22.7723538  70.3311973   5.1736071
  24.0408893  70.7997083   4.4930218  25.1581088  68.2551465   9.7521992
  24.6545884  68.2181601   8.9389798  25.4511695  69.1644208   9.8118649
  21.4023974  68.3390195   8.7588174  22.2676971  68.1433004   8.3994064
  21.4701483  68.1100547   9.6857531  31.0169105  78.6287776   2.2298368
  30.2398547  78.2898936   1.7853530  31.6960585  78.6340399   1.5553333
  25.8321134  73.7482514   2.1204975  25.5271269  74.0628663   2.9715119
  26.7851576  73.8263933   2.1632308  29.2560411  78.1021757   8.8864976
  28.5984086  78.7921019   8.9745104  30.0600811  78.4918189   9.2298962
  19.0086293  70.5692403   6.1304541  19.5830045  70.3467585   5.3977734
  19.5957275  70.6381098   6.8833142  28.0665870  76.4566130   6.9368917
  28.5797752  77.0896122   7.4390627  28.7167094  75.8567326   6.5712277
  21.3108961  67.4433652   4.8579610  20.6573373  67.1282669   4.2336225
  21.2689435  66.8209392   5.5839433  24.5446701  73.9315586   9.1827258
  23.6269262  74.1530533   9.0248946  24.9606845  74.0061896   8.3238965
  25.3281749  75.3307001   4.3129938  26.0753568  75.8428398   4.0037060
  25.5973338  75.0091054   5.1734332  28.8327666  81.4372131   5.0648060
  28.3789994  80.5963041   5.1213250  28.2021633  82.0733530   5.4022840
  27.7760586  72.3664118   6.2948727  27.0383343  71.8541504   6.6258970
  28.0287360  71.9264499   5.4832004  27.2760606  83.2748628   5.9997878
  27.5683580  83.8353685   5.2810244  27.7859226  83.5677189   6.7551037
  27.8772213  65.1440370   6.8890497  28.1831090  64.2837733   6.6016412
  28.6024818  65.7357990   6.6889491  22.1493293  75.4394163   7.3966688
  22.2041903  74.4867999   7.3209164  21.3384495  75.5953602   7.8807986
  20.0885653  74.0571222   5.1557067  19.2753519  74.3565393   5.5622259
  20.5844647  73.6626911   5.8731549  25.6859865  74.5213047  13.9871961
  26.0409252  74.7484520  14.8466426  26.3331996  74.8531424  13.3649216
  31.4157602  77.6431483   4.6921290  31.2775500  77.8333079   3.7642479
  31.0593820  78.4050865   5.1489341  19.5799728  71.6289578  10.7718302
  20.2199107  71.4878337  10.0741265  18.7477258  71.3424091  10.3956904
  31.4426981  79.7108010   9.7032561  31.8763488  79.6183299  10.5515615
  32.1558562  79.6865510   9.0652577  25.1754876  83.3110104  11.2365662
  25.2291898  83.8801040  12.0043378  24.3069657  83.4811989  10.8719699
  16.5828344  71.5989903   5.5491288  16.8435161  72.5135236   5.4400449
  17.4045516  71.1314345   5.6987901  18.0553269  73.0127660  12.7190113
  18.7276323  72.8045022  12.0702762  17.2283056  72.8149746  12.2795345
  32.3042531  79.7531710  12.2365447  32.4978421  80.6577521  12.4824721
  32.2043149  79.2939129  13.0704032  23.9578842  69.6389601  14.7355774
  23.3106757  70.3379551  14.6420250  24.7279857  70.0725745  15.1032022
  27.3657639  79.9038453  17.8106327  27.2143146  79.6749005  16.8936411
  27.3562319  80.8609055  17.8237672  24.1342976  77.4770366  12.7952594
  25.0635036  77.6281525  12.6221561  23.7134006  77.5654387  11.9401240
  22.9331308  81.5021030  10.5651131  22.7942393  81.1339815  11.4377069
  22.1445904  82.0168670  10.3935089  24.4836523  80.8802633   7.9539969
  24.1486355  80.8403403   8.8497619  23.9840468  80.2147349   7.4810379
  18.4580767  76.2870263  13.4792550  18.3200565  75.5550502  14.0804089
  19.3685690  76.1979163  13.1976738  21.0863067  75.9990222  12.9676230
  21.7962686  75.3583414  12.9262848  21.0432376  76.2503117  13.8902411
  29.0749846  82.9357576  15.8882809  29.0162392  82.2516796  15.2213392
  29.4769364  83.6776566  15.4363435  19.7992001  72.9855440  14.7871869
  19.2629358  72.5346179  15.4393466  19.2108710  73.1201349  14.0442334
  29.0767253  80.8997160  14.1196789  28.1894032  80.5623081  14.2423188
  29.6465804  80.1680191  14.3565554  15.5331123  72.1211448  11.8724864
  15.4489311  71.5137117  11.1375274  14.7113829  72.6120466  11.8734360
  22.6068407  85.5598612  11.0858032  22.5338578  86.3653583  11.5977336
  22.1645800  85.7590578  10.2606053  25.7054836  70.6065011   7.2395059
  26.2023536  69.8534974   6.9196129  24.9341818  70.6429328   6.6738268
  33.5584594  76.3105377   8.8813350  33.5474470  77.1930092   8.5107283
  32.6901973  75.9576928   8.6867887  25.0667090  85.4585446  13.2416191
  25.7795062  86.0932911  13.1692092  24.5757119  85.5549312  12.4256192
  26.7884617  79.3636699   4.8133482  25.8540896  79.4838161   4.6438187
  26.9661286  78.4609165   4.5493492  22.2889805  72.7482394   6.9666743
  21.9187593  72.1953435   7.6547649  22.7848898  72.1440528   6.4141743
  30.1757169  75.2054018   5.3483516  30.6417621  76.0382010   5.2743819
  30.6264669  74.7398999   6.0528775  20.1179004  83.2079889  14.0621761
  20.8188463  83.8416372  14.2151156  19.6474119  83.5494621  13.3017401
  28.2433400  81.5497839   2.3469668  28.5193244  81.4354434   3.2563542
  27.3737898  81.1515324   2.3081841  28.1473831  67.5734605   9.3874418
  27.2336911  67.8038832   9.5556625  28.5766933  67.6573049  10.2388450
  27.9180290  75.7624497  11.8874312  27.2651740  76.0100404  11.2326764
  28.2960670  74.9488635  11.5536789  24.8787464  85.7984190   5.9902482
  25.0609858  84.9805846   6.4530234  25.7020450  86.0151882   5.5527372
  23.9667863  76.5044308  18.3740349  23.2908500  76.4038437  19.0442724
  24.7895497  76.3483522  18.8376346  22.7090646  87.8111235  12.6097965
  23.2608954  87.9742857  13.3747050  23.0496839  88.4015673  11.9377990
  17.6855139  70.1586385  13.2119849  17.7496465  71.0201216  12.7997247
  17.6222259  69.5460387  12.4792208  17.1607411  72.2309518  16.8592884
  17.7879450  71.8486595  17.4730408  16.3035330  72.0123720  17.2248576
  27.5601520  82.6372493  18.4646619  28.1041424  83.2502451  17.9701574
  26.9788365  83.1952071  18.9813632  25.8459033  85.7593211   9.5961647
  25.7210172  84.9582951   9.0872592  26.5038124  86.2539404   9.1075617
  17.4667201  72.1141943   8.7738787  16.7453787  72.7277911   8.6346260
  18.2560457  72.6499708   8.6955433  27.9093941  83.5602231  11.2241197
  26.9624277  83.4407582  11.1519524  28.2576714  82.6724729  11.3067458
  20.2693515  69.4496370  15.0479439  20.7927917  69.6958666  15.8105748
  20.0505848  70.2816405  14.6282576  24.9140375  83.3554947   7.4245549
  24.7665337  82.4271655   7.6053119  25.7393868  83.3775038   6.9402624
  28.5174496  84.1783506   8.5110422  29.4421044  83.9726367   8.3734873
  28.3489800  83.9299907   9.4199763  21.4746060  70.3910065  12.7329109
  21.1342880  69.5917878  13.1349789  20.7685066  70.6911776  12.1605943
  22.1262532  67.4759377  11.1856432  22.9488601  67.0019856  11.0635323
  22.3700595  68.2549861  11.6855119  20.7670766  70.5047636   1.4819334
  21.4879129  70.8828889   0.9783051  20.1436070  71.2236513   1.5854312
  24.9101889  71.2092785   2.4177666  25.1265503  72.0917423   2.1166495
  24.4295956  70.8178998   1.6883308  19.6501110  74.1678498   8.9948411
  19.5045691  74.4818801   9.8872693  19.1726314  74.7863398   8.4419310
  21.5097493  71.1581046   9.0429301  21.4959062  70.2622139   8.7061599
  22.2269921  71.1651710   9.6767587  23.3623624  71.5918386  11.0882428
  23.1041402  72.5135457  11.0866758  22.8308664  71.1948821  11.7782892
  28.3069813  84.6969173   3.8672513  28.4806690  84.1315596   3.1146366
  28.7998704  85.4970068   3.6852003  14.1246772  76.7083842  11.9336072
  13.5800241  77.4843650  12.0656347  15.0026122  77.0554647  11.7755194
  20.9134389  70.0395426   4.3116871  21.0350300  69.1112073   4.5107758
  20.6236432  70.0534112   3.3995186  23.7825580  67.7250337   7.4483591
  23.8047276  67.7889670   6.4935570  24.1993639  66.8854845   7.6424097
  34.1609204  77.4605596   5.4862813  34.6040350  76.7112922   5.0881936
  33.2835714  77.4515733   5.1036545  14.9112794  75.8353739  14.8266229
  14.1694530  75.9836374  15.4130860  14.5905539  76.0962004  13.9632979
  31.1936408  81.4635643   2.4956742  31.7187732  81.8022916   1.7706063
  31.1058761  80.5282659   2.3119877  22.8556457  85.3769717  14.6246619
  23.1643583  85.1318864  15.4969319  23.6531939  85.5816355  14.1365489
  20.3250941  83.0745636   8.9274297  19.7030950  82.4116341   8.6276525
  20.9955808  83.1006768   8.2447945  20.3975469  71.5527424  18.5206803
  20.4463624  72.4289547  18.1384573  20.9397983  71.0104817  17.9478447
  30.8830314  82.0968547  17.8007940  30.0925858  82.0792686  17.2612440
  30.6463669  82.6356841  18.5556977  31.0028189  78.9461013  15.1140669
  31.0526194  78.7811021  16.0556192  30.8942113  78.0788272  14.7238550
  28.2931952  74.9291941  16.4299976  29.1941815  74.7898406  16.1383974
  28.3679926  75.0946396  17.3698153  22.6274757  72.3058796  15.2753162
  21.7578067  72.5992362  15.0035751  22.8634237  72.8899241  15.9960426
  32.5046386  81.3657955  15.3582691  32.2131195  81.7287935  16.1946151
  31.8918518  80.6524963  15.1796023  33.7042069  78.9310835   7.8785261
  34.5388960  79.3700639   8.0422821  33.8401197  78.4549488   7.0593507
  30.7533574  76.4890569  13.8262749  31.2287696  76.6818216  13.0181600
  29.8299140  76.5449755  13.5806132  25.3313791  68.5238413  12.7918582
  25.8495735  69.2599440  12.4665071  24.9768924  68.8302406  13.6265342
  25.5826385  64.9438696   8.3119479  25.8628139  64.2761885   8.9379906
  26.3676992  65.1367791   7.7994143  29.4535243  73.3656330  12.0591054
  30.4052666  73.4654427  12.0803278  29.2838694  72.5734598  12.5689138
  27.4749623  70.4511913  12.2450455  26.8799555  70.7316926  11.5496944
  27.1899320  70.9405814  13.0167196  31.9323321  76.5862449  11.1733354
  31.8999641  75.6478450  11.3593038  32.5423945  76.6646486  10.4399179
  32.0817810  73.3773493  11.2191637  31.5656858  72.5931949  11.0321566
  32.9657758  73.0492209  11.3838156  29.7428537  67.1214508   7.1787450
  29.5453358  66.8129596   8.0630782  30.3528242  67.8476147   7.3085379
  37.7499871  77.6478456  10.3139391  38.4803260  77.3863744  10.8747094
  37.1406817  76.9107178  10.3541459  35.8315168  75.7886319  10.9113842
  35.1048332  75.6542284  10.3030333  35.4162455  76.0963147  11.7170560
  23.6545345  79.5076248  18.6761215  24.5748354  79.6854847  18.8701261
  23.6194928  78.5632294  18.5240914  16.6507417  77.4177283  11.3183996
  16.8693427  78.3494391  11.3372030  17.0633191  77.0585257  12.1038800
  23.5711635  67.9245368   3.3059684  22.7612363  67.5792453   3.6814930
  24.2596052  67.6152912   3.8947296  25.5002183  67.0023415   4.9283981
  26.0533222  67.4218869   5.5874004  25.7372270  66.0759163   4.9706937
  21.5235283  72.9910489  20.7086745  21.4232009  73.9404846  20.6398836
  21.3056825  72.6628728  19.8362815  28.8780990  69.1123940   4.4362645
  28.2979659  69.7708744   4.0540698  28.6116923  68.2901285   4.0250063
  27.3284557  68.5128998   6.6383966  27.8284335  68.6245533   5.8298284
  27.9720165  68.2090051   7.2784774  21.3866553  76.4207628  19.5251807
  20.9033634  77.2207988  19.7315696  21.4727492  76.4315572  18.5719251
  17.3139890  80.3112162  11.5620240  18.2683144  80.2796105  11.4950172
  17.1152414  79.8502786  12.3770466  17.9039272  78.8813278  14.1291038
  18.7232161  79.3757357  14.1525875  18.1776080  77.9645247  14.1008605
  27.6605868  71.2724031   3.4918994  26.7731723  71.5573681   3.2739188
  28.0759857  71.1117794   2.6446270  31.0120405  71.2970552   7.2073333
  31.7880795  71.7867004   7.4797950  30.2868539  71.7228606   7.6645202
  33.4492963  72.0098171   8.2647273  34.0437454  71.7693907   7.5540582
  33.5219547  71.2905301   8.8920810  27.6346892  76.7878567   3.7069284
  27.5782094  77.2447118   2.8676916  28.1875235  76.0269251   3.5292126
  31.4451698  72.5768298   4.5319403  31.1888632  72.1764934   5.3627611
  30.8204566  73.2912092   4.4069542  35.7564036  75.3164372   7.0390695
  35.1963594  75.3857561   7.8122257  35.1507539  75.1405356   6.3190191
  28.3681671  77.9783348   1.0021813  28.3130475  77.8127619   0.0610257
  27.7427727  78.6859381   1.1584003  13.1574186  73.2151412  14.8283235
  13.8033050  72.7050366  15.3170460  12.9491338  73.9520094  15.4026660
  25.6827579  80.2832260  20.3275376  26.5518738  80.4572912  19.9662011
  25.2034330  81.1026677  20.2051105  21.6777797  67.4791457   0.5807131
  21.6656467  68.4233297   0.7375402  22.5701219  67.2961602   0.2866592
  19.8513759  87.4029361  12.0064809  20.7541006  87.4352971  12.3231304
  19.6251129  86.4729812  12.0211145  25.4929916  64.0734234   4.8353068
  24.7262312  63.5192720   4.9809750  25.9040621  64.1456102   5.6967220
  17.4971677  70.3619029  18.9258249  18.3603139  70.0055834  19.1361574
  16.9237088  70.0232924  19.6133654  37.3420054  91.9920886   9.7320650
  37.9798464  91.8727633   9.0283990  37.2240897  92.9401730   9.7908602
  34.1509761  91.9448314   9.6682175  33.8128272  91.8289378   8.7802710
  35.0199529  91.5439479   9.6483181  34.6329544  93.0983165  15.6268380
  34.6218184  92.7035964  14.7548884  34.7950183  92.3649238  16.2202152
  31.3536805  95.8820277  14.5747564  31.0626671  96.7865908  14.4594231
  31.9893789  95.9236805  15.2891634  32.2793012  93.2597126  11.1648924
  32.8756584  93.0353148  10.4505887  32.3367983  92.5181871  11.7674372
  36.8961323  89.7172340   6.8073858  37.6824412  89.2991763   6.4564275
  37.1600027  90.6218432   6.9755507  42.2969750  89.6547573   7.7106837
  43.0294922  89.0846790   7.9444666  41.5409106  89.2669173   8.1513342
  33.9145870  92.0774814   4.9070179  33.5504077  91.5505435   5.6183101
  34.7712986  91.6873283   4.7336665  39.8195170  83.3669147  12.1701445
  39.4878495  84.2364558  11.9462660  39.2240784  83.0505431  12.8495476
  36.3126690  95.5681693  11.5697358  36.0127413  96.4706732  11.4613165
  35.9677749  95.3013876  12.4218511  29.7639171  92.0195490   7.6034063
  28.8389668  91.8871704   7.8111754  30.0123585  92.7989709   8.1004005
  39.7123834  88.0864233   9.2494795  38.8040711  88.0179641   8.9553556
  39.6611429  88.5636178  10.0776621  33.7864699  89.5053879  17.1929693
  33.0098034  90.0647799  17.1832557  34.4255262  89.9910662  17.7144563
  41.5785480  86.2880671  11.0272669  40.9359860  86.5813205  10.3812464
  41.0740409  86.1733592  11.8325866  39.2325644  90.0343845   1.7158529
  40.1443500  90.2671231   1.5406226  38.7235291  90.6180889   1.1533607
  32.0411072  92.3139332  16.7547660  32.7825756  92.8524376  16.4782483
  31.3348057  92.9405621  16.9119212  37.5166411  94.4568472  15.3519821
  37.9249767  94.0150883  14.6074454  36.7943673  93.8821100  15.6054014
  33.8697481  89.3941079  12.7253378  34.7158677  89.8180493  12.8688027
  33.8096119  88.7374703  13.4191941  37.8395226  95.0169663   9.1072110
  37.2104088  95.1815377   8.4048178  37.4520888  95.4311273   9.8783074
  41.7184458  95.9524101   6.4616474  41.0335496  96.3323002   5.9113507
  41.8028307  96.5619428   7.1948422  37.0196927  87.0545448  14.3834552
  36.7757859  87.8087508  13.8468828  37.2956857  87.4330795  15.2181799
  38.9735390  93.5984060  13.0611817  39.1852285  94.2415820  12.3846199
  38.9265138  92.7646376  12.5933748  36.5761618  86.2101881   9.9648390
  35.7146098  86.5083134  10.2565127  36.6024053  86.4272279   9.0329422
  33.3923188  94.7544071   6.3722195  33.8561533  95.0331774   5.5826818
  33.1279986  93.8527516   6.1895286  30.2847269  94.3015553   9.3101958
  30.8548626  94.7302821   8.6719443  30.8755381  94.0198137  10.0086144
  32.3292074  90.8767223   3.1811760  33.0316117  91.3288267   3.6485687
  31.9972702  90.2351042   3.8091653  30.7772435  89.4678980  17.5562970
  30.1471096  90.1495261  17.7898367  30.6708523  89.3562062  16.6116108
  26.0717408  89.1350776   8.4828894  25.2816462  89.3908305   8.0069005
  26.5628655  89.9499114   8.5880934  40.0881217  96.4756015  11.2334175
  40.9098661  96.0736203  10.9516856  40.0843620  96.3724249  12.1850291
  33.8537821  96.0240059  13.3894885  33.9182253  96.4860466  14.2253057
  33.1448745  95.3937424  13.5177195  24.3555111  89.3881267  10.9143885
  24.6063149  90.2728277  11.1801461  24.8914659  89.2085868  10.1418977
  48.1787211  92.8194764   7.5819146  47.4250919  92.2502162   7.4263151
  48.3134752  92.7857428   8.5289781  30.0553178  83.7699746  19.9188221
  29.6620124  83.2165945  20.5935865  30.8719319  84.0810324  20.3094738
  32.9721139  85.1857625  17.5108477  33.7130853  85.7864778  17.4312940
  33.2039062  84.4435263  16.9526520  28.1162477  90.3713992  15.7886707
  28.0015992  89.4699250  16.0893806  27.2606995  90.6177689  15.4371524
  35.1954315  98.3131733  17.3874208  34.7518169  97.5268111  17.0695112
  35.8571529  98.5010883  16.7218098  29.9541436  99.8427534  11.9134886
  30.5048861  99.7144598  11.1411880  29.1152912 100.1422423  11.5629779
  37.2935553  98.5934533  15.4155609  37.2754028  99.4143414  14.9235878
  38.2155473  98.4688608  15.6405750  33.7508607  96.1078662  16.2579117
  34.2836944  95.3466950  16.0278425  33.2222688  95.8152314  17.0003272
  36.9178302  81.2138728  11.7872759  36.5742572  82.1040370  11.7111870
  37.2857265  81.0240386  10.9242344  36.8828585  91.2047339   0.2945194
  36.3675208  91.9751944   0.5333582  36.6105893  90.5312475   0.9178256
  34.4675696  86.0497040   5.3530433  33.6117292  85.6603890   5.1736071
  34.8802648  86.1289001   4.4930218  35.9974843  83.5843383   9.7521992
  35.4939638  83.5473518   8.9389798  36.2905449  84.4936126   9.8118649
  32.2417728  83.6682113   8.7588174  33.1070725  83.4724922   8.3994064
  32.3095237  83.4392465   9.6857531  41.8562859  93.9579694   2.2298368
  41.0792302  93.6190853   1.7853530  42.5354340  93.9632317   1.5553333
  36.6714888  89.0774431   2.1204975  36.3665024  89.3920580   2.9715119
  37.6245330  89.1555851   2.1632308  40.0954166  93.4313675   8.8864976
  39.4377840  94.1212936   8.9745104  40.8994565  93.8210107   9.2298962
  29.8480048  85.8984321   6.1304541  30.4223799  85.6759502   5.3977734
  30.4351030  85.9673015   6.8833142  38.9059625  91.7858048   6.9368917
  39.4191506  92.4188040   7.4390627  39.5560849  91.1859243   6.5712277
  32.1502715  82.7725570   4.8579610  31.4967128  82.4574587   4.2336225
  32.1083189  82.1501310   5.5839433  35.3840456  89.2607503   9.1827258
  34.4663017  89.4822450   9.0248946  35.8000599  89.3353814   8.3238965
  36.1675503  90.6598919   4.3129938  36.9147322  91.1720316   4.0037060
  36.4367093  90.3382972   5.1734332  39.6721421  96.7664049   5.0648060
  39.2183748  95.9254959   5.1213250  39.0415388  97.4025448   5.4022840
  38.6154340  87.6956035   6.2948727  37.8777097  87.1833421   6.6258970
  38.8681114  87.2556417   5.4832004  38.1154360  98.6040546   5.9997878
  38.4077335  99.1645603   5.2810244  38.6252981  98.8969107   6.7551037
  38.7165968  80.4732287   6.8890497  39.0224845  79.6129651   6.6016412
  39.4418573  81.0649907   6.6889491  32.9887048  90.7686080   7.3966688
  33.0435657  89.8159917   7.3209164  32.1778250  90.9245519   7.8807986
  30.9279407  89.3863140   5.1557067  30.1147273  89.6857311   5.5622259
  31.4238402  88.9918829   5.8731549  36.5253619  89.8504964  13.9871961
  36.8803007  90.0776438  14.8466426  37.1725750  90.1823341  13.3649216
  42.2551356  92.9723400   4.6921290  42.1169255  93.1624996   3.7642479
  41.8987575  93.7342783   5.1489341  30.4193482  86.9581496  10.7718302
  31.0592862  86.8170255  10.0741265  29.5871013  86.6716009  10.3956904
  42.2820736  95.0399927   9.7032561  42.7157242  94.9475216  10.5515615
  42.9952316  95.0157428   9.0652577  36.0148631  98.6402021  11.2365662
  36.0685653  99.2092958  12.0043378  35.1463412  98.8103907  10.8719699
  27.4222099  86.9281821   5.5491288  27.6828916  87.8427154   5.4400449
  28.2439271  86.4606263   5.6987901  28.8947024  88.3419578  12.7190113
  29.5670077  88.1336940  12.0702762  28.0676811  88.1441664  12.2795345
  43.1436285  95.0823628  12.2365447  43.3372175  95.9869439  12.4824721
  43.0436903  94.6231047  13.0704032  34.7972596  84.9681519  14.7355774
  34.1500511  85.6671468  14.6420250  35.5673611  85.4017663  15.1032022
  38.2051394  95.2330371  17.8106327  38.0536900  95.0040922  16.8936411
  38.1956073  96.1900972  17.8237672  34.9736730  92.8062284  12.7952594
  35.9028790  92.9573443  12.6221561  34.5527760  92.8946304  11.9401240
  33.7725062  96.8312948  10.5651131  33.6336148  96.4631732  11.4377069
  32.9839658  97.3460587  10.3935089  35.3230277  96.2094551   7.9539969
  34.9880110  96.1695321   8.8497619  34.8234223  95.5439267   7.4810379
  29.2974521  91.6162181  13.4792550  29.1594319  90.8842419  14.0804089
  30.2079445  91.5271081  13.1976738  31.9256822  91.3282140  12.9676230
  32.6356440  90.6875332  12.9262848  31.8826130  91.5795035  13.8902411
  39.9143601  98.2649493  15.8882809  39.8556147  97.5808713  15.2213392
  40.3163119  99.0068483  15.4363435  30.6385756  88.3147358  14.7871869
  30.1023113  87.8638096  15.4393466  30.0502464  88.4493267  14.0442334
  39.9161008  96.2289077  14.1196789  39.0287787  95.8914999  14.2423188
  40.4859559  95.4972108  14.3565554  26.3724877  87.4503366  11.8724864
  26.2883066  86.8429035  11.1375274  25.5507584  87.9412384  11.8734360
  33.4462161 100.8890530  11.0858032  33.3732333 101.6945501  11.5977336
  33.0039554 101.0882495  10.2606053  36.5448591  85.9356929   7.2395059
  37.0417291  85.1826891   6.9196129  35.7735572  85.9721246   6.6738268
  44.3978348  91.6397295   8.8813350  44.3868225  92.5222010   8.5107283
  43.5295728  91.2868845   8.6867887  35.9060845 100.7877364  13.2416191
  36.6188817 101.4224828  13.1692092  35.4150873 100.8841230  12.4256192
  37.6278372  94.6928616   4.8133482  36.6934650  94.8130079   4.6438187
  37.8055040  93.7901083   4.5493492  33.1283560  88.0774312   6.9666743
  32.7581347  87.5245352   7.6547649  33.6242652  87.4732446   6.4141743
  41.0150923  90.5345936   5.3483516  41.4811375  91.3673927   5.2743819
  41.4658424  90.0690917   6.0528775  30.9572758  98.5371807  14.0621761
  31.6582218  99.1708290  14.2151156  30.4867873  98.8786539  13.3017401
  39.0827154  96.8789757   2.3469668  39.3586998  96.7646351   3.2563542
  38.2131653  96.4807242   2.3081841  38.9867586  82.9026523   9.3874418
  38.0730666  83.1330749   9.5556625  39.4160687  82.9864967  10.2388450
  38.7574044  91.0916415  11.8874312  38.1045495  91.3392322  11.2326764
  39.1354424  90.2780553  11.5536789  35.7181218 101.1276108   5.9902482
  35.9003613 100.3097764   6.4530234  36.5414204 101.3443800   5.5527372
  34.8061617  91.8336226  18.3740349  34.1302254  91.7330355  19.0442724
  35.6289251  91.6775439  18.8376346  33.5484400 103.1403153  12.6097965
  34.1002708 103.3034775  13.3747050  33.8890594 103.7307591  11.9377990
  28.5248893  85.4878303  13.2119849  28.5890220  86.3493134  12.7997247
  28.4616014  84.8752305  12.4792208  28.0001166  87.5601435  16.8592884
  28.6273205  87.1778513  17.4730408  27.1429085  87.3415637  17.2248576
  38.3995274  97.9664411  18.4646619  38.9435178  98.5794369  17.9701574
  37.8182119  98.5243989  18.9813632  36.6852787 101.0885129   9.5961647
  36.5603927 100.2874868   9.0872592  37.3431879 101.5831322   9.1075617
  28.3060956  87.4433861   8.7738787  27.5847541  88.0569829   8.6346260
  29.0954211  87.9791626   8.6955433  38.7487696  98.8894149  11.2241197
  37.8018031  98.7699500  11.1519524  39.0970469  98.0016647  11.3067458
  31.1087269  84.7788288  15.0479439  31.6321671  85.0250584  15.8105748
  30.8899602  85.6108322  14.6282576  35.7534129  98.6846865   7.4245549
  35.6059092  97.7563572   7.6053119  36.5787623  98.7066956   6.9402624
  39.3568251  99.5075424   8.5110422  40.2814798  99.3018285   8.3734873
  39.1883554  99.2591825   9.4199763  32.3139814  85.7201983  12.7329109
  31.9736635  84.9209796  13.1349789  31.6078821  86.0203694  12.1605943
  32.9656286  82.8051295  11.1856432  33.7882355  82.3311773  11.0635323
  33.2094350  83.5841779  11.6855119  31.6064521  85.8339554   1.4819334
  32.3272883  86.2120806   0.9783051  30.9829825  86.5528430   1.5854312
  35.7495643  86.5384703   2.4177666  35.9659258  87.4209340   2.1166495
  35.2689711  86.1470916   1.6883308  30.4894865  89.4970416   8.9948411
  30.3439446  89.8110719   9.8872693  30.0120068  90.1155316   8.4419310
  32.3491248  86.4872964   9.0429301  32.3352816  85.5914057   8.7061599
  33.0663676  86.4943627   9.6767587  34.2017378  86.9210304  11.0882428
  33.9435156  87.8427375  11.0866758  33.6702419  86.5240738  11.7782892
  39.1463567 100.0261091   3.8672513  39.3200445  99.4607514   3.1146366
  39.6392458 100.8261986   3.6852003  24.9640527  92.0375760  11.9336072
  24.4193995  92.8135568  12.0656347  25.8419877  92.3846565  11.7755194
  31.7528144  85.3687344   4.3116871  31.8744055  84.4403990   4.5107758
  31.4630186  85.3826030   3.3995186  34.6219334  83.0542254   7.4483591
  34.6441031  83.1181588   6.4935570  35.0387393  82.2146763   7.6424097
  45.0002958  92.7897514   5.4862813  45.4434104  92.0404839   5.0881936
  44.1229469  92.7807650   5.1036545  25.7506549  91.1645656  14.8266229
  25.0088285  91.3128292  15.4130860  25.4299293  91.4253922  13.9632979
  42.0330163  96.7927561   2.4956742  42.5581487  97.1314834   1.7706063
  41.9452515  95.8574576   2.3119877  33.6950211 100.7061635  14.6246619
  34.0037338 100.4610781  15.4969319  34.4925694 100.9108273  14.1365489
  31.1644696  98.4037553   8.9274297  30.5424705  97.7408258   8.6276525
  31.8349563  98.4298685   8.2447945  31.2369223  86.8819341  18.5206803
  31.2857379  87.7581464  18.1384573  31.7791737  86.3396734  17.9478447
  41.7224069  97.4260465  17.8007940  40.9319613  97.4084603  17.2612440
  41.4857423  97.9648758  18.5556977  41.8421944  94.2752931  15.1140669
  41.8919949  94.1102938  16.0556192  41.7335867  93.4080190  14.7238550
  39.1325706  90.2583859  16.4299976  40.0335569  90.1190324  16.1383974
  39.2073681  90.4238314  17.3698153  33.4668512  87.6350714  15.2753162
  32.5971821  87.9284280  15.0035751  33.7027992  88.2191159  15.9960426
  43.3440141  96.6949873  15.3582691  43.0524949  97.0579853  16.1946151
  42.7312272  95.9816881  15.1796023  44.5435823  94.2602752   7.8785261
  45.3782714  94.6992556   8.0422821  44.6794952  93.7841406   7.0593507
  41.5927329  91.8182487  13.8262749  42.0681451  92.0110133  13.0181600
  40.6692894  91.8741673  13.5806132  36.1707545  83.8530331  12.7918582
  36.6889489  84.5891358  12.4665071  35.8162678  84.1594324  13.6265342
  36.4220140  80.2730613   8.3119479  36.7021893  79.6053802   8.9379906
  37.2070747  80.4659709   7.7994143  40.2928998  88.6948247  12.0591054
  41.2446421  88.7946345  12.0803278  40.1232448  87.9026516  12.5689138
  38.3143377  85.7803830  12.2450455  37.7193310  86.0608843  11.5496944
  38.0293074  86.2697731  13.0167196  42.7717076  91.9154367  11.1733354
  42.7393396  90.9770368  11.3593038  43.3817699  91.9938404  10.4399179
  42.9211564  88.7065410  11.2191637  42.4050613  87.9223867  11.0321566
  43.8051513  88.3784127  11.3838156  40.5822291  82.4506426   7.1787450
  40.3847112  82.1421514   8.0630782  41.1921997  83.1768065   7.3085379
  48.5893626  92.9770374  10.3139391  49.3197014  92.7155662  10.8747094
  47.9800571  92.2399096  10.3541459  46.6708923  91.1178236  10.9113842
  45.9442086  90.9834201  10.3030333  46.2556210  91.4255065  11.7170560
  34.4939099  94.8368166  18.6761215  35.4142109  95.0146765  18.8701261
  34.4588682  93.8924211  18.5240914  27.4901172  92.7469201  11.3183996
  27.7087181  93.6786309  11.3372030  27.9026946  92.3877175  12.1038800
  34.4105390  83.2537286   3.3059684  33.6006118  82.9084371   3.6814930
  35.0989806  82.9444830   3.8947296  36.3395938  82.3315333   4.9283981
  36.8926976  82.7510786   5.5874004  36.5766024  81.4051081   4.9706937
  32.3629037  88.3202406  20.7086745  32.2625764  89.2696763  20.6398836
  32.1450579  87.9920645  19.8362815  39.7174745  84.4415858   4.4362645
  39.1373414  85.1000662   4.0540698  39.4510678  83.6193203   4.0250063
  38.1678311  83.8420916   6.6383966  38.6678090  83.9537450   5.8298284
  38.8113919  83.5381969   7.2784774  32.2260307  91.7499545  19.5251807
  31.7427389  92.5499905  19.7315696  32.3121246  91.7607490  18.5719251
  28.1533645  95.6404080  11.5620240  29.1076898  95.6088022  11.4950172
  27.9546168  95.1794704  12.3770466  28.7433027  94.2105196  14.1291038
  29.5625916  94.7049275  14.1525875  29.0169834  93.2937164  14.1008605
  38.4999623  86.6015948   3.4918994  37.6125478  86.8865599   3.2739188
  38.9153612  86.4409712   2.6446270  41.8514159  86.6262469   7.2073333
  42.6274549  87.1158922   7.4797950  41.1262293  87.0520524   7.6645202
  44.2886718  87.3390089   8.2647273  44.8831208  87.0985825   7.5540582
  44.3613301  86.6197219   8.8920810  38.4740647  92.1170484   3.7069284
  38.4175848  92.5739036   2.8676916  39.0268989  91.3561169   3.5292126
  42.2845453  87.9060216   4.5319403  42.0282387  87.5056852   5.3627611
  41.6598321  88.6204010   4.4069542  46.5957790  90.6456289   7.0390695
  46.0357348  90.7149479   7.8122257  45.9901294  90.4697274   6.3190191
  39.2075426  93.3075266   1.0021813  39.1524230  93.1419537   0.0610257
  38.5821481  94.0151298   1.1584003  23.9967941  88.5443330  14.8283235
  24.6426805  88.0342284  15.3170460  23.7885092  89.2812012  15.4026660
  36.5221333  95.6124177  20.3275376  37.3912493  95.7864830  19.9662011
  36.0428085  96.4318594  20.2051105  32.5171551  82.8083375   0.5807131
  32.5050221  83.7525214   0.7375402  33.4094973  82.6253520   0.2866592
  30.6907513 102.7321278  12.0064809  31.5934760 102.7644889  12.3231304
  30.4644883 101.8021729  12.0211145  36.3323671  79.4026151   4.8353068
  35.5656067  78.8484638   4.9809750  36.7434376  79.4748020   5.6967220
  28.3365432  85.6910947  18.9258249  29.1996893  85.3347752  19.1361574
  27.7630843  85.3524842  19.6133654  48.1813809 107.3212803   9.7320650
  48.8192219 107.2019551   9.0283990  48.0634652 108.2693647   9.7908602
  44.9903515 107.2740231   9.6682175  44.6522027 107.1581296   8.7802710
  45.8593283 106.8731397   9.6483181  45.4723298 108.4275083  15.6268380
  45.4611939 108.0327881  14.7548884  45.6343938 107.6941156  16.2202152
  42.1930559 111.2112195  14.5747564  41.9020425 112.1157826  14.4594231
  42.8287544 111.2528723  15.2891634  43.1186766 108.5889043  11.1648924
  43.7150338 108.3645066  10.4505887  43.1761738 107.8473789  11.7674372
  47.7355077 105.0464257   6.8073858  48.5218167 104.6283680   6.4564275
  47.9993782 105.9510349   6.9755507  50.6588925  98.6961064  12.1701445
  50.3272250  99.5656475  11.9462660  50.0634538  98.3797348  12.8495476
  47.1520444 110.8973610  11.5697358  46.8521167 111.7998649  11.4613165
  46.8071504 110.6305794  12.4218511  40.6032926 107.3487407   7.6034063
  39.6783422 107.2163621   7.8111754  40.8517339 108.1281627   8.1004005
  50.5517588 103.4156151   9.2494795  49.6434465 103.3471559   8.9553556
  50.5005184 103.8928096  10.0776621  44.6258454 104.8345796  17.1929693
  43.8491788 105.3939716  17.1832557  45.2649017 105.3202579  17.7144563
  52.4179235 101.6172589  11.0272669  51.7753615 101.9105122  10.3812464
  51.9134163 101.5025509  11.8325866  42.8804826 107.6431250  16.7547660
  43.6219511 108.1816294  16.4782483  42.1741812 108.2697538  16.9119212
  48.3560166 109.7860390  15.3519821  48.7643522 109.3442801  14.6074454
  47.6337427 109.2113018  15.6054014  44.7091236 104.7232997  12.7253378
  45.5552431 105.1472410  12.8688027  44.6489874 104.0666621  13.4191941
  47.8590681 102.3837365  14.3834552  47.6151613 103.1379426  13.8468828
  48.1350612 102.7622713  15.2181799  49.8129144 108.9275978  13.0611817
  50.0246039 109.5707737  12.3846199  49.7658892 108.0938294  12.5933748
  47.4155373 101.5393798   9.9648390  46.5539852 101.8375052  10.2565127
  47.4417808 101.7564197   9.0329422  41.1241023 109.6307470   9.3101958
  41.6942381 110.0594739   8.6719443  41.7149135 109.3490055  10.0086144
  41.6166190 104.7970898  17.5562970  40.9864851 105.4787179  17.7898367
  41.5102278 104.6853979  16.6116108  36.9111162 104.4642694   8.4828894
  36.1210216 104.7200222   8.0069005  37.4022410 105.2791032   8.5880934
  44.6931575 111.3531976  13.3894885  44.7576008 111.8152384  14.2253057
  43.9842499 110.7229341  13.5177195  35.1948865 104.7173184  10.9143885
  35.4456904 105.6020194  11.1801461  35.7308414 104.5377786  10.1418977
  40.8946933  99.0991664  19.9188221  40.5013878  98.5457862  20.5935865
  41.7113073  99.4102242  20.3094738  43.8114894 100.5149543  17.5108477
  44.5524607 101.1156696  17.4312940  44.0432817  99.7727181  16.9526520
  38.9556232 105.7005910  15.7886707  38.8409747 104.7991167  16.0893806
  38.1000749 105.9469607  15.4371524  46.0348069 113.6423650  17.3874208
  45.5911924 112.8560029  17.0695112  46.6965283 113.8302801  16.7218098
  40.7935191 115.1719452  11.9134886  41.3442616 115.0436515  11.1411880
  39.9546667 115.4714341  11.5629779  48.1329308 113.9226450  15.4155609
  48.1147783 114.7435331  14.9235878  49.0549228 113.7980525  15.6405750
  44.5902362 111.4370580  16.2579117  45.1230698 110.6758868  16.0278425
  44.0616443 111.1444232  17.0003272  47.7572057  96.5430646  11.7872759
  47.4136326  97.4332287  11.7111870  48.1251019  96.3532303  10.9242344
  45.3069450 101.3788958   5.3530433  44.4511047 100.9895808   5.1736071
  45.7196402 101.4580918   4.4930218  46.8368597  98.9135301   9.7521992
  46.3333393  98.8765436   8.9389798  47.1299204  99.8228044   9.8118649
  43.0811483  98.9974031   8.7588174  43.9464480  98.8016839   8.3994064
  43.1488992  98.7684382   9.6857531  40.6873802 101.2276238   6.1304541
  41.2617554 101.0051420   5.3977734  41.2744784 101.2964933   6.8833142
  42.9896470  98.1017487   4.8579610  42.3360882  97.7866505   4.2336225
  42.9476944  97.4793228   5.5839433  46.2234210 104.5899421   9.1827258
  45.3056771 104.8114368   9.0248946  46.6394354 104.6645731   8.3238965
  49.5559722  95.8024205   6.8890497  49.8618599  94.9421568   6.6016412
  50.2812327  96.3941825   6.6889491  43.8280802 106.0977998   7.3966688
  43.8829412 105.1451834   7.3209164  43.0172004 106.2537437   7.8807986
  41.7673162 104.7155058   5.1557067  40.9541027 105.0149228   5.5622259
  42.2632156 104.3210746   5.8731549  47.3647374 105.1796882  13.9871961
  47.7196761 105.4068355  14.8466426  48.0119505 105.5115259  13.3649216
  41.2587237 102.2873413  10.7718302  41.8986616 102.1462172  10.0741265
  40.4264767 102.0007927  10.3956904  46.8542385 113.9693939  11.2365662
  46.9079407 114.5384875  12.0043378  45.9857166 114.1395824  10.8719699
  38.2615853 102.2573738   5.5491288  38.5222670 103.1719071   5.4400449
  39.0833025 101.7898181   5.6987901  39.7340778 103.6711495  12.7190113
  40.4063832 103.4628857  12.0702762  38.9070565 103.4733581  12.2795345
  45.6366350 100.2973436  14.7355774  44.9894266 100.9963386  14.6420250
  46.4067366 100.7309580  15.1032022  49.0445148 110.5622288  17.8106327
  48.8930655 110.3332840  16.8936411  49.0349828 111.5192890  17.8237672
  45.8130485 108.1354201  12.7952594  46.7422545 108.2865361  12.6221561
  45.3921515 108.2238222  11.9401240  44.6118817 112.1604866  10.5651131
  44.4729902 111.7923650  11.4377069  43.8233413 112.6752505  10.3935089
  40.1368276 106.9454098  13.4792550  39.9988074 106.2134337  14.0804089
  41.0473199 106.8562998  13.1976738  42.7650576 106.6574058  12.9676230
  43.4750195 106.0167250  12.9262848  42.7219885 106.9086953  13.8902411
  50.7537355 113.5941411  15.8882809  50.6949901 112.9100631  15.2213392
  51.1556873 114.3360401  15.4363435  41.4779510 103.6439276  14.7871869
  40.9416867 103.1930014  15.4393466  40.8896219 103.7785184  14.0442334
  50.7554762 111.5580995  14.1196789  49.8681541 111.2206917  14.2423188
  51.3253313 110.8264026  14.3565554  37.2118632 102.7795283  11.8724864
  37.1276820 102.1720953  11.1375274  36.3901338 103.2704302  11.8734360
  47.3842345 101.2648847   7.2395059  47.8811045 100.5118809   6.9196129
  46.6129327 101.3013163   6.6738268  46.7454599 116.1169281  13.2416191
  47.4582571 116.7516746  13.1692092  46.2544628 116.2133147  12.4256192
  43.9677314 103.4066230   6.9666743  43.5975102 102.8537270   7.6547649
  44.4636407 102.8024363   6.4141743  41.7966513 113.8663725  14.0621761
  42.4975972 114.5000208  14.2151156  41.3261628 114.2078456  13.3017401
  49.8261340  98.2318440   9.3874418  48.9124420  98.4622667   9.5556625
  50.2554442  98.3156884  10.2388450  49.5967799 106.4208332  11.8874312
  48.9439249 106.6684240  11.2326764  49.9748179 105.6072470  11.5536789
  45.6455372 107.1628143  18.3740349  44.9696009 107.0622273  19.0442724
  46.4683006 107.0067357  18.8376346  39.3642648 100.8170221  13.2119849
  39.4283974 101.6785051  12.7997247  39.3009768 100.2044222  12.4792208
  38.8394920 102.8893353  16.8592884  39.4666959 102.5070430  17.4730408
  37.9822839 102.6707555  17.2248576  49.2389029 113.2956328  18.4646619
  49.7828933 113.9086287  17.9701574  48.6575874 113.8535907  18.9813632
  39.1454710 102.7725779   8.7738787  38.4241296 103.3861746   8.6346260
  39.9347966 103.3083544   8.6955433  41.9481024 100.1080205  15.0479439
  42.4715426 100.3542502  15.8105748  41.7293357 100.9400240  14.6282576
  43.1533569 101.0493900  12.7329109  42.8130389 100.2501713  13.1349789
  42.4472575 101.3495611  12.1605943  43.8050041  98.1343213  11.1856432
  44.6276110  97.6603691  11.0635323  44.0488104  98.9133697  11.6855119
  41.3288619 104.8262333   8.9948411  41.1833200 105.1402636   9.8872693
  40.8513823 105.4447234   8.4419310  43.1885002 101.8164881   9.0429301
  43.1746571 100.9205975   8.7061599  43.9057430 101.8235545   9.6767587
  45.0411133 102.2502222  11.0882428  44.7828911 103.1719292  11.0866758
  44.5096173 101.8532656  11.7782892  35.8034281 107.3667678  11.9336072
  35.2587750 108.1427486  12.0656347  36.6813631 107.7138482  11.7755194
  42.5921898 100.6979262   4.3116871  42.7137809  99.7695908   4.5107758
  42.3023941 100.7117948   3.3995186  45.4613089  98.3834172   7.4483591
  45.4834785  98.4473505   6.4935570  45.8781148  97.5438681   7.6424097
  36.5900303 106.4937574  14.8266229  35.8482039 106.6420209  15.4130860
  36.2693048 106.7545840  13.9632979  44.5343966 116.0353552  14.6246619
  44.8431092 115.7902699  15.4969319  45.3319448 116.2400191  14.1365489
  42.0762978 102.2111259  18.5206803  42.1251133 103.0873382  18.1384573
  42.6185492 101.6688652  17.9478447  52.5617823 112.7552382  17.8007940
  51.7713367 112.7376521  17.2612440  52.3251178 113.2940676  18.5556977
  52.6815698 109.6044849  15.1140669  52.7313703 109.4394856  16.0556192
  52.5729622 108.7372108  14.7238550  49.9719461 105.5875777  16.4299976
  50.8729324 105.4482242  16.1383974  50.0467435 105.7530232  17.3698153
  44.3062266 102.9642631  15.2753162  43.4365576 103.2576198  15.0035751
  44.5421746 103.5483076  15.9960426  54.1833895 112.0241790  15.3582691
  53.8918704 112.3871771  16.1946151  53.5706027 111.3108798  15.1796023
  52.4321083 107.1474405  13.8262749  52.9075205 107.3402051  13.0181600
  51.5086649 107.2033591  13.5806132  47.0101300  99.1822248  12.7918582
  47.5283244  99.9183275  12.4665071  46.6556433  99.4886242  13.6265342
  47.2613894  95.6022531   8.3119479  47.5415648  94.9345720   8.9379906
  48.0464501  95.7951627   7.7994143  51.1322752 104.0240165  12.0591054
  52.0840175 104.1238263  12.0803278  50.9626203 103.2318433  12.5689138
  49.1537132 101.1095748  12.2450455  48.5587064 101.3900761  11.5496944
  48.8686829 101.5989649  13.0167196  53.6110830 107.2446285  11.1733354
  53.5787150 106.3062285  11.3593038  54.2211454 107.3230321  10.4399179
  53.7605319 104.0357328  11.2191637  53.2444367 103.2515785  11.0321566
  54.6445267 103.7076045  11.3838156  51.4216046  97.7798344   7.1787450
  51.2240867  97.4713432   8.0630782  52.0315751  98.5059983   7.3085379
  45.3332854 110.1660084  18.6761215  46.2535863 110.3438683  18.8701261
  45.2982437 109.2216129  18.5240914  38.3294926 108.0761118  11.3183996
  38.5480936 109.0078226  11.3372030  38.7420700 107.7169093  12.1038800
  45.2499144  98.5829204   3.3059684  44.4399872  98.2376289   3.6814930
  45.9383561  98.2736747   3.8947296  47.1789692  97.6607250   4.9283981
  47.7320731  98.0802704   5.5874004  47.4159779  96.7342999   4.9706937
  43.2022792 103.6494324  20.7086745  43.1019518 104.5988681  20.6398836
  42.9844334 103.3212563  19.8362815  49.0072066  99.1712833   6.6383966
  49.5071844  99.2829368   5.8298284  49.6507674  98.8673886   7.2784774
  43.0654062 107.0791463  19.5251807  42.5821143 107.8791823  19.7315696
  43.1515001 107.0899408  18.5719251  38.9927399 110.9695998  11.5620240
  39.9470653 110.9379940  11.4950172  38.7939923 110.5086621  12.3770466
  39.5826781 109.5397114  14.1291038  40.4019670 110.0341192  14.1525875
  39.8563589 108.6229082  14.1008605  52.6907914 101.9554387   7.2073333
  53.4668304 102.4450839   7.4797950  51.9656048 102.3812441   7.6645202
  34.8361695 103.8735248  14.8283235  35.4820559 103.3634202  15.3170460
  34.6278847 104.6103929  15.4026660  47.3615088 110.9416095  20.3275376
  48.2306247 111.1156747  19.9662011  46.8821839 111.7610512  20.2051105
  41.5301268 118.0613196  12.0064809  42.4328515 118.0936806  12.3231304
  41.3038638 117.1313647  12.0211145  47.1717425  94.7318069   4.8353068
  46.4049821  94.1776556   4.9809750  47.5828130  94.8039938   5.6967220
  39.1759186 101.0202865  18.9258249  40.0390648 100.6639670  19.1361574
  38.6024597 100.6816759  19.6133654  51.7340687 114.4283581  19.9188221
  51.3407633 113.8749780  20.5935865  52.5506828 114.7394160  20.3094738
  54.6508648 115.8441460  17.5108477  55.3918362 116.4448614  17.4312940
  54.8826571 115.1019098  16.9526520  49.6788675 118.2185271  16.8592884
  50.3060714 117.8362348  17.4730408  48.8216594 117.9999473  17.2248576
  52.9156732 117.5403177  18.5206803  52.9644888 118.4165300  18.1384573
  53.4579246 116.9980570  17.9478447  54.0416546 118.9786242  20.7086745
  53.9413273 119.9280599  20.6398836  53.8238088 118.6504481  19.8362815
  45.6755450 119.2027165  14.8283235  46.3214314 118.6926119  15.3170460
  45.4672601 119.9395847  15.4026660  50.0152941 116.3494782  18.9258249
  50.8784402 115.9931587  19.1361574  49.4418352 116.0108677  19.6133654
  24.3560562  59.9901938   4.1119514  23.9124416  59.2038316   3.7940419
  25.0177775  60.1781088   3.4463405  26.4541800  60.2704737   2.1400916
  26.4360275  61.0913619   1.6481185  27.3761720  60.1458813   2.3651057
  27.3657641  56.9100576   4.5351634  27.2143147  56.6811127   3.6181717
  27.3562320  57.8671177   4.5482979  29.0749847  59.9419698   2.6128116
  29.0162394  59.2578918   1.9458699  29.4769366  60.6838688   2.1608742
  27.5601521  59.6434615   5.1891926  28.1041425  60.2564574   4.6946881
  26.9788366  60.2014194   5.7058939  30.8830316  59.1030670   4.5253247
  30.0925859  59.0854808   3.9857747  30.6463670  59.6418963   5.2802284
  32.5046388  58.3720077   2.0827997  32.2131196  58.7350058   2.9191458
  31.8918519  57.6587086   1.9041329  25.6827580  57.2894382   7.0520682
  26.5518740  57.4635035   6.6907317  25.2034331  58.1088799   6.9296412
  37.3420056  68.9983008  -3.5434043  37.9798466  68.8789756  -4.2470703
  37.2240899  69.9463852  -3.4846091  34.1509762  68.9510436  -3.6072518
  33.8128273  68.8351501  -4.4951984  35.0199530  68.5501601  -3.6271512
  34.6329545  70.1045288   2.3513687  34.6218186  69.7098086   1.4794191
  34.7950184  69.3711361   2.9447459  31.3536806  72.8882400   1.2992871
  31.0626672  73.7928031   1.1839537  31.9893790  72.9298928   2.0136941
  32.2793013  70.2659248  -2.1105769  32.8756585  70.0415271  -2.8248806
  32.3367984  69.5243994  -1.5080321  42.2969751  66.6609695  -5.5647857
  43.0294923  66.0908912  -5.3310027  41.5409107  66.2731296  -5.1241351
  39.8195172  60.3731269  -1.1053248  39.4878496  61.2426680  -1.3292033
  39.2240785  60.0567553  -0.4259218  36.3126691  72.5743815  -1.7057335
  36.0127414  73.4768854  -1.8141528  35.9677751  72.3075999  -0.8536182
  39.7123835  65.0926356  -4.0259898  38.8040712  65.0241764  -4.3201137
  39.6611431  65.5698301  -3.1978072  33.7864701  66.5116001   3.9174999
  33.0098035  67.0709921   3.9077864  34.4255264  66.9972784   4.4389870
  41.5785481  63.2942794  -2.2482024  40.9359862  63.5875327  -2.8942229
  41.0740410  63.1795714  -1.4428827  32.0411073  69.3201455   3.4792966
  32.7825757  69.8586499   3.2027790  31.3348058  69.9467743   3.6364518
  37.5166413  71.4630595   2.0765128  37.9249769  71.0213006   1.3319760
  36.7943674  70.8883223   2.3299321  33.8697483  66.4003202  -0.5501315
  34.7158678  66.8242615  -0.4066666  33.8096120  65.7436826   0.1437248
  37.8395227  72.0231786  -4.1682583  37.2104090  72.1877500  -4.8706515
  37.4520889  72.4373395  -3.3971619  41.7184459  72.9586223  -6.8138219
  41.0335497  73.3385125  -7.3641186  41.8028308  73.5681550  -6.0806272
  37.0196928  64.0607570   1.1079858  36.7757860  64.8149631   0.5714134
  37.2956859  64.4392918   1.9427106  38.9735391  70.6046183  -0.2142876
  39.1852286  71.2477942  -0.8908495  38.9265139  69.7708499  -0.6820946
  33.3923189  71.7606194  -6.9032498  33.8561535  72.0393897  -7.6927876
  33.1279987  70.8589638  -7.0859407  30.2847270  71.3077675  -3.9652735
  30.8548627  71.7364944  -4.6035250  30.8755382  71.0260260  -3.2668549
  30.7772437  66.4741103   4.2808276  30.1471097  67.1557384   4.5143673
  30.6708525  66.3624184   3.3361415  40.0881219  73.4818138  -2.0420519
  40.9098662  73.0798325  -2.3237837  40.0843622  73.3786372  -1.0904403
  33.8537822  73.0302181   0.1140192  33.9182255  73.4922588   0.9498364
  33.1448746  72.3999546   0.2422502  48.1787212  69.8256886  -5.6935547
  47.4250920  69.2564284  -5.8491543  48.3134753  69.7919551  -4.7464912
  30.0553179  60.7761869   6.6433527  29.6620125  60.2228067   7.3181172
  30.8719320  61.0872447   7.0340045  32.9721140  62.1919748   4.2353784
  33.7130854  62.7926901   4.1558246  33.2039063  61.4497385   3.6771827
  28.1162478  67.3776115   2.5132014  28.0015994  66.4761372   2.8139113
  27.2606996  67.6239812   2.1616830  35.1954316  75.3193855   4.1119514
  34.7518170  74.5330234   3.7940419  35.8571530  75.5073006   3.4463405
  29.9541437  76.8489657  -1.3619807  30.5048863  76.7206720  -2.1342813
  29.1152913  77.1484546  -1.7124914  37.2935554  75.5996655   2.1400916
  37.2754030  76.4205536   1.6481185  38.2155474  75.4750730   2.3651057
  33.7508608  73.1140785   2.9824424  34.2836945  72.3529073   2.7523732
  33.2222690  72.8214436   3.7248578  40.0954167  70.4375798  -4.3889718
  39.4377842  71.1275059  -4.3009589  40.8994566  70.8272230  -4.0455731
  38.9059626  68.7920170  -6.3385776  39.4191508  69.4250162  -5.8364066
  39.5560850  68.1921366  -6.7042416  35.3840457  66.2669626  -4.0927435
  34.4663018  66.4884573  -4.2505747  35.8000600  66.3415936  -4.9515728
  39.6721422  73.7726172  -8.2106633  39.2183749  72.9317082  -8.1541443
  39.0415389  74.4087570  -7.8731853  38.1154361  75.6102668  -7.2756815
  38.4077336  76.1707726  -7.9944450  38.6252982  75.9031229  -6.5203656
  36.5253620  66.8567087   0.7117267  36.8803008  67.0838560   1.5711733
  37.1725752  67.1885464   0.0894523  42.2551357  69.9785523  -8.5833404
  42.1169256  70.1687119  -9.5112215  41.8987576  70.7404906  -8.1265353
  42.2820737  72.0462050  -3.5722132  42.7157244  71.9537339  -2.7239078
  42.9952318  72.0219550  -4.2102116  36.0148632  75.6464144  -2.0389032
  36.0685654  76.2155080  -1.2711316  35.1463413  75.8166029  -2.4034995
  28.8947025  65.3481700  -0.5564580  29.5670079  65.1399062  -1.2051931
  28.0676812  65.1503786  -0.9959348  43.1436287  72.0885751  -1.0389247
  43.3372177  72.9931561  -0.7929972  43.0436905  71.6293170  -0.2050662
  34.7972597  61.9743641   1.4601080  34.1500512  62.6733591   1.3665557
  35.5673613  62.4079785   1.8277329  38.2051395  72.2392493   4.5351634
  38.0536902  72.0103045   3.6181717  38.1956075  73.1963095   4.5482979
  34.9736732  69.8124406  -0.4802100  35.9028792  69.9635566  -0.6533132
  34.5527762  69.9008427  -1.3353453  33.7725063  73.8375071  -2.7103562
  33.6336149  73.4693855  -1.8377624  32.9839660  74.3522710  -2.8819604
  35.3230279  73.2156673  -5.3214724  34.9880111  73.1757443  -4.4257075
  34.8234224  72.5501389  -5.7944314  29.2974522  68.6224303   0.2037857
  29.1594320  67.8904542   0.8049396  30.2079446  68.5333203  -0.0777955
  31.9256823  68.3344263  -0.3078464  32.6356442  67.6937455  -0.3491845
  31.8826131  68.5857157   0.6147717  39.9143602  75.2711616   2.6128116
  39.8556148  74.5870836   1.9458699  40.3163120  76.0130606   2.1608742
  30.6385757  65.3209480   1.5117176  30.1023114  64.8700219   2.1638772
  30.0502466  65.4555389   0.7687640  39.9161009  73.2351200   0.8442095
  39.0287788  72.8977122   0.9668494  40.4859560  72.5034231   1.0810861
  33.4462163  77.8952652  -2.1896661  33.3732334  78.7007624  -1.6777357
  33.0039556  78.0944618  -3.0148640  44.3978350  68.6459417  -4.3941343
  44.3868226  69.5284133  -4.7647410  43.5295729  68.2930968  -4.5886806
  35.9060846  77.7939486  -0.0338503  36.6188818  78.4286951  -0.1062601
  35.4150875  77.8903352  -0.8498501  37.6278373  71.6990739  -8.4621211
  36.6934652  71.8192201  -8.6316507  37.8055041  70.7963206  -8.7261201
  41.0150924  67.5408058  -7.9271177  41.4811376  68.3736050  -8.0010874
  41.4658425  67.0753040  -7.2225919  30.9572760  75.5433930   0.7867068
  31.6582219  76.1770413   0.9396462  30.4867875  75.8848661   0.0262707
  38.7574046  68.0978537  -1.3880382  38.1045496  68.3454445  -2.0427929
  39.1354425  67.2842675  -1.7217904  35.7181219  78.1338230  -7.2852211
  35.9003614  77.3159886  -6.8224459  36.5414205  78.3505923  -7.7227321
  34.8061619  68.8398348   5.0985655  34.1302256  68.7392478   5.7688031
  35.6289252  68.6837562   5.5621653  33.5484401  80.1465276  -0.6656729
  34.1002709  80.3096897   0.0992357  33.8890595  80.7369713  -1.3376704
  28.0001167  64.5663558   3.5838190  28.6273206  64.1840635   4.1975715
  27.1429086  64.3477760   3.9493883  38.3995276  74.9726533   5.1891926
  38.9435180  75.5856491   4.6946881  37.8182121  75.5306112   5.7058939
  36.6852789  78.0947251  -3.6793046  36.5603928  77.2936991  -4.1882101
  37.3431880  78.5893445  -4.1679076  38.7487697  75.8956271  -2.0513496
  37.8018033  75.7761622  -2.1235170  39.0970470  75.0078769  -1.9687235
  31.1087270  61.7850410   1.7724746  31.6321672  62.0312707   2.5351055
  30.8899604  62.6170445   1.3527883  35.7534130  75.6908987  -5.8509144
  35.6059093  74.7625695  -5.6701574  36.5787624  75.7129078  -6.3352069
  39.3568252  76.5137546  -4.7644271  40.2814800  76.3080408  -4.9019820
  39.1883556  76.2653947  -3.8554930  32.3139816  62.7264105  -0.5425584
  31.9736636  61.9271918  -0.1404904  31.6078822  63.0265816  -1.1148751
  34.2017380  63.9272427  -2.1872265  33.9435158  64.8489497  -2.1887935
  33.6702420  63.5302861  -1.4971801  39.1463568  77.0323214  -9.4082180
  39.3200446  76.4669636 -10.1608327  39.6392460  77.8324109  -9.5902690
  24.9640528  69.0437883  -1.3418621  24.4193996  69.8197691  -1.2098347
  25.8419878  69.3908687  -1.4999500  45.0002960  69.7959637  -7.7891880
  45.4434106  69.0466962  -8.1872757  44.1229470  69.7869773  -8.1718148
  25.7506550  68.1707779   1.5511536  25.0088286  68.3190414   2.1376166
  25.4299294  68.4316045   0.6878285  42.0330164  73.7989684 -10.7797951
  42.5581488  74.1376956 -11.5048631  41.9452517  72.8636699 -10.9634816
  33.6950213  77.7123757   1.3491926  34.0037339  77.4672904   2.2214625
  34.4925695  77.9170396   0.8610796  31.1644697  75.4099676  -4.3480396
  30.5424706  74.7470381  -4.6478168  31.8349564  75.4360808  -5.0306748
  31.2369224  63.8881464   5.2452110  31.2857380  64.7643587   4.8629880
  31.7791739  63.3458857   4.6723753  41.7224070  74.4322587   4.5253247
  40.9319614  74.4146726   3.9857747  41.4857425  74.9710881   5.2802284
  41.8421945  71.2815054   1.8385976  41.8919950  71.1165061   2.7801498
  41.7335869  70.4142313   1.4483856  39.1325708  67.2645982   3.1545282
  40.0335570  67.1252446   2.8629280  39.2073682  67.4300436   4.0943460
  33.4668513  64.6412836   1.9998469  32.5971822  64.9346402   1.7281057
  33.7027993  65.2253281   2.7205732  43.3440142  73.7011995   2.0827997
  43.0524950  74.0641976   2.9191458  42.7312273  72.9879003   1.9041329
  44.5435824  71.2664875  -5.3969433  45.3782716  71.7054679  -5.2331872
  44.6794953  70.7903528  -6.2161187  41.5927330  68.8244610   0.5508055
  42.0681452  69.0172256  -0.2573093  40.6692896  68.8803796   0.3051439
  36.1707547  60.8592453  -0.4836111  36.6889491  61.5953480  -0.8089622
  35.8162679  61.1656447   0.3510648  40.2928999  65.7010370  -1.2163639
  41.2446422  65.8008468  -1.1951415  40.1232450  64.9088638  -0.7065555
  38.3143379  62.7865953  -1.0304238  37.7193311  63.0670966  -1.7257750
  38.0293075  63.2759854  -0.2587497  42.7717077  68.9216490  -2.1021340
  42.7393397  67.9832490  -1.9161656  43.3817701  69.0000526  -2.8355515
  42.9211566  65.7127533  -2.0563056  42.4050614  64.9285990  -2.2433128
  43.8051514  65.3846250  -1.8916537  48.5893627  69.9832496  -2.9615303
  49.3197015  69.7217785  -2.4007599  47.9800572  69.2461218  -2.9213235
  46.6708924  68.1240359  -2.3640852  45.9442088  67.9896324  -2.9724360
  46.2556211  68.4317188  -1.5584134  34.4939100  71.8430289   5.4006521
  35.4142110  72.0208888   5.5946568  34.4588683  70.8986334   5.2486221
  27.4901173  69.7531323  -1.9570697  27.7087183  70.6848431  -1.9382664
  27.9026947  69.3939298  -1.1715894  32.3629038  65.3264529   7.4332052
  32.2625765  66.2758886   7.3644143  32.1450580  64.9982768   6.5608122
  32.2260308  68.7561668   6.2497113  31.7427390  69.5562028   6.4561002
  32.3121247  68.7669613   5.2964557  28.1533646  72.6466203  -1.7134453
  29.1076899  72.6150145  -1.7804521  27.9546169  72.1856826  -0.8984227
  28.7433028  71.2167319   0.8536345  29.5625917  71.7111397   0.8771182
  29.0169836  70.2999287   0.8253912  41.8514160  63.6324592  -6.0681361
  42.6274550  64.1221044  -5.7956744  41.1262294  64.0582646  -5.6109491
  44.2886719  64.3452211  -5.0107420  44.8831210  64.1047947  -5.7214112
  44.3613303  63.6259342  -4.3833884  46.5957792  67.6518412  -6.2363999
  46.0357350  67.7211601  -5.4632437  45.9901295  67.4759397  -6.9564503
  23.9967942  65.5505453   1.5528542  24.6426806  65.0404406   2.0415767
  23.7885093  66.2874134   2.1271967  36.5221334  72.6186300   7.0520682
  37.3912494  72.7926952   6.6907317  36.0428086  73.4380717   6.9296412
  30.6907515  79.7383401  -1.2689884  31.5934761  79.7707011  -0.9523389
  30.4644885  78.8083852  -1.2543548  28.3365433  62.6973070   5.6503556
  29.1996895  62.3409874   5.8606881  27.7630844  62.3586964   6.3378960
  48.1813810  84.3274926  -3.5434043  48.8192220  84.2081673  -4.2470703
  48.0634653  85.2755770  -3.4846091  44.9903516  84.2802354  -3.6072518
  44.6522028  84.1643419  -4.4951984  45.8593285  83.8793519  -3.6271512
  45.4723299  85.4337206   2.3513687  45.4611940  85.0390004   1.4794191
  45.6343939  84.7003278   2.9447459  42.1930561  88.2174318   1.2992871
  41.9020427  89.1219948   1.1839537  42.8287545  88.2590845   2.0136941
  43.1186767  85.5951166  -2.1105769  43.7150340  85.3707188  -2.8248806
  43.1761739  84.8535912  -1.5080321  47.7355079  82.0526380  -6.4680835
  48.5218168  81.6345803  -6.8190418  47.9993783  82.9572472  -6.2999187
  50.6588926  75.7023187  -1.1053248  50.3272251  76.5718598  -1.3292033
  50.0634539  75.3859471  -0.4259218  47.1520446  87.9035733  -1.7057335
  46.8521169  88.8060772  -1.8141528  46.8071505  87.6367916  -0.8536182
  40.6032927  84.3549530  -5.6720631  39.6783424  84.2225744  -5.4642939
  40.8517340  85.1343749  -5.1750688  50.5517589  80.4218273  -4.0259898
  49.6434467  80.3533682  -4.3201137  50.5005185  80.8990218  -3.1978072
  44.6258455  81.8407919   3.9174999  43.8491789  82.4001839   3.9077864
  45.2649018  82.3264702   4.4389870  52.4179236  78.6234712  -2.2482024
  51.7753616  78.9167245  -2.8942229  51.9134164  78.5087632  -1.4428827
  42.8804827  84.6493372   3.4792966  43.6219512  85.1878416   3.2027790
  42.1741813  85.2759661   3.6364518  48.3560167  86.7922513   2.0765128
  48.7643523  86.3504923   1.3319760  47.6337429  86.2175140   2.3299321
  44.7091237  81.7295119  -0.5501315  45.5552432  82.1534533  -0.4066666
  44.6489875  81.0728744   0.1437248  47.8590683  79.3899488   1.1079858
  47.6151614  80.1441548   0.5714134  48.1350613  79.7684835   1.9427106
  49.8129145  85.9338100  -0.2142876  50.0246041  86.5769860  -0.8908495
  49.7658894  85.1000417  -0.6820946  47.4155374  78.5455921  -3.3106304
  46.5539853  78.8437174  -3.0189566  47.4417809  78.7626320  -4.2425271
  41.1241025  86.6369593  -3.9652735  41.6942382  87.0656861  -4.6035250
  41.7149137  86.3552178  -3.2668549  41.6166191  81.8033020   4.2808276
  40.9864852  82.4849301   4.5143673  41.5102279  81.6916102   3.3361415
  36.9111164  81.4704816  -4.7925799  36.1210218  81.7262345  -5.2685689
  37.4022411  82.2853154  -4.6873759  44.6931577  88.3594099   0.1140192
  44.7576009  88.8214506   0.9498364  43.9842501  87.7291464   0.2422502
  35.1948867  81.7235307  -2.3610809  35.4456905  82.6082317  -2.0953233
  35.7308415  81.5439908  -3.1335717  40.8946934  76.1053786   6.6433527
  40.5013880  75.5519985   7.3181172  41.7113074  76.4164365   7.0340045
  43.8114895  77.5211665   4.2353784  44.5524608  78.1218818   4.1558246
  44.0432818  76.7789303   3.6771827  38.9556233  82.7068033   2.5132014
  38.8409748  81.8053290   2.8139113  38.1000751  82.9531729   2.1616830
  46.0348071  90.6485773   4.1119514  45.5911925  89.8622151   3.7940419
  46.6965284  90.8364923   3.4463405  40.7935192  92.1781574  -1.3619807
  41.3442617  92.0498638  -2.1342813  39.9546668  92.4776464  -1.7124914
  48.1329309  90.9288573   2.1400916  48.1147784  91.7497454   1.6481185
  49.0549229  90.8042648   2.3651057  44.5902363  88.4432702   2.9824424
  45.1230700  87.6820990   2.7523732  44.0616444  88.1506354   3.7248578
  47.7572058  73.5492768  -1.4881934  47.4136327  74.4394410  -1.5642824
  48.1251021  73.3594426  -2.3512349  45.3069452  78.3851080  -7.9224261
  44.4511048  77.9957931  -8.1018622  45.7196403  78.4643041  -8.7824475
  46.8368598  75.9197423  -3.5232701  46.3333394  75.8827559  -4.3364896
  47.1299205  76.8290166  -3.4636044  43.0811484  76.0036153  -4.5166519
  43.9464481  75.8078962  -4.8760630  43.1488993  75.7746505  -3.5897163
  40.6873803  78.2338361  -7.1450153  41.2617555  78.0113543  -7.8776960
  41.2744786  78.3027056  -6.3921551  42.9896471  75.1079610  -8.4175083
  42.3360883  74.7928627  -9.0418468  42.9476945  74.4855350  -7.6915260
  46.2234211  81.5961544  -4.0927435  45.3056773  81.8176491  -4.2505747
  46.6394355  81.6707854  -4.9515728  49.5559724  72.8086327  -6.3864197
  49.8618600  71.9483691  -6.6738282  50.2812328  73.4003948  -6.5865203
  43.8280803  83.1040121  -5.8788006  43.8829413  82.1513957  -5.9545529
  43.0172005  83.2599560  -5.3946707  41.7673163  81.7217180  -8.1197627
  40.9541029  82.0211351  -7.7132435  42.2632157  81.3272869  -7.4023144
  47.3647375  82.1859005   0.7117267  47.7196763  82.4130478   1.5711733
  48.0119506  82.5177382   0.0894523  41.2587238  79.2935536  -2.5036392
  41.8986617  79.1524295  -3.2013428  40.4264769  79.0070049  -2.8797790
  46.8542386  90.9756062  -2.0389032  46.9079409  91.5446998  -1.2711316
  45.9857168  91.1457947  -2.4034995  38.2615854  79.2635861  -7.7263405
  38.5222672  80.1781194  -7.8354244  39.0833027  78.7960303  -7.5766792
  39.7340780  80.6773618  -0.5564580  40.4063833  80.4690980  -1.2051931
  38.9070566  80.4795704  -0.9959348  45.6366352  77.3035559   1.4601080
  44.9894267  78.0025509   1.3665557  46.4067367  77.7371703   1.8277329
  49.0445150  87.5684411   4.5351634  48.8930656  87.3394963   3.6181717
  49.0349829  88.5255012   4.5482979  45.8130486  85.1416324  -0.4802100
  46.7422546  85.2927483  -0.6533132  45.3921516  85.2300345  -1.3353453
  44.6118818  89.1666988  -2.7103562  44.4729904  88.7985773  -1.8377624
  43.8233414  89.6814628  -2.8819604  40.1368277  83.9516221   0.2037857
  39.9988075  83.2196460   0.8049396  41.0473200  83.8625121  -0.0777955
  42.7650578  83.6636180  -0.3078464  43.4750196  83.0229372  -0.3491845
  42.7219886  83.9149075   0.6147717  50.7537356  90.6003534   2.6128116
  50.6949902  89.9162754   1.9458699  51.1556875  91.3422524   2.1608742
  41.4779512  80.6501398   1.5117176  40.9416869  80.1992137   2.1638772
  40.8896220  80.7847307   0.7687640  50.7554764  88.5643118   0.8442095
  49.8681542  88.2269039   0.9668494  51.3253315  87.8326149   1.0810861
  37.2118633  79.7857406  -1.4029830  37.1276822  79.1783075  -2.1379420
  36.3901339  80.2766424  -1.4020333  47.3842347  78.2710969  -6.0359635
  47.8811046  77.5180932  -6.3558564  46.6129328  78.3075286  -6.6016425
  46.7454601  93.1231404  -0.0338503  47.4582573  93.7578869  -0.1062601
  46.2544629  93.2195270  -0.8498501  43.9677315  80.4128352  -6.3087950
  43.5975103  79.8599393  -5.6207044  44.4636408  79.8086486  -6.8612950
  41.7966514  90.8725847   0.7867068  42.4975974  91.5062330   0.9396462
  41.3261629  91.2140579   0.0262707  49.8261342  75.2380563  -3.8880276
  48.9124421  75.4684790  -3.7198069  50.2554443  75.3219007  -3.0366243
  49.5967800  83.4270455  -1.3880382  48.9439250  83.6746362  -2.0427929
  49.9748180  82.6134593  -1.7217904  45.6455373  84.1690266   5.0985655
  44.9696010  84.0684395   5.7688031  46.4683007  84.0129480   5.5621653
  39.3642649  77.8232343  -0.0634844  39.4283976  78.6847174  -0.4757446
  39.3009769  77.2106345  -0.7962485  38.8394922  79.8955476   3.5838190
  39.4666960  79.5132553   4.1975715  37.9822841  79.6769678   3.9493883
  49.2389030  90.3018451   5.1891926  49.7828934  90.9148409   4.6946881
  48.6575875  90.8598029   5.7058939  39.1454711  79.7787901  -4.5015906
  38.4241297  80.3923869  -4.6408433  39.9347967  80.3145666  -4.5799260
  41.9481025  77.1142328   1.7724746  42.4715427  77.3604624   2.5351055
  41.7293358  77.9462363   1.3527883  43.1533570  78.0556023  -0.5425584
  42.8130390  77.2563836  -0.1404904  42.4472576  78.3557734  -1.1148751
  43.8050042  75.1405335  -2.0898261  44.6276111  74.6665814  -2.2119371
  44.0488105  75.9195819  -1.5899575  41.3288621  81.8324456  -4.2806282
  41.1833201  82.1464759  -3.3882001  40.8513824  82.4509356  -4.8335384
  43.1885003  78.8227004  -4.2325393  43.1746572  77.9268097  -4.5693095
  43.9057432  78.8297668  -3.5987107  45.0411134  79.2564344  -2.1872265
  44.7828912  80.1781415  -2.1887935  44.5096175  78.8594779  -1.4971801
  35.8034283  84.3729800  -1.3418621  35.2587751  85.1489608  -1.2098347
  36.6813633  84.7200605  -1.4999500  42.5921899  77.7041384  -8.9637823
  42.7137811  76.7758030  -8.7646935  42.3023942  77.7180070  -9.8759507
  45.4613090  75.3896295  -5.8271103  45.4834787  75.4535628  -6.7819123
  45.8781149  74.5500803  -5.6330597  36.5900305  83.4999697   1.5511536
  35.8482041  83.6482332   2.1376166  36.2693049  83.7607962   0.6878285
  44.5343967  93.0415675   1.3491926  44.8431094  92.7964822   2.2214625
  45.3319449  93.2462313   0.8610796  42.0762979  79.2173382   5.2452110
  42.1251134  80.0935504   4.8629880  42.6185493  78.6750775   4.6723753
  52.5617825  89.7614505   4.5253247  51.7713368  89.7438644   3.9857747
  52.3251179  90.3002799   5.2802284  52.6815700  86.6106971   1.8385976
  52.7313705  86.4456979   2.7801498  52.5729623  85.7434230   1.4483856
  49.9719462  82.5937899   3.1545282  50.8729325  82.4544364   2.8629280
  50.0467437  82.7592354   4.0943460  44.3062267  79.9704754   1.9998469
  43.4365577  80.2638320   1.7281057  44.5421748  80.5545199   2.7205732
  54.1833896  89.0303913   2.0827997  53.8918705  89.3933893   2.9191458
  53.5706028  88.3170921   1.9041329  52.4321085  84.1536527   0.5508055
  52.9075206  84.3464174  -0.2573093  51.5086650  84.2095713   0.3051439
  47.0101301  76.1884371  -0.4836111  47.5283245  76.9245398  -0.8089622
  46.6556434  76.4948364   0.3510648  47.2613895  72.6084654  -4.9635214
  47.5415649  71.9407843  -4.3374788  48.0464502  72.8013749  -5.4760551
  51.1322754  81.0302288  -1.2163639  52.0840177  81.1300385  -1.1951415
  50.9626204  80.2380556  -0.7065555  49.1537133  78.1157871  -1.0304238
  48.5587065  78.3962883  -1.7257750  48.8686830  78.6051772  -0.2587497
  53.6110832  84.2508407  -2.1021340  53.5787152  83.3124408  -1.9161656
  54.2211455  84.3292444  -2.8355515  53.7605320  81.0419451  -2.0563056
  53.2444369  80.2577907  -2.2433128  54.6445269  80.7138167  -1.8916537
  51.4216047  74.7860466  -6.0967244  51.2240868  74.4775554  -5.2123912
  52.0315752  75.5122105  -5.9669314  45.3332855  87.1722206   5.4006521
  46.2535864  87.3500805   5.5946568  45.2982438  86.2278252   5.2486221
  38.3294927  85.0823241  -1.9570697  38.5480937  86.0140349  -1.9382664
  38.7420701  84.7231215  -1.1715894  45.2499145  75.5891326  -9.9695009
  44.4399874  75.2438411  -9.5939763  45.9383562  75.2798870  -9.3807397
  47.1789694  74.6669373  -8.3470712  47.7320732  75.0864827  -7.6880689
  47.4159780  73.7405121  -8.3047756  43.2022793  80.6556447   7.4332052
  43.1019520  81.6050804   7.3644143  42.9844335  80.3274686   6.5608122
  49.0072067  76.1774956  -6.6370728  49.5071845  76.2891490  -7.4456409
  49.6507675  75.8736009  -5.9969919  43.0654063  84.0853586   6.2497113
  42.5821145  84.8853946   6.4561002  43.1515002  84.0961530   5.2964557
  38.9927400  87.9758120  -1.7134453  39.9470654  87.9442063  -1.7804521
  38.7939924  87.5148744  -0.8984227  39.5826782  86.5459236   0.8536345
  40.4019671  87.0403315   0.8771182  39.8563590  85.6291204   0.8253912
  52.6907915  78.9616510  -6.0681361  53.4668305  79.4512962  -5.7956744
  51.9656049  79.3874564  -5.6109491  34.8361697  80.8797370   1.5528542
  35.4820560  80.3696324   2.0415767  34.6278848  81.6166052   2.1271967
  47.3615089  87.9478218   7.0520682  48.2306249  88.1218870   6.6907317
  46.8821840  88.7672634   6.9296412  41.5301269  95.0675319  -1.2689884
  42.4328516  95.0998929  -0.9523389  41.3038639  94.1375770  -1.2543548
  47.1717427  71.7380191  -8.4401625  46.4049822  71.1838678  -8.2944943
  47.5828132  71.8102060  -7.5787474  39.1759188  78.0264987   5.6503556
  40.0390649  77.6701792   5.8606881  38.6024598  77.6878882   6.3378960
  51.7340688  91.4345704   6.6433527  51.3407634  90.8811902   7.3181172
  52.5506829  91.7456282   7.0340045  54.6508649  92.8503583   4.2353784
  55.3918363  93.4510736   4.1558246  54.8826572  92.1081221   3.6771827
  49.6788676  95.2247393   3.5838190  50.3060715  94.8424471   4.1975715
  48.8216595  95.0061595   3.9493883  52.9156733  94.5465299   5.2452110
  52.9644889  95.4227422   4.8629880  53.4579248  94.0042692   4.6723753
  54.0416547  95.9848364   7.4332052  53.9413274  96.9342721   7.3644143
  53.8238089  95.6566603   6.5608122  45.6755451  96.2089288   1.5528542
  46.3214315  95.6988242   2.0415767  45.4672602  96.9457970   2.1271967
  50.0152942  93.3556905   5.6503556  50.8784404  92.9993710   5.8606881
  49.4418353  93.0170800   6.3378960  46.0348072  67.6547895  -9.1635179
  45.5911926  66.8684274  -9.4814275  46.6965286  67.8427046  -9.8291288
  48.1329310  67.9350695 -11.1353778  48.1147785  68.7559576 -11.6273509
  49.0549230  67.8104771 -10.9103637  49.0445151  64.5746534  -8.7403060
  48.8930657  64.3457085  -9.6572976  49.0349830  65.5317135  -8.7271715
  50.7537358  67.6065656 -10.6626578  50.6949904  66.9224876 -11.3295995
  51.1556876  68.3484646 -11.1145952  49.2389032  67.3080573  -8.0862768
  49.7828935  67.9210532  -8.5807813  48.6575876  67.8660152  -7.5695755
  52.5617826  66.7676628  -8.7501446  51.7713370  66.7500766  -9.2896947
  52.3251180  67.3064921  -7.9952410  54.1833898  66.0366035 -11.1926696
  53.8918706  66.3996016 -10.3563235  53.5706029  65.3233044 -11.3713364
  47.3615090  64.9540340  -6.2234011  48.2306250  65.1280993  -6.5847376
  46.8821842  65.7734757  -6.3458282  51.7340690  68.4407827  -6.6321166
  51.3407635  67.8874025  -5.9573522  52.5506830  68.7518405  -6.2414648
  54.6508651  69.8565706  -9.0400909  55.3918364  70.4572859  -9.1196447
  54.8826574  69.1143343  -9.5982867  49.6788677  72.2309516  -9.6916503
  50.3060716  71.8486593  -9.0778979  48.8216596  72.0123718  -9.3260810
  52.9156735  71.5527422  -8.0302583  52.9644890  72.4289545  -8.4124814
  53.4579249  71.0104815  -8.6030940  54.0416549  72.9910487  -5.8422642
  53.9413275  73.9404844  -5.9110551  53.8238091  72.6628726  -6.7146572
  45.6755452  73.2151410 -11.7226152  46.3214316  72.7050364 -11.2338926
  45.4672604  73.9520092 -11.1482726  50.0152943  70.3619028  -7.6251137
  50.8784405  70.0055832  -7.4147813  49.4418354  70.0232922  -6.9375733
 122.8613899 122.8613899 122.8613899 109.4712190 109.4712190 109.4712190
