
48957  0.0000000e+00
  51.7941380  25.6226730  25.4457498  52.6992226  25.2765036  25.1609707
  51.0591316  25.0831008  25.0113201  51.7675161  25.4504156  26.4405942
  51.4768171  27.0732284  25.2557373  51.4568043  27.2349501  24.1779852
  50.1185560  27.4889469  25.9158039  49.4898510  26.5993094  25.9529138
  50.2786303  27.6972890  26.9736695  49.3278122  28.6526942  25.3089547
  47.9211903  28.6670756  25.5445576  47.3975658  27.8699589  26.0513330
  47.1523523  29.7416329  25.1757336  46.1173105  29.8056507  25.4773808
  47.7259350  30.8348179  24.4577122  47.1856880  31.7245412  24.1697454
  49.0431738  30.7400179  24.1062760  49.5217037  31.6211271  23.7049580
  49.8488998  29.6821594  24.5106339  50.9106731  29.8419499  24.3944359
  52.5768661  27.8969288  25.8689332  52.7994967  27.9344225  27.1003413
  53.2494402  28.6829615  25.0471306  52.9057360  28.6701274  24.0974975
  54.2917919  29.5856333  25.4425597  54.3733978  29.6066308  26.5292978
  55.6608915  28.9634061  24.9607444  55.8366299  28.0112624  25.4613805
  55.8355808  28.6905336  23.4378433  56.7145252  28.0585384  23.3107471
  54.9551058  28.2346344  22.9850483  55.9507322  29.6188855  22.8783774
  56.7407799  29.7437787  25.6501579  56.9456720  30.6838608  25.1379442
  56.4439058  29.9458575  26.6792989  58.0858135  29.1052651  25.8084702
  58.1385183  28.3737183  26.6147971  58.3987665  28.5878444  24.9015856
  58.7435770  29.9076319  26.1426210  53.9820671  30.9306145  24.7111416
  53.8042784  31.0709333  23.5248637  53.8722181  32.0239735  25.4836679
  54.2346716  31.9597602  26.4242029  53.5938549  33.4067631  25.0335360
  53.2724667  33.4356642  23.9923930  52.3921680  33.9708233  25.7484245
  52.2574615  34.9599433  25.3107095  51.1535120  33.1288218  25.4277372
  51.1345196  32.8364611  24.3778539  51.1508989  32.2026992  26.0025334
  50.2071190  33.5941863  25.7031679  52.4861336  34.2610312  27.2157097
  52.9599667  33.4230232  27.7269077  53.1512833  35.1014900  27.4139524
  51.5093088  34.5200634  27.6241398  54.7908306  34.2840433  25.2288342
  55.7263088  33.9889312  26.0303736  54.8510551  35.4061937  24.5337915
  54.1194439  35.6432009  23.8790560  55.8026505  36.4829254  24.7967505
  55.5247164  37.2402835  24.0637660  55.6845045  37.0662856  25.7098961
  57.2480154  36.0587549  24.5935082  58.2080793  36.6698289  25.0925231
  57.4487686  34.9592996  23.9260983  56.6387033  34.4157887  23.6643958
  58.7409639  34.4046569  23.5533786  58.5200119  33.7561989  22.7055669
  59.3859577  35.2193093  23.2240963  59.5452118  33.6618876  24.6138191
  60.6531620  33.2026482  24.2706633  59.0986776  33.4764028  25.9250665
  58.1751966  33.8570642  26.0746884  59.8808336  32.8016877  26.9655299
  60.2086926  31.8016267  26.6818070  61.2023354  33.4678102  27.4014592
  61.5524244  32.9637146  28.3022475  61.8789673  33.2796001  26.5678835
  61.1469603  34.9804091  27.5844455  60.7954168  35.3601885  26.6251302
  60.4598331  35.2858162  28.3735466  62.4778128  35.5959272  27.8063536
  62.8655624  35.1360297  28.7153363  63.1115150  35.4004073  26.9413137
  62.3864841  37.1277499  28.0462742  61.8895245  37.5430536  27.1695447
  61.7894173  37.2683954  28.9472890  63.7717438  37.7128649  28.1915092
  64.2237711  37.4412727  29.0529084  64.4109154  37.4156141  27.4681830
  63.6155128  38.7106729  28.2002878  58.9603329  32.3987889  28.1198359
  59.4469547  31.5751553  28.9098430  57.6928520  32.9199600  28.2348585
  57.3800945  33.5539699  27.5135303  56.7714119  32.5343251  29.3211508
  57.3957348  32.3456669  30.1944971  55.8906460  33.7582302  29.6324897
  55.2194500  33.8349700  28.7770867  55.2487898  33.5442090  30.4870725
  56.6943598  35.0173712  29.8788834  57.4563122  35.1383662  31.0520554
  57.4563313  34.4363689  31.8727875  58.4358025  36.2231874  31.1060786
  59.1303444  36.4175320  31.9099736  58.4063101  37.2414541  30.1096892
  59.1902542  38.3133554  30.2990794  59.6515179  38.2466698  31.1383605
  57.6214695  37.0559406  28.9287519  57.6528025  37.7074099  28.0679345
  56.7693043  35.9307933  28.8885665  56.1793947  35.7723784  27.9978824
  55.9946251  31.2876654  29.0445662  54.9933434  31.2550187  28.3268929
  56.5044212  30.1796961  29.5575070  57.3587513  30.2490211  30.0917530
  55.8022070  28.9363360  29.4718194  55.3858948  28.8052726  28.4730148
  56.8235874  27.8281188  29.7819662  57.6806116  28.0014992  29.1311622
  57.2123480  28.0599070  30.7735491  56.2962675  26.3656878  29.7274971
  55.3473854  26.2939715  30.2590847  56.2150526  26.1246300  28.6675930
  57.4038172  25.5423975  30.2089810  58.3493328  25.6917930  29.6876550
  57.6145172  25.7668638  31.2546015  56.9048834  24.0901423  30.1601839
  56.0677671  24.0607047  30.8576608  56.5755892  23.8373566  29.1523314
  57.9481363  23.1071281  30.5210781  57.6539087  22.1749187  30.2670765
  58.8535452  23.2614207  30.1009226  58.1230974  23.0249262  31.5124059
  54.5547915  28.8972688  30.4119372  54.6580219  29.3978143  31.5668154
  53.3933210  28.3705997  30.0030994  53.2963085  28.0706048  29.0435696
  52.1651936  28.2574368  30.8884048  52.2161007  29.0902400  31.5897942
  50.8959198  28.5714555  30.0506139  50.9768248  28.1075883  29.0675640
  50.1096296  28.0536556  30.5999136  50.5287027  30.0815606  29.9638891
  50.4409838  30.5570245  30.9407926  51.4304829  30.8511996  28.9231658
  51.8322468  30.0685406  28.2796359  51.0078907  31.7802453  28.5405374
  52.2996998  31.2399244  29.4536924  49.1713762  30.2818108  29.3010616
  49.0260506  31.2869692  28.9052939  49.1371775  29.6447062  28.4173059
  48.3130884  30.0086641  29.9149179  52.0958471  26.9517469  31.5896988
  52.6095867  25.8859825  31.0798383  51.3764286  26.9540334  32.7502728
  50.9312391  27.8269148  32.9951835  51.5430546  25.9249449  33.8218832
  51.9091702  24.9774146  33.4265924  52.3778009  26.4502215  34.9719810
  51.8897343  27.3108435  35.4293871  52.6248074  25.4676008  36.1620808
  53.2289410  25.9375930  36.9381189  51.6626167  25.1990008  36.5981293
  53.0964470  24.5686364  35.7651949  53.7841034  26.8890691  34.4663906
  53.6995792  27.6932788  33.7354994  54.4482851  27.1765661  35.2814412
  54.4251633  26.1226583  34.0307784  50.1739025  25.5450964  34.3378949
  49.9338341  24.3291521  34.2715740  49.3259144  26.4933634  34.8269033
  49.4829655  27.4684238  34.6154761  48.0676460  26.0761929  35.4971647
  47.6753092  25.2216864  34.9458122  48.4234285  25.7081103  36.9835830
  49.3231964  25.0944257  36.9398642  48.7211895  26.6155100  37.5090122
  47.2517157  25.0739622  37.8378677  46.3662338  25.7089138  37.8085518
  46.9877195  24.1267920  37.3674679  47.5329399  24.8663187  39.3017292
  46.6812944  24.2884922  39.6607876  48.4350348  24.2832327  39.4870424
  47.6468468  26.2170386  40.0741339  46.7514563  26.6432071  40.2658510
  48.7451792  26.5542746  40.7465172  49.8842144  25.9990406  40.6342840
  49.9993420  25.1785302  40.0566959  50.6690454  26.2712455  41.2087822
  48.4911585  27.5251555  41.6050720  47.5308084  27.7768898  41.7906857
  49.2654514  28.0021262  42.0444632  47.0651865  27.2805190  35.5167127
  47.5130224  28.4283805  35.6749225  45.7808590  27.0635200  35.2563071
  45.4617119  26.1544871  34.9531412  44.7751617  28.1562257  35.4991198
  45.0685024  29.0728593  34.9874210  43.4085083  27.7149272  34.9823642
  43.6284447  27.2495580  34.0215468  42.9229164  27.0865345  35.7289696
  42.4158859  28.8376904  34.6954942  42.3657560  29.3724489  35.6439757
  42.8079176  29.4124365  33.8564038  40.9757423  28.4885097  34.3340111
  40.8632660  27.5326967  33.8222790  40.4599714  28.3983231  35.2900171
  40.1987743  29.5870709  33.4914637  40.1511145  30.5014229  34.0828967
  40.7457256  29.8123407  32.5759315  38.8496947  29.1428375  33.0811429
  38.7590575  28.2349467  32.6479864  38.2590675  29.0079165  33.8892627
  38.3452940  29.8314357  32.5412226  44.6833897  28.3778358  37.0008111
  44.4744778  27.4148941  37.7906990  44.5645905  29.6616006  37.4078798
  44.7609758  30.3414106  36.6871881  44.5386267  30.1404834  38.7858820
  44.4852591  29.2794299  39.4520926  45.8350658  30.8684111  39.2549467
  45.7630444  30.9389472  40.3402805  47.0514345  30.0167537  38.9112258
  47.4821615  30.4071450  37.9891801  47.7996922  30.0461745  39.7032785
  46.8540907  28.9456511  38.8677049  45.8706903  32.4120259  38.8102436
  45.8146763  32.3772383  37.7222395  45.0431347  33.0154610  39.1832328
  47.1281481  33.1158566  39.2491913  47.2705126  33.0728412  40.3289986
  47.9330254  32.5958300  38.7297225  47.1126175  34.1655755  38.9560199
  43.2123709  30.9928107  39.0654278  43.0718279  31.5918589  40.1444960
  42.3723078  31.2643170  38.0376387  42.6277542  30.7833910  37.1870184
  41.3853788  32.2351360  38.0204034  40.6639624  32.1468425  38.8327265
  41.9465780  33.1666803  38.0937481  40.5817366  32.2975612  36.7166424
  41.0616541  31.9986367  35.6263828  39.5292544  33.0704379  36.7854595
  39.2638230  33.4268045  37.6924610  38.7591481  33.4728312  35.5845571
  39.3886042  33.8391161  34.7735548  37.9620099  32.2109246  35.1288962
  38.6636877  31.4134979  34.8842335  37.3162293  31.7771387  35.8923745
  37.2257280  32.4581289  33.9513588  37.8274965  32.4736214  33.2035375
  37.8515649  34.6680403  35.8683395  37.6699924  35.0061178  37.0769501
  37.3272800  35.3418398  34.8534226  37.6998949  35.1809120  33.9285660
  36.2201381  36.2842131  35.0475168  35.5477715  35.8307600  35.7758045
  36.6564250  37.1845913  35.4800463  35.4491687  36.5959072  33.7659717
  35.4743552  35.8238387  32.7776384  34.6786880  37.6823378  33.6908627
  34.6508193  38.3523893  34.4460821  33.9227390  37.9746938  32.4486804
  33.2087207  37.2237468  32.1105146  32.9329681  39.0918446  32.7486682
  32.5147223  39.4377232  31.8033981  32.0190477  38.7007141  33.1957364
  33.5155869  40.1407146  33.4628415  33.8496256  40.8501387  32.9090023
  34.7480345  38.3206129  31.2147164  34.4388080  37.8246927  30.1442099
  35.8390713  39.1032720  31.3545346  35.9385204  39.5078683  32.2745943
  36.8554664  39.4732714  30.2728105  36.3210034  40.0702763  29.5338655
  37.9646230  40.3724861  30.9610462  38.6830330  40.8090925  30.2672434
  37.4442053  41.1562252  31.5115309  38.7817454  39.6666837  32.0263553
  38.4640503  39.6953821  33.4259772  37.5261068  40.1670504  33.6793351
  39.2495251  38.9950848  34.3653107  38.8255024  38.9273334  35.3562784
  40.3894615  38.3323669  33.9233041  40.9967422  37.7070212  34.5609188
  40.7574654  38.3909726  32.5642228  41.7037868  37.9535913  32.2821188
  39.9648786  39.0468144  31.6060710  40.2230072  38.9802670  30.5594850
  37.5657201  38.3286977  29.6708560  37.9843664  38.3585739  28.5458016
  37.7069426  37.2313166  30.4793739  37.3705983  37.3011780  31.4291596
  38.6606741  36.2368727  30.1513553  38.2075953  35.4561830  29.5403385
  39.4921207  36.6970205  29.6174479  39.2991328  35.4764795  31.3075900
  38.5637259  35.1231647  32.2706485  40.6499815  35.2871633  31.4165330
  41.2050772  35.6512904  30.6553650  41.1921740  34.3093753  32.3231339
  40.4867887  34.1254210  33.1334972  41.4606524  32.9969716  31.6124940
  41.8313742  33.2640147  30.6228709  42.2837210  32.3995543  32.0046091
  40.2246332  32.1215272  31.5287280  39.3789053  32.2306156  32.4202514
  40.0664234  31.2846088  30.6244135  42.5638914  34.6664286  32.8946733
  43.1609869  35.6518149  32.4325371  42.9992056  33.9361143  33.9687276
  42.4406910  33.1593013  34.2923427  44.1781473  34.1951203  34.7506142
  44.7771883  34.8701358  34.1393805  43.9142227  34.9038339  36.1881685
  43.3992147  34.2561841  36.8976903  45.2892923  35.3116512  36.8151259
  45.9328270  34.4349194  36.8880486  45.7307434  36.1167145  36.2276769
  45.0803709  35.7286620  37.8002930  43.1091404  36.2623715  36.0871363
  43.7138462  37.0902443  36.4573503  42.8524733  36.5937829  35.0809598
  41.8775272  36.2429166  36.8787289  41.1479616  35.5230308  36.5077853
  42.1414948  35.9318805  37.8895116  41.3615513  37.1979880  36.9772458
  44.9588537  32.8837180  34.9412966  44.4189596  31.8382168  35.3997111
  46.2333632  32.9229522  34.5723867  46.6189480  33.7446880  34.1294742
  47.1077156  31.7431784  34.5541501  46.6248226  30.9051251  35.0567245
  47.3812103  31.2898254  33.0722642  47.4837112  32.1688700  32.4359655
  48.3435440  30.7944489  32.9433608  46.2417698  30.3978801  32.5864625
  45.1373529  30.9469962  31.9263244  45.1270723  32.0163822  31.7756367
  44.1139507  30.1614070  31.3710523  43.2368040  30.6319857  30.9520507
  44.2887878  28.7522006  31.3916063  43.3578682  27.9612398  30.8922148
  42.6259708  28.4713984  30.5377221  45.3766966  28.1728649  32.0615363
  45.4369402  27.0945454  32.0625901  46.3758659  29.0051341  32.5968766
  47.2976828  28.6210537  33.0081367  48.4408712  31.9318104  35.3506994
  49.0508366  33.0065727  35.5054116  49.0034199  30.8569050  35.8726120
  48.4569359  30.0116873  35.7885933  50.3920794  30.6885910  36.3244367
  50.6461477  31.6797566  36.7001224  50.4310036  29.6063995  37.4509454
  49.8630238  29.8848176  38.3386326  49.8629284  28.7173343  37.1771622
  51.8055820  29.2740464  37.9254532  52.3214245  28.9614367  37.0175552
  52.6053858  30.4849172  38.4866476  52.7406406  31.2421465  37.7143693
  52.0645094  30.7767820  39.3868518  53.5694647  30.1011467  38.8203764
  51.9615459  28.1162548  38.8687062  51.5152454  27.2083211  38.4630322
  52.9970264  27.8706217  39.1043878  51.3514853  28.3841658  39.7313452
  51.3282919  30.3644753  35.1447988  50.9586382  29.5289063  34.2471337
  52.4984980  30.8832574  35.1776814  52.6580667  31.6319799  35.8365130
  53.5696363  30.6782174  34.2724705  53.5204268  29.7210932  33.7532401
  53.2025719  31.7894912  33.2316184  53.8998365  31.8113971  32.3940969
  52.2000170  31.6290522  32.8350759  53.2491827  32.8014731  33.6338878
  54.9917793  30.7497573  34.8309660  55.2596140  31.1383367  35.9827256
  56.0224438  30.4725575  33.9790034  55.8230829  30.1993513  33.0273128
  57.4227858  30.6093192  34.3386507  57.5292587  31.4273953  35.0510502
  57.9240608  29.2907548  34.9674702  57.3934746  29.0295386  35.8830786
  57.4836159  28.1065249  34.0890384  57.8310490  28.3381224  33.0821848
  58.0188179  27.2020769  34.3782282  56.3988304  28.0001068  34.0852189
  59.4065952  29.4094896  35.3407812  59.9822235  29.4894385  34.4186330
  59.4954967  30.3235602  35.9278774  59.7650051  28.2467890  36.2587595
  60.7631254  28.2597947  36.6965795  59.0584993  28.3157539  37.0859194
  59.6767187  27.2376871  35.8562446  58.2689571  31.0482144  33.1401324
  57.9357719  30.6776810  31.9953418  59.2467260  32.0009828  33.2906032
  59.1741800  32.5196218  34.1542315  60.2122831  32.4376678  32.2603226
  59.6673536  32.6130676  31.3327551  60.8179665  33.7766218  32.7930546
  60.0302696  34.4436693  33.1433105  61.3326168  33.4471297  33.6956477
  61.7133045  34.4694471  31.7353916  62.4022675  33.7879920  30.9472275
  61.6632223  35.7766366  31.6676188  62.3285294  36.3139009  31.1302042
  61.2007570  36.1767697  32.4714351  61.1681271  31.2719274  32.0196962
  61.9769716  30.9951448  32.8939581  61.3097620  30.7412910  30.8151937
  60.5325174  30.9237385  30.1965618  62.1978378  29.6754360  30.3285122
  61.9481039  28.7738752  30.8879161  61.7730427  29.1614389  28.8952684
  61.4226103  30.0553250  28.3792639  62.5918150  28.7165904  28.3297324
  60.5284739  28.2472634  28.9894772  59.8523760  28.6154175  29.7611332
  60.0303268  28.2710791  28.0202603  61.0006475  26.8586373  29.3372774
  61.3018322  26.6091824  30.5169582  61.2128592  26.0441566  28.3911896
  63.7126875  30.0070333  30.4048872  64.5882511  29.1759801  30.6305838
  64.0497303  31.2938666  30.2573347  63.3872747  32.0202851  30.0258780
  65.4893351  31.7342949  30.3329492  66.0259914  31.0357571  29.6909571
  65.6672001  33.0536413  29.6375227  66.7450190  33.2146335  29.6595407
  65.0493145  33.0484438  28.2376480  65.5302286  33.8691425  27.7054024
  65.2840376  32.0882034  27.7783608  63.9644623  33.1506658  28.2103658
  64.9787760  34.0480137  30.2563572  64.0398264  33.8482499  30.2476692
  66.1019087  31.8316150  31.7298388  67.3284674  31.8225408  31.8729496
  65.2808094  32.0003891  32.8090215  64.2863560  31.8309283  32.7594495
  65.7723618  32.3231816  34.1661334  66.7195845  31.7977571  34.2877579
  66.1864901  33.8116193  34.2527914  66.6907549  33.9193988  35.2131057
  66.8832779  34.0269423  33.4427190  64.9738503  34.7152805  34.1378641
  63.8164759  34.4426417  34.4219732  65.1444864  35.9330702  33.6851168
  64.3585968  36.5674829  33.6835790  66.0900354  36.2366438  33.5010600
  64.9120045  31.8387055  35.4351211  65.2015686  32.1445036  36.6087198
  63.8740444  31.0695577  35.1964211  63.4734440  30.9128881  34.2825961
  62.9846954  30.5829740  36.2824273  62.5212669  29.6382070  35.9982634
  63.6153173  30.3990555  37.1522474  61.8804979  31.5288496  36.7739844
  61.1178589  31.1792755  37.6836038  61.9097567  32.7952003  36.3561344
  62.4568748  33.1167936  35.5704260  61.0019445  33.7574959  36.9782495
  61.3249350  33.6835480  38.0166674  61.3307571  35.2925348  36.5799499
  62.3416042  35.5555391  36.8915892  61.2974358  35.5154705  35.5135107
  60.3329802  36.2282443  37.3725724  59.3113232  36.0689688  37.0276666
  60.5267382  36.0398388  38.4285378  60.4895973  37.7357221  37.0600986
  60.6279325  38.4732270  38.0587840  60.4560471  38.1879640  35.8821297
  59.4958162  33.3126187  36.8782926  58.9401484  33.4111309  35.7615995
  58.8132620  33.0520797  38.0002785  59.3290520  33.0718780  38.8684249
  57.3987675  32.7395630  37.9818392  57.1713877  32.1635485  37.0848393
  56.9355106  31.9018602  39.2614603  57.1153498  32.5516844  40.1178980
  55.8918381  31.6435122  39.0822911  57.6274586  30.5550289  39.4431353
  57.5502300  29.9954462  38.5109305  58.6812592  30.6820583  39.6910858
  57.0419025  29.7757983  40.6889439  57.6525402  29.8138332  41.7809963
  55.9371090  29.1776562  40.6021786  56.4143515  34.0174723  37.9387426
  56.5150547  34.8773098  38.7496281  55.3916931  33.9162087  37.1039009
  55.3638029  33.0912971  36.5217948  54.4787645  35.0554848  36.7442751
  54.4926023  35.8276820  37.5134420  55.0553179  35.8443594  35.5248356
  54.2346239  36.4044785  35.0766969  56.1819220  36.8076277  36.0218406
  57.0900965  36.3243079  36.3820267  56.4716291  37.3992324  35.1534081
  55.8288097  37.4870229  36.7976189  55.6589842  34.9373913  34.4381285
  55.7474422  35.6181908  33.5914946  56.5785122  34.4526362  34.7661138
  54.9538946  34.1462922  34.1829586  53.0293798  34.7445345  36.5623617
  52.6824713  33.6049509  36.2174106  52.1111250  35.7139158  36.7565680
  52.5470257  36.6229582  36.8176770  50.7420874  35.6122208  36.3842678
  50.4023981  34.5772290  36.4230108  49.8303175  36.4525032  37.3050809
  48.7748003  36.5332532  37.0453525  49.9322033  36.0014868  38.2921529
  50.2205563  37.4578094  37.4637508  50.7493687  35.9508681  34.9005914
  51.3625193  36.9205546  34.4280219  49.8925495  35.2574539  34.1449022
  49.3834114  34.4763708  34.5332217  49.4926023  35.6619334  32.7602172
  49.9029303  36.6699553  32.7000165  50.0770760  34.7596669  31.6220331
  49.6877432  33.7794638  31.8972087  49.3602705  35.0142002  30.3136325
  48.3165979  34.7007942  30.2886891  49.4212770  36.0747719  30.0695586
  49.7949505  34.4523287  29.4869208  51.5759993  34.9024844  31.5097785
  51.9355774  35.7872319  32.0351601  52.1304083  34.0639424  31.9311810
  51.8916607  35.1465297  30.4954314  47.9507113  35.8254838  32.6008415
  47.2429848  34.8949075  32.9255486  47.4698019  37.0392251  32.3377037
  48.1168365  37.7934194  32.1570563  46.0354853  37.4465990  32.2608900
  45.4339027  36.6447020  32.6888633  45.9049463  38.7712884  32.9998851
  46.3393021  38.6423206  33.9912486  46.5039062  39.5350432  32.5038648
  44.4346762  39.1813970  33.2320023  44.0146828  39.5301557  32.2885656
  43.9416313  38.2845187  33.6069965  44.4559288  40.1835871  34.3821311
  44.6970749  39.5590854  35.2423334  45.3002214  40.8594656  34.2462802
  43.1991386  40.9892845  34.5067215  43.0132008  41.5371752  33.5829568
  42.3098803  40.3754473  34.6500015  43.2288456  41.9810009  35.6429720
  44.1076708  42.0655107  36.1335063  42.9749918  42.8565359  35.2081132
  42.4911165  41.7302895  36.2856221  45.6754494  37.4890542  30.7756305
  46.4314985  37.8804588  29.9008203  44.4228888  37.1780705  30.4145265
  43.8453674  36.7896008  31.1464119  43.9501619  36.8346834  29.0303230
  44.6200371  37.3341036  28.3303618  44.0189695  35.2891731  28.8382483
  43.3200121  34.7991920  29.5160985  43.6781454  35.1360512  27.8142881
  45.3153229  34.3997574  28.9642286  45.6703472  34.3842721  29.9946761
  45.1757479  32.9670596  28.4504771  44.6612740  32.4139833  29.2363119
  44.5717955  32.9494667  27.5432658  46.1506367  32.5016713  28.3051991
  46.3251638  35.0663590  28.0742526  46.4852715  36.0856867  28.4255934
  47.2044563  34.4222116  28.0778837  45.9276152  35.1646161  27.0641041
  42.5678730  37.2702503  28.7217283  41.7461634  37.2823715  29.6359515
  42.3060846  37.5970817  27.5019932  43.0385685  37.6184177  26.8069315
  40.9781456  38.0822396  27.0276356  40.2045155  37.5726223  27.6019979
  41.0788774  39.6598673  27.1530080  41.3645792  39.9705625  28.1579661
  41.9731140  39.8911619  26.5742612  39.8561120  40.4308319  26.5420008
  39.6258140  40.0346327  25.5530167  38.9701009  40.3515148  27.1719193
  40.1403856  41.8818712  26.4445853  40.8152294  42.2431135  25.4444432
  39.7560978  42.7603626  27.2307491  40.9132671  37.7689862  25.5006957
  41.8111992  38.0456161  24.7216463  39.8584604  37.0346713  25.0638556
  39.1643786  36.9250083  25.7893372  39.6355963  36.6803432  23.6092973
  40.3205061  35.8578801  23.4030223  38.1553984  36.1799622  23.4973526
  38.0885386  35.2526307  24.0662861  37.5218773  36.9378018  23.9582539
  37.6764226  36.0156989  22.1311450  37.4235630  35.0967789  22.0160294
  39.8316884  37.9193521  22.7286625  39.4014740  39.0597868  22.9399729
  40.3761005  37.7077103  21.5699863  40.6454706  36.7545986  21.3722062
  40.5747223  38.7308955  20.4739785  41.1015034  39.5996642  20.8687687
  41.5226555  38.1630516  19.3963766  41.0649395  37.3342872  18.8562417
  41.6282415  38.8881350  18.5894024  42.9517412  37.7240062  20.0014734
  43.3791542  38.6593747  20.3627324  42.7282810  36.9961524  20.7814717
  43.8372612  37.1738291  18.9297593  43.3930540  37.0036054  17.7972925
  45.0263166  36.8466616  19.2824626  45.6865501  36.4108658  18.6545455
  45.2678394  36.6769600  20.2483678  39.1612816  39.2317319  19.9621832
  39.1572595  40.2986145  19.4081759  38.0252767  38.6320186  20.2311611
  38.0960846  37.7064300  20.6291199  36.6846967  39.2949224  20.0279164
  36.8155479  40.3526163  19.7993028  35.9416413  38.5941172  18.8258660
  35.8973336  37.5350714  19.0799510  34.9345684  39.0109420  18.8132310
  36.6604161  38.6689448  17.5010681  37.6768160  38.2926345  17.6169157
  36.1803746  38.1301379  16.6841483  36.7937684  40.0856256  16.9830406
  35.8396816  40.6121874  16.9595885  37.5002527  40.6070518  17.6288676
  37.3563766  40.1237869  15.5265570  38.3361173  39.6552348  15.6196666
  36.7814660  39.4753528  14.8654127  37.3559499  41.4722681  14.8855937
  37.6774979  41.3080978  13.9423203  36.4232469  41.8428326  14.7722483
  37.9236555  42.1348333  15.3943276  35.8431435  39.2959142  21.3334060
  34.6330976  38.9929056  21.2816000  36.4769316  39.6291137  22.5015402
  37.3953319  40.0463343  22.4508905  35.8505702  39.5471931  23.8224411
  35.4777312  38.5355020  23.9823484  36.7263651  39.8583484  24.9375558
  37.4763989  39.0678525  24.9118710  37.2092509  40.8324528  24.8598504
  36.1294127  39.7967505  25.8474731  34.5207167  40.4489470  23.7953401
  34.4931698  41.5461445  23.2737970  33.4381008  39.8540044  24.3363976
  33.5776663  38.8872504  24.5933175  32.1504188  40.4775858  24.5353651
  31.6117334  40.9458447  23.7115622  31.1981702  39.3779254  25.0304675
  31.2798214  38.5467482  24.3300509  31.4787817  39.1792345  26.0648179
  29.7244453  39.8784828  24.8887944  29.6163273  40.7584143  25.5229306
  29.4650912  40.1153660  23.8569403  28.7374783  38.8028693  25.3344083
  28.8377976  37.8020811  24.9143410  28.8680410  38.6281490  26.4023662
  27.3854160  39.3032908  25.0820041  27.1061611  39.4011688  24.1163206
  26.4492798  39.4504619  25.9842134  26.4085603  39.0124130  27.2025847
  27.0825458  38.3403826  27.5405502  25.6081843  39.2177439  27.7833915
  25.3746557  40.1040268  25.6848669  25.4201508  40.5076694  24.7601485
  24.6483397  40.2452803  26.3723350  32.2011685  41.6321611  25.5454588
  31.5074587  42.6362848  25.2737021  32.8954506  41.4794111  26.6641021
  33.2628036  40.5407190  26.7274380  33.1181836  42.4563265  27.8267550
  32.6623487  43.4353590  27.6790810  32.3810172  41.9278336  29.1156769
  32.9395437  41.1639214  29.6565890  32.4258065  42.7780437  29.7962928
  30.9664989  41.4295435  29.0426993  30.3587151  40.5971718  29.9627805
  29.0233684  40.4758406  29.5884633  28.2539225  39.8931360  30.0730324
  28.8994575  41.2249088  28.4996963  28.0263090  41.3253355  28.0020761
  30.0696230  41.8687868  28.2023478  30.1788926  42.5595617  27.3793674
  34.7014403  42.8100634  28.0776215  35.1625228  42.6018810  29.2151451
  35.4174376  43.3745623  27.1253967  34.8153925  43.9067507  25.9293962
  33.7610006  44.1507578  26.0590887  34.8416448  43.2397842  25.0676727
  35.7461309  45.0063658  25.5343556  35.4684067  45.9779882  25.9429121
  35.7904077  44.9842691  24.4454813  37.0647955  44.5032740  26.0414767
  37.7748227  45.3294516  26.0788369  37.5973845  43.8407516  25.3591871
  36.8124986  43.7742186  27.3650694  37.3976612  42.8766394  27.5651479
  37.1888304  44.6430349  28.5609293  36.4354992  45.5791044  28.8939500
  38.3886504  44.4545221  29.0882921  38.9428449  43.7616730  28.6056614
  39.0418959  45.3433466  30.0801873  38.6163521  46.3377476  29.9453449
  38.5323620  44.9352932  31.5012074  38.8875175  45.7550430  32.1256781
  37.4431062  44.9230146  31.5396619  39.1335130  43.7667036  32.2046590
  39.1237497  42.8978586  31.5465474  40.1796150  43.9435101  32.4547052
  38.2824302  43.4242868  33.4839559  37.1402597  43.1073189  33.4036589
  38.8313603  43.4515429  34.6898746  38.3760405  43.2451582  35.5674815
  39.7662854  43.8321114  34.7243071  40.5488682  45.4258299  29.9409342
  41.1929655  46.4260626  30.3965569  41.1738825  44.4538069  29.2966199
  40.6405926  43.7418509  28.8182664  42.6596880  44.2108679  29.4448543
  42.8861761  44.0907621  30.5042791  43.0849171  42.9259539  28.8081288
  42.2338104  42.2645187  28.9700723  43.2542706  43.1298351  27.7508450
  44.3284988  42.2136068  29.2617989  45.1776457  42.8004599  28.9115810
  44.4319487  42.0500708  30.7852054  44.6859360  43.0428553  31.1566520
  43.4537458  41.6500950  31.0521150  45.2128220  41.3326883  31.0375929
  44.3430471  40.8472538  28.6096120  45.3008890  40.3409100  28.7290025
  43.4966087  40.2605438  28.9665699  44.2308569  40.9144640  27.5274873
  43.4571886  45.3864431  29.0674305  44.4651365  45.6561184  29.7050953
  43.1775427  45.9964228  27.8677225  42.3989010  45.5920649  27.3674107
  43.7152529  47.3179626  27.4145913  44.7663689  47.1065903  27.2181845
  42.9723215  47.6789141  26.0760951  42.9283428  46.9023228  25.3125024
  41.9306993  47.9234076  26.2842846  43.6062002  48.8386154  25.3797579
  43.7851286  49.6057844  26.1331129  44.9744225  48.4503841  24.8662615
  45.5427742  48.3190107  25.7870317  45.0451136  47.5254440  24.2939091
  45.4514265  49.2380428  24.2830276  42.7370739  49.1944122  24.2322993
  41.7161655  49.3906498  24.5599318  43.1845379  50.1488781  23.9550424
  42.7424431  48.4548330  23.4316158  43.6858177  48.4179020  28.4763074
  44.7011328  48.9848804  28.8447881  42.4481583  48.7253094  28.8723111
  41.6187668  48.3250427  28.4575915  42.1946335  49.7730350  29.8966146
  42.5964737  50.7013464  29.4905782  40.6731081  49.9068975  30.1493835
  40.2066898  49.8286104  29.1673303  40.3022718  49.0958595  30.7761216
  40.2937460  51.2632370  30.8140349  39.9471569  52.3401451  30.0096345
  39.8619723  52.1996641  28.9422035  39.5273900  53.5401821  30.5517721
  39.2537880  54.3310213  29.8690462  39.7518325  53.7995720  31.9097614
  39.4553137  54.9388552  32.5498462  38.8373280  55.3947830  31.9738054
  40.1933861  52.7600050  32.6907897  40.1846981  52.8318357  33.7683630
  40.4483700  51.4829731  32.1761584  40.6934881  50.6570864  32.8274798
  42.9835224  49.4684887  31.2063503  43.7141418  50.3417540  31.7526913
  43.0195332  48.2397652  31.7096329  42.5176048  47.5302601  31.1950755
  43.8864088  47.7705956  32.7740240  43.7943029  48.4860802  33.5911584
  43.4145927  46.3932133  33.3072066  43.4097958  45.7220173  32.4483848
  44.1048527  46.0058784  34.0566134  41.9895697  46.3379335  33.7919641
  41.7092848  47.3224545  34.1664863  41.4497805  46.1175823  32.8710008
  41.9456387  45.2898836  34.8632050  42.3519564  45.5997419  35.9906244
  41.7430592  44.0699911  34.5853543  45.3694820  47.8440237  32.4587989
  46.0690784  48.5262346  33.2183862  45.8037424  47.2844791  31.3946986
  45.2140427  46.7307806  30.7899022  47.2251892  47.4736786  30.9930801
  47.8815413  46.9036865  31.6506672  47.4017048  46.8641281  29.5625496
  47.2977638  45.7876825  29.6988106  46.7015791  47.1947670  28.7953496
  48.6234474  46.9885588  28.9109516  49.3285179  46.7000103  29.4950867
  47.6683092  48.9537239  30.9534049  48.7210703  49.2284918  31.6645503
  46.8545485  49.8954678  30.3650713  45.8883190  49.6392679  30.2206159
  47.1799946  51.3128376  30.3904629  48.1196547  51.5085316  29.8738861
  46.1929846  52.0093966  29.4743299  46.3258362  51.5346146  28.5022068
  45.1824284  51.7721796  29.8069119  46.2047195  53.5190582  29.2831492
  45.3077269  53.9280653  28.8181567  46.3318062  54.0101957  30.2478933
  47.4308348  53.9017296  28.5187984  48.2966852  53.7023687  29.1501951
  47.7198696  53.2918882  27.6628470  47.2819710  55.3574896  28.2754254
  46.2764263  55.5620384  27.9078007  47.3453283  55.8640051  29.2385101
  48.2322836  55.8411646  27.4015903  48.0381203  55.6876373  26.4223886
  48.2649565  56.8428326  27.5268722  49.1629457  55.5059719  27.6055861
  47.2705650  51.8780661  31.7918730  48.1853294  52.6461840  32.1147871
  46.3730431  51.5396595  32.6520729  45.5330372  51.0556412  32.3688579
  46.3245821  52.0715284  34.0335822  46.4422989  53.1527042  34.1063452
  44.8894930  51.7379522  34.5807099  44.2240858  52.1357059  33.8144660
  44.7927856  50.6530619  34.5388222  44.4041491  52.2283936  36.0084486
  44.8667955  53.1842947  36.2540483  42.8747797  52.5461817  36.0453939
  42.2020245  51.6921091  35.9675169  42.7095985  52.8576612  37.0767999
  42.5245762  53.2130098  35.2574849  44.6164322  51.1624718  37.1163988
  44.1053247  50.2258587  36.8936491  45.6786537  50.9209061  37.1542501
  44.2618370  51.5080690  38.0874372  47.4636126  51.5125847  34.8915052
  48.2080364  52.1742821  35.5908179  47.6384020  50.2233648  34.7566652
  47.1160984  49.6757460  34.0877748  48.8408422  49.6247816  35.3930116
  48.8099289  49.7484446  36.4755321  48.9208508  48.0614519  35.2467990
  48.9753199  47.8405428  34.1808057  49.8260927  47.8165531  35.8023691
  47.7477026  47.2023964  35.7143807  46.4874887  47.6821852  36.0654640
  46.3502073  48.7503672  36.1463428  45.4375410  46.7517996  36.3844275
  44.4578791  47.1053410  36.6702175  45.6727171  45.3716326  36.1763191
  44.6855831  44.4636154  36.4474964  43.7831879  44.7751999  36.3465071
  46.9516611  44.9096632  35.8831477  47.0645571  43.8483953  35.7177353
  48.0005646  45.7811403  35.6849504  48.9579582  45.3967714  35.3654814
  50.1567602  50.2311516  34.9378705  51.0985565  50.4251432  35.6914687
  50.3215504  50.6528378  33.6760449  49.6306658  50.4917431  32.9571390
  51.4476347  51.5128183  33.2487464  52.4084282  51.1711216  33.6337590
  51.6167879  51.5377378  31.7382026  51.6974115  50.5080128  31.3899732
  50.7125378  51.7841673  31.1816883  52.8085518  52.3850489  31.2210250
  52.4665785  53.4076929  31.3802671  53.7014341  52.1656609  31.8064570
  53.0925941  52.2532892  29.6972346  53.5884809  53.1992006  29.4794106
  53.6984491  51.3761044  29.4700980  51.8464041  52.1215010  28.7631917
  51.3478470  51.1560011  28.8489151  51.1892796  52.9588652  28.9979601
  52.2707319  52.2184706  27.3608232  52.5877619  53.1666231  27.2172856
  52.9792643  51.5423298  27.1140003  51.4544725  52.0683813  26.7852449
  51.4211845  52.8846264  33.8047981  52.3991251  53.3594370  34.3208504
  50.2902126  53.6086321  33.7762666  49.5400190  53.1735706  33.2585430
  50.1703215  55.0263071  34.2370296  51.0209370  55.5775690  33.8361979
  48.8405895  55.7085466  33.8593149  48.0859995  55.0413942  34.2759752
  48.5975790  57.0812845  34.5432901  49.4148684  57.7808762  34.3680573
  47.7076769  57.5110817  34.0834522  48.6358833  57.0726776  35.6325841
  48.6390638  55.8713341  32.3463416  48.7332869  54.9003506  31.8601155
  47.5810766  56.0916328  32.2040868  49.4682598  56.9467592  31.5688872
  50.3816271  57.2941923  32.0517373  49.8713875  56.6988754  30.5869794
  48.9055872  57.8559494  31.3570547  50.4726124  55.1549578  35.7510543
  51.2044954  56.0483742  36.1697268  50.1083231  54.1353703  36.5722895
  49.8058367  53.2866621  36.1158919  50.3336477  54.1142845  38.0445385
  50.3516436  55.1500034  38.3837485  49.0208292  53.4162140  38.6096358
  48.5958529  52.6914215  37.9152513  49.2519379  52.9836655  39.5830774
  47.7231264  54.3259573  38.8795996  48.0707741  55.1972818  39.4346166
  47.1934891  54.8423052  37.4711847  47.9272795  55.4446363  36.9355917
  46.8711996  53.9541864  36.9276047  46.3217497  55.4771900  37.6295757
  46.6027451  53.5540962  39.5557165  46.9770145  53.3213711  40.5526447
  45.6884861  54.1475725  39.5594597  46.4483213  52.6377106  38.9860773
  51.6485739  53.3411980  38.4133172  51.9618559  53.1524658  39.5620799
  52.4156952  52.8998232  37.4180007  52.1465206  53.0740690  36.4602518
  53.5104465  51.9818830  37.6469159  53.0778360  51.0413599  37.9880476
  54.1105986  51.7218351  36.2767553  53.3084059  51.4189768  35.6038046
  54.6368313  52.5630856  35.8256721  55.0601292  50.5267048  36.1119223
  55.3177595  50.3847837  35.0623560  55.9871769  50.7711220  36.6305161
  54.5360041  49.2323732  36.7299438  55.3254557  48.5831165  37.3980808
  53.2781410  48.8169003  36.6676211  52.9714680  47.9415131  37.0673084
  52.5854683  49.5082760  36.4180088  54.5592117  52.4629593  38.5960102
  54.9141598  53.6457014  38.7057400  54.9829674  51.5427494  39.4503975
  54.8869562  50.5585718  39.2447782  55.9226036  51.7865467  40.5139256
  56.5138483  50.8955240  40.7251406  56.6530371  52.5479555  40.2403879
  55.3117371  52.2483301  41.8423033  56.1050129  52.4517679  42.7551556
  53.9884281  52.4584341  41.9097757  53.3727789  52.2655916  41.1326647
  53.2836199  52.6299858  43.1689835  53.7827826  53.2967234  43.8721228
  52.2619295  52.9766464  43.0138206  53.1808805  51.3404465  43.9600849
  53.1959963  50.2870083  43.3916283  53.0011702  51.3412905  45.3061247
  52.6434135  52.2218990  45.6476355  52.9399300  50.1163292  46.1533833
  53.7469673  49.4303703  45.8959818  52.9798460  50.4257870  47.6691723
  52.0850515  50.9938002  47.9237700  53.0735540  49.1395569  48.5782385
  52.1830082  48.5196352  48.4746361  53.9835644  48.5632801  48.4112358
  53.1247473  49.4486761  49.6222353  54.2130613  51.4045763  47.8776693
  54.5686531  51.3342142  48.9056253  55.0498867  51.0542440  47.2734356
  54.0020609  52.4273491  47.5653934  51.6898394  49.3177843  45.8490610
  50.5843067  49.9751616  45.7955694  51.8006372  47.9738474  45.6462622
  52.7151537  47.5539541  45.5599880  50.6406498  47.1336651  45.2589655
  50.9344196  46.0981035  45.4304743  49.8016357  47.3081303  45.9325504
  50.0626564  47.2897482  43.8384438  48.8329029  47.2037792  43.6508608
  50.8447647  47.6140070  42.8343105  51.8433046  47.7108479  42.9511166
  50.4515457  47.7332401  41.4182472  49.4353056  47.3662186  41.2745380
  50.6066418  49.2275620  41.0192728  51.6527081  49.5057201  41.1476278
  50.5111217  49.3484163  39.4618940  50.6481504  50.3935766  39.1844726
  51.2567997  48.7926102  38.8934398  49.5058775  49.0020132  39.2218995
  49.6730709  50.2333021  41.7677212  49.8249054  50.2460861  42.8470182
  49.8492718  51.2782764  41.5125990  48.2514191  49.9097729  41.4250374
  47.5902414  50.5838919  41.9695616  48.1458092  49.9690104  40.3417826
  47.9006243  48.9097977  41.6801596  51.3755608  46.8061256  40.6329870
  52.5735617  47.0633221  40.7676315  50.9781933  45.6567669  40.0010252
  49.6400690  45.1612139  39.9156690  48.8979912  45.8986139  39.6096301
  49.4432974  44.7810698  40.9181023  49.6944141  44.0765095  38.8815236
  49.4805193  44.5496225  37.9231286  48.8551188  43.4640026  39.2109346
  51.0860538  43.5148430  39.0403175  51.3801575  42.8333998  38.2420421
  51.0787058  42.7947521  39.8585582  51.9417238  44.7528839  39.4801044
  52.6684141  44.3811750  40.2024984  52.7668667  45.3071785  38.3664942
  52.2785902  46.0736179  37.5512862  54.0428352  45.0253391  38.3998394
  54.3361807  44.3994856  39.1362929  54.8710060  45.1597261  37.1373010
  54.8804045  46.2192345  36.8814707  56.3810349  44.8652649  37.4406672
  56.6665745  45.3948259  38.3495879  56.4946938  43.7893915  37.5736189
  57.3236132  45.2063656  36.2685251  57.4293327  44.4068384  35.1136708
  58.4686136  44.9155998  34.4459271  59.0211678  44.4919205  33.6203480
  58.8947678  46.0247707  35.0933981  59.6024179  46.6285753  34.7000122
  58.2659101  46.1576080  36.3252997  58.3804607  46.8309784  37.1618724
  54.2754745  44.2865849  35.9414673  53.9942932  43.0904007  36.1593628
  54.3646908  44.7780132  34.7081399  54.6555376  45.7451582  34.7199345
  54.0334320  44.2298126  33.4352231  53.4531593  43.3278990  33.6300159
  53.1595182  45.1500511  32.6122594  53.7383032  45.9873724  32.2223902
  52.5086355  44.3286753  31.5128589  51.8392420  44.8686123  30.8431697
  53.3222914  43.9937782  30.8695030  51.9749165  43.4921932  31.9640160
  51.8909693  45.8389902  33.3053017  51.1282253  46.1158705  32.5775266
  51.4113712  45.1797771  34.0288496  52.2356796  47.2492838  33.9066601
  53.2175779  47.2483206  34.3799162  52.1962786  48.0420160  33.1595778
  51.5639591  47.3395205  34.7603297  55.3001213  43.8367605  32.5648308
  55.9533644  44.7152901  31.9476867  55.6406879  42.5593233  32.5428391
  55.0759554  41.8768358  33.0280113  56.7048025  42.0157957  31.6651464
  57.6555395  42.5188875  31.8414712  56.9316959  40.4696512  31.7664766
  55.9763622  40.0087309  31.5154886  57.7180386  40.2360535  31.0487056
  57.2842121  39.9728131  33.1742668  56.4051294  40.1529121  33.7930417
  57.5101566  38.9080572  33.1164694  58.4436655  40.7369757  33.8218069
  59.3711329  40.6239605  33.2604384  58.1316042  41.7805576  33.8625193
  58.5921669  40.2296591  35.1763678  59.2861557  39.5174384  35.3530765
  57.9678488  40.6054020  36.2493777  57.0935297  41.5992737  36.2618661
  57.0287466  42.2044373  35.4558325  56.7863941  41.8379736  37.1939564
  58.1298447  40.0612020  37.4116158  58.6765671  39.2258358  37.5644732
  57.5836134  40.4942226  38.1425214  56.4880371  42.2832203  30.2126861
  57.4181271  42.7991819  29.5485759  55.2553034  42.0188236  29.7872210
  54.5750046  41.6312075  30.4252219  54.9305010  42.0044231  28.3758974
  55.3420830  42.8992367  27.9089713  55.5765629  40.7661390  27.7000403
  56.5865660  40.5245209  28.0311131  55.0049114  39.9082303  28.0540395
  55.5362701  40.7899904  26.2004232  56.5167856  41.4170408  25.4524660
  57.2437525  42.0861387  25.8886242  56.2236643  41.2013102  24.1376019
  56.6978598  41.7504215  23.4349537  55.0568819  40.4764462  23.9599705
  54.4398069  39.9745631  22.8126860  54.9486685  40.0530005  21.8633151
  53.2922792  39.1884136  22.9595280  52.8940201  38.6813259  22.0931268
  52.8128195  38.8366556  24.2854333  51.9278240  38.2295609  24.4063854
  53.4877586  39.3128848  25.3893089  53.2136726  39.0458989  26.3992572
  54.6511889  40.1594114  25.2705121  53.3928585  42.0943403  28.2049131
  52.6536512  41.4306927  28.9038444  52.9414845  42.9530144  27.2696114
  53.6487532  43.5018253  26.8019843  51.5794516  42.9836893  26.8354988
  51.0350752  42.0975399  27.1618366  50.9062958  44.3512249  27.3111129
  50.8924961  44.3154192  28.4004378  51.5535069  45.2166271  27.1686077
  49.5397520  44.5159101  26.6950107  48.5081959  43.4964085  26.8866611
  48.6952829  42.5904560  27.4440122  47.2111464  43.6730242  26.3955259
  46.3271713  43.1087637  26.6535854  46.9706583  44.8721886  25.6268215
  45.7319164  45.1553869  25.0034332  44.9335766  44.7136879  25.3020263
  47.9604387  45.8767796  25.5173302  47.7026796  46.8423033  25.1077700
  49.2334509  45.7137966  26.0883331  49.9632215  46.5089417  26.1280203
  51.5384483  42.8911209  25.3267217  52.2490406  43.5776472  24.6420527
  50.7257557  41.9976711  24.7668028  50.1786423  41.3613033  25.3287625
  50.5938721  41.8088388  23.3271575  50.4467964  42.7647448  22.8244495
  51.5896225  41.5312243  22.9814577  49.4622231  40.8586836  23.0468488
  48.5235643  40.7021093  23.8247013  49.4651985  40.2036858  21.8732524
  50.0868559  40.5040979  21.1361027  48.4823704  39.1891599  21.3956666
  47.8480864  38.9179134  22.2395897  47.6094341  39.8002553  20.2928543
  46.8971586  39.0198588  20.0250053  47.1204710  40.7173491  20.6214142
  48.4264278  40.1608610  19.0721118  49.2147684  40.8335447  19.4099224
  48.8702965  39.2310715  18.7163389  47.5781155  40.8650780  18.0081820
  48.0284786  41.7650843  17.3173404  46.2546015  40.7889986  17.9839051
  45.7320595  41.3266802  17.3071873  45.7524633  40.2127028  18.6440825
  49.1062021  37.8409934  20.9535670  50.2217293  37.7404809  20.4938674
  48.4396887  36.7213035  21.3188076  47.5432444  36.8041110  21.7766595
  48.8408613  35.3119397  20.9993744  49.3442011  35.4214096  20.0387669
  49.8500919  34.7560453  22.0190573  50.4975510  35.6147504  22.1965837
  49.2404127  34.4864726  22.8814578  50.5700922  33.5429239  21.4117193
  51.3388109  33.1755447  22.0915771  49.8889065  32.6920128  21.4055347
  51.1862803  33.7215948  20.0173521  50.4237938  33.3563828  19.0581834
  52.4012709  33.8887787  19.8668563  47.6639080  34.3455625  20.9155202
  46.7818594  34.3736768  21.7258954  47.7210379  33.4788918  19.9054122
  48.4570932  33.3613682  19.2238629  46.7329407  32.3744249  19.7003472
  46.8857384  31.9492722  18.7083805  47.0046473  31.2482476  20.7694745
  48.0624437  31.2595296  21.0322309  46.5678740  31.5160036  21.7315817
  46.6903400  29.7907376  20.4336429  45.6126165  29.6910954  20.3044677
  47.3020506  29.5182633  19.5736051  46.9366550  28.8072491  21.5747738
  48.0244398  28.8108468  21.6441107  46.5059280  29.2043638  22.4939418
  46.3546562  27.3956442  21.3325596  45.2857542  27.4077773  21.1194777
  46.8828869  26.9976521  20.4661465  46.5064240  26.6902781  22.5936747
  46.4391708  25.7026458  22.3932719  47.4558163  26.8578625  22.8947997
  45.8432388  26.9302940  23.3166385  45.3120184  33.0631900  19.5434678
  45.1790714  33.8713074  18.6243916  44.3396997  32.7254844  20.3914380
  44.5825291  32.1397161  21.1775756  43.0327082  33.2484984  20.3155875
  42.7302456  33.5130835  19.3023694  42.0498371  32.2026992  20.9032655
  42.1887445  32.1590376  21.9834948  41.0114384  32.4861240  20.7314849
  42.2353172  30.7474470  20.5860639  42.1070433  29.9401975  21.4922857
  42.4731827  30.3165603  19.4592345  42.8105593  34.4880772  21.2305403
  41.6976118  34.9985933  21.3422322  43.9000654  34.9550605  21.8666434
  44.8034573  34.5581841  21.6510797  43.8438225  35.8786988  22.9840255
  42.8468132  36.2798452  23.1660867  44.3444204  35.1487851  24.2382455
  45.3755617  34.8462367  24.0557384  44.3067741  35.8909059  25.0357080
  43.5266781  33.9535046  24.7132921  42.2322702  34.1494870  25.2876687
  41.7592859  35.1178408  25.3582191  41.4671040  33.0098629  25.7113242
  40.5137444  33.1527162  26.1982560  42.0140409  31.7595577  25.5954862
  41.2425518  30.7108641  25.9564018  40.6393862  30.9072208  26.6769838
  43.3669710  31.5109253  25.0405550  43.8297319  30.5505037  24.8677945
  44.1215849  32.6819348  24.6560359  45.0730515  32.4668050  24.1925454
  44.7372007  37.1170878  22.8499436  45.7034206  37.0845771  22.0261669
  44.4153547  38.1545091  23.6763954  43.4581375  38.1216931  23.9969516
  45.3670740  39.2119622  24.1628885  46.1467123  39.3560004  23.4148812
  44.5921373  40.4759407  24.3801832  43.7799454  40.3853369  25.1014519
  45.3321314  41.2165928  24.6834302  43.9454794  40.9043121  23.1410742
  44.6589041  40.9990549  22.1220517  42.6501036  41.1791849  23.0916190
  42.3904181  41.6618681  22.2432733  42.0286369  41.1644697  23.8876462
  45.9690094  38.7696457  25.5335736  45.2335024  38.2136416  26.3019085
  47.2319555  39.1669798  25.7919335  47.5976372  39.8798156  25.1769185
  48.1481886  38.4639859  26.6618276  47.5587749  37.8365755  27.3304486
  49.0133047  37.4851847  25.8455205  49.4631910  38.0615425  25.0371170
  50.1088428  36.9429994  26.7423391  50.4275227  36.1273503  26.0932946
  50.9013367  37.6129937  27.0757532  49.6726179  36.3950562  27.5775433
  48.1877995  36.3454938  25.2325320  48.9381695  35.7172084  24.7526288
  47.7811956  35.8167696  26.0946369  47.5455856  36.7650127  24.4581485
  48.9437151  39.3840861  27.5688720  49.8134518  40.0378513  27.1003532
  48.5940695  39.4886351  28.8476419  47.7810574  38.9898276  29.1797566
  49.2023039  40.3305387  29.8389006  49.8716402  41.0359716  29.3465042
  48.1311560  41.1832094  30.5107069  47.5625229  41.6374922  29.6992993
  47.3930407  40.5645704  31.0211730  48.8362789  42.1676064  31.3716626
  49.9160719  42.0187807  31.3733959  48.4734201  43.5467911  30.8257699
  49.0253210  43.7004375  29.8984623  47.4131584  43.7704945  30.7078767
  48.7589693  44.2931795  31.5670347  48.4604549  42.0176935  32.8615260
  49.2042255  42.5918818  33.4139848  47.4995279  42.4944019  33.0551171
  48.5869598  40.9787130  33.1658554  50.1045418  39.4744611  30.7689285
  49.5029020  38.8136744  31.6824865  51.3665533  39.4355106  30.5185151
  51.7481709  40.0203180  29.7888088  52.3619890  38.8479757  31.4216685
  51.9751596  37.9614711  31.9242334  53.6139870  38.3325481  30.6135416
  54.2507219  39.1872787  30.3852749  54.4871521  37.4095154  31.4166045
  54.0893507  36.4006233  31.5261149  55.3764200  37.3103666  30.7941341
  54.7309589  37.8080988  32.4013829  53.2856798  37.4616933  29.3219876
  54.1682005  37.0381141  28.8425708  52.5379658  36.6946292  29.5235848
  52.9254580  38.0994129  28.5147357  52.7476263  39.7842622  32.6052785
  53.3950090  40.8109283  32.2763562  52.5492764  39.4496465  33.8698006
  52.1325588  38.5391593  34.0019417  52.7691126  40.3319359  35.0038648
  53.4724998  41.1153316  34.7216582  51.4342308  40.8944893  35.3771806
  51.5512037  41.5491486  36.2408018  51.1618090  41.5279818  34.5330381
  50.1921606  40.0091696  35.5565357  49.8405218  39.5916867  34.6130538
  50.5230427  39.1250777  36.1015129  48.8002968  40.7961321  36.3066769
  49.2158604  40.6846189  38.0513239  50.2261066  41.0774803  38.1660247
  48.4718466  41.2160921  38.6446953  49.2165756  39.6520662  38.4005260
  53.2335377  39.6235633  36.2262368  53.1434345  38.3965397  36.4288950
  53.7194490  40.3543472  37.2457457  53.8804579  41.3381767  37.0837212
  53.9697599  39.7418904  38.5766220  54.9194670  39.2309785  38.4180903
  54.1569901  40.8139801  39.6039796  53.2105494  41.3448429  39.7066021
  54.3732357  40.2766132  40.5273342  55.3435040  41.7714167  39.5084405
  55.3319836  42.8538942  40.1398182  56.3529396  41.5471745  38.8266230
  52.9606581  38.6894822  39.1103482  51.7503977  39.0254045  39.2348933
  53.5527658  37.6647949  39.7171378  54.5584869  37.5819540  39.7592330
  52.7326298  36.6971898  40.3932571  51.8032885  36.5920377  39.8334670
  53.3847857  35.3250003  40.3407097  53.5550070  34.9100375  39.3472648
  54.3613052  35.4297876  40.8134937  52.5053167  34.2675567  41.0054779
  52.3705626  34.5675516  42.0446825  51.1730194  33.9224005  40.3777027
  50.5490780  34.7092533  40.8015633  51.3034773  34.0060878  39.2987800
  50.8337212  32.9167295  40.6258869  53.3033943  32.9614210  41.0934258
  53.6310911  32.6500750  40.1015663  54.3142176  33.1307578  41.4644670
  52.7716494  32.1320724  41.5598202  52.4052620  37.1722746  41.8369246
  53.2557487  36.9001794  42.6895618  51.1771774  37.6833773  42.0819187
  50.5945587  37.9028463  41.2866306  50.6613445  38.0690432  43.3576727
  51.4587545  38.5581803  43.9171219  49.4975519  39.0146708  43.0188036
  48.6370325  38.4320545  42.6899242  49.1560030  39.4065070  43.9768744
  49.6865416  40.1297188  41.9796276  49.8336411  39.8424315  40.9385061
  48.4053326  41.0002279  42.0359945  47.6042318  40.2869940  41.8420267
  48.2363272  41.4183521  43.0283213  48.3381033  41.8151426  41.3152313
  50.9330082  40.8524895  42.3913765  51.1007309  41.7445326  41.7878628
  50.7417393  41.1890745  43.4103107  51.7769861  40.1627111  42.3878717
  50.1778173  36.8997693  44.2072296  50.2758789  35.7416248  43.7817669
  49.6817303  37.0953798  45.4774284  49.3743134  38.0091572  45.7784367
  49.0433168  36.0007715  46.3300228  49.5415592  35.0452065  46.1664724
  49.3191624  36.2236691  47.3607159  47.5442362  35.7530689  46.2167072
  46.9706488  35.9881473  45.1652288  46.8412828  35.4925203  47.3681927
  47.3885822  34.8516774  48.5643101  47.2923756  35.5957913  49.3549681
  48.3957958  34.5132780  48.3211946  46.5009022  33.6929297  48.9732409
  46.6006184  33.3360124  49.9983120  46.5569258  32.8709364  48.2595968
  45.0976753  34.3849397  48.6755180  44.8196602  35.0170732  49.5188570
  44.3314600  33.6505413  48.4271908  45.3488541  35.3072262  47.4460697
  44.9445820  34.7990751  46.5705967  44.6139622  36.6675258  47.5547028
  45.1133537  37.6200557  48.1066227  43.2869005  36.6804719  47.2402334
  42.8487349  35.7899904  47.0527363  42.4357653  37.8775454  47.5362682
  43.0728817  38.7443686  47.3607540  41.2273169  37.8978586  46.6463089
  40.8758497  38.9282870  46.5935135  41.5125513  37.5794244  45.6436443
  40.0569582  37.1138144  47.2360802  40.2180099  36.1919689  47.0219278
  42.0466757  37.9397464  49.0478563  42.1269274  36.8967652  49.7626066
  41.5924597  39.1215324  49.5266819  41.6712332  39.8800683  48.8644695
  41.0042763  39.2957306  50.8044863  41.7119312  38.9698672  51.5668106
  40.7299089  40.7158947  51.1583900  40.0445890  40.9448147  50.3422832
  40.2783298  40.7661486  52.1491718  41.8761158  41.7614079  51.0684967
  42.2276831  41.7332125  50.0371313  41.2853718  43.1347704  51.4321423
  40.7919598  43.0443573  52.3998547  42.0256662  43.9336824  51.3896894
  40.4763842  43.3864021  50.7463455  42.9792356  41.3551712  52.0762873
  42.6093769  41.4475965  53.0974483  43.4577942  40.3911972  51.9035578
  43.8491440  41.9684553  51.8412495  39.8329782  38.3310318  51.0089207
  39.7436190  37.7817726  52.1158075  39.0167379  38.1435919  50.0056934
  39.2524672  38.7241793  49.2135763  37.8294253  37.2319007  50.1048183
  37.2686887  37.5940132  50.9665298  37.0372248  37.2883368  48.8822889
  36.7737246  38.3436394  48.8115692  37.6215076  37.0390725  47.9965210
  35.7737398  36.4425921  48.7367344  35.4959917  36.2385774  47.7026510
  35.9167838  35.4409075  49.1420317  34.5067906  37.0763469  49.3342495
  34.3960643  37.2351599  50.5219173  33.5657477  37.3478174  48.5313177
  38.1940198  35.7037306  50.2738094  37.5694776  35.0587296  51.1027384
  39.3210530  35.2042127  49.6404886  39.8280549  35.7856011  48.9885378
  39.9383140  33.9763594  50.0100183  39.1142631  33.2659411  49.9440813
  41.0367680  33.5474348  49.0182495  42.0128632  33.9079881  49.3427849
  41.0532761  32.4665308  49.1578007  40.7492208  33.8843822  47.5998306
  39.5864081  33.7204766  47.1316719  41.7525578  34.2291617  46.8709993
  40.5609560  33.8374472  51.4069366  40.5831766  32.8203297  52.0450497
  41.1650705  34.9407673  51.8699789  41.2458849  35.7086515  51.2188864
  41.7275429  35.0201035  53.2617760  42.2349215  34.0654087  53.4004259
  42.8373194  36.1212683  53.2757139  42.4085522  37.0849276  53.0007315
  43.2606173  36.1124277  54.2801237  44.0257835  35.6787133  52.3053694
  43.5489082  35.3622937  51.3776970  44.9359226  36.8827534  52.0308208
  45.6809759  36.5755129  51.2969255  44.3567324  37.5878572  51.4345980
  45.4190874  37.2721314  52.9269409  44.8419380  34.4989800  52.8000832
  44.3348074  33.9335918  53.5819149  45.0072861  33.8793492  51.9187117
  45.8133698  34.7936225  53.1970882  40.7284975  35.2292538  54.3592215
  40.9453297  34.8257327  55.4522991  39.5731044  35.8113360  54.0568447
  39.5317292  36.2904334  53.1686687  38.3255124  35.9035683  54.8439121
  38.4913158  36.3206410  55.8372164  37.3383689  36.7886853  54.0925264
  37.8731108  37.6212502  53.6353779  37.0723033  36.3495684  53.1310225
  36.1593175  37.3062801  54.8597670  36.4217353  38.0243564  56.0109043
  37.4464202  38.2813811  56.2353182  35.3310513  38.5773396  56.7109632
  35.5036473  39.1502571  57.6100636  33.9720130  38.3735180  56.2726736
  33.1481814  38.8320899  56.7993736  33.7626791  37.6457334  55.0315857
  32.7828717  37.6657963  54.5777416  34.8830175  37.1493411  54.3298626
  34.6545005  36.7950749  53.3355427  37.8361154  34.5097327  55.0472450
  37.6555252  34.0591335  56.1859512  37.7856660  33.7074566  53.9642668
  37.9355788  34.1862631  53.0876970  37.4787140  32.2600245  54.0564585
  36.5637326  32.1674013  54.6415472  37.2023392  31.7515039  52.6617098
  36.8726182  32.5661325  52.0169115  38.1175160  31.3893318  52.1933174
  36.1814642  30.6409383  52.6671314  35.8021283  30.1161551  53.6603022
  35.8239675  30.1451182  51.5527725  35.0687599  29.4860077  51.4289284
  36.2719560  30.4269505  50.6925535  38.4703970  31.3909340  54.7160053
  38.0938649  30.5819535  55.5128479  39.7534251  31.7090702  54.5169640
  39.9844813  32.2702241  53.7096119  40.8902168  31.0989642  55.2588892
  40.8138704  30.0217676  55.1108313  42.2794962  31.6818953  54.7559643
  42.2408819  31.8595266  53.6812305  42.3803759  32.6400137  55.2657986
  43.4820747  30.7969880  55.0879622  43.7043333  29.6149111  54.3310881
  43.0200052  29.3003154  53.5570526  44.8732615  28.8401198  54.5995855
  45.1958752  28.0248260  53.9690161  45.8114433  29.2720556  55.5994511
  46.6828918  28.6689019  55.8072805  45.5582762  30.4051876  56.3714695
  46.2332487  30.6705165  57.1717358  44.3487358  31.1055708  56.1665821
  44.1644812  32.0177817  56.7146015  40.7197332  31.1907220  56.7915583
  40.9375477  30.1814628  57.5076151  40.1689053  32.3651600  57.3227453
  39.8703957  33.0954623  56.6921473  39.8569679  32.5448680  58.7826538
  40.6031513  31.9782138  59.3396187  40.0208855  33.9855933  59.0992498
  39.1791248  34.4994068  58.6349916  40.0470781  34.0632153  60.1861668
  41.6069508  34.6720386  58.5269451  41.4078140  34.8569942  57.2188807
  38.4500933  32.1439052  59.2085028  38.0467629  32.3928905  60.3263140
  37.7361417  31.5043855  58.2744646  38.1804299  31.1609435  57.4349642
  36.2704992  31.1162066  58.4089708  36.0129285  30.5322075  57.5253963
  36.0899067  30.1520419  59.5894051  36.2375188  30.7159400  60.5104542
  35.0437522  29.8722887  59.4652700  36.9022822  28.9557171  59.4913101
  37.0609164  28.7425327  58.5688162  35.2176285  32.2277665  58.2802010
  34.3884134  32.3774552  59.2175150  35.3359962  33.1031394  57.3064709
  36.1216664  32.8938079  56.7073059  34.5611930  34.3117404  56.9386911
  35.1555133  34.8845744  56.2268305  33.2315874  33.7982368  56.3889313
  32.6789260  33.2026386  57.1155214  32.6898146  34.7268486  56.2093115
  33.5192084  33.0706048  55.0767994  34.1698313  33.6564016  54.4274664
  34.1109657  32.1635079  55.1997042  32.2589183  32.6334572  54.3008995
  32.6073956  32.0184922  53.4711504  31.6353393  31.9889784  54.9205017
  31.4361286  33.7630415  53.9524746  30.7186961  33.9387059  54.6413374
  31.3556218  34.3329811  52.7944279  32.1249580  34.2349458  51.7264938
  33.0320597  33.7918425  51.7569447  32.0775867  34.7830939  50.8795071
  30.4038954  35.2173758  52.7336693  29.8683667  35.4193449  53.5658407
  30.3144693  35.8259869  51.9326019  34.4058490  35.2403879  58.1241369
  33.2019091  35.5428457  58.4820318  35.4668474  35.7371163  58.7430811
  36.3351750  35.2600503  58.5468054  35.5273867  36.7795992  59.8243237
  35.0237465  37.6916075  59.5038605  34.9263406  36.2174678  61.1488247
  35.0032234  36.9590163  61.9439936  33.8679338  36.0090756  60.9924698
  35.4397130  34.8015642  61.5842199  35.2783346  34.0708423  60.7916880
  36.5113759  34.9052191  61.7542028  34.6667123  34.2459297  62.8436470
  34.8946095  34.9123311  63.6755562  33.5918951  34.3216348  62.6789188
  35.0606823  32.8319836  63.0952835  35.8630562  32.9020452  63.7047005
  34.4893289  31.6762686  62.7934313  33.4234190  31.5519118  62.0635700
  32.9462290  32.3886538  61.7598391  33.0174184  30.6271839  62.0754719
  35.0963330  30.6080341  63.2287931  35.7165623  30.6936669  64.0213108
  34.7047973  29.7135139  62.9706621  36.9429302  37.2281933  60.0901413
  37.8661585  36.4102411  60.1543331  37.1030402  38.5732126  60.2689314
  36.2962890  39.1784263  60.2143860  38.2770061  39.2845178  60.6669378
  39.1237640  38.6166596  60.8252716  38.7286639  40.2647972  59.5635223
  37.9299259  40.9623337  59.3114138  39.5676589  40.8076572  59.9988317
  39.2407966  39.5474219  58.2302141  39.8970604  38.2961130  58.0858469
  40.0211239  37.6795745  58.9638472  40.5369186  37.9460907  56.8674231
  41.0809851  37.0228672  56.7330742  40.4938984  38.8726592  55.7898045
  41.1644411  38.6523485  54.9723387  39.7877359  40.0670862  55.9107924
  39.6701336  40.7468891  55.0798702  39.1483688  40.4077768  57.1156597
  38.7304664  41.4028025  57.1567202  38.0335593  40.0012970  62.0566225
  36.9989800  40.6502533  62.3205614  38.9956570  39.7429299  62.9845381
  39.6152902  38.9685106  62.7936792  39.1011858  40.4516315  64.2763042
  38.1567931  40.2912378  64.7963953  40.2958298  39.9919009  65.1392174
  40.3812933  40.5828762  66.0511112  40.2372885  38.4901071  65.4710436
  39.4190621  38.3535600  66.1781168  40.2237320  37.9033017  64.5525742
  41.1079025  38.1632781  66.0396576  41.4465523  40.2190113  64.4269848
  41.6279793  39.4578671  63.8707924  39.2201400  41.9485426  63.9635229
  39.7420073  42.3430443  62.8985977  38.9068794  42.7107143  65.0002241
  38.5126472  42.3657036  65.8637381  39.0168881  44.1816998  64.8787832
  38.4368086  44.4933748  64.0101814  38.5686970  44.9173212  66.1801958
  37.6507401  44.4584227  66.5474367  39.3445086  44.9920416  66.9421911
  38.2033062  46.3709688  65.9353971  38.9230204  47.0347881  66.4144087
  38.1933594  46.6347599  64.8778439  36.5220070  46.8777275  66.4574385
  36.8091726  46.6285610  68.2427359  37.6912785  47.1738052  68.5784435
  35.9292269  46.9791746  68.7820578  37.0718360  45.5888700  68.4380579
  40.4654551  44.7095156  64.4980049  40.5771780  45.5236673  63.5567617
  41.4802217  44.1683865  65.1871157  41.1541796  43.6294365  65.9766293
  42.9199362  44.5495367  64.9139357  43.1840563  45.5589962  65.2290916
  43.7948704  43.6198139  65.6959295  43.5807276  43.7718153  66.7538214
  43.5807705  42.5899553  65.4101849  45.3241444  43.7705708  65.4405642
  45.6026793  43.9860725  64.4090223  45.6483269  44.6913004  65.9256124
  46.0884666  42.5960016  66.0949850  45.9306192  42.5995731  67.1734905
  45.5955887  41.7042732  65.7076883  47.6219463  42.5973940  65.8398151
  47.8897381  42.4162626  64.7988653  47.9842234  43.6142635  65.9909248
  48.4712553  41.7948055  66.7538977  49.4540167  42.0224285  66.7042351
  48.1737041  41.6756201  67.7116871  48.4536743  40.8399057  66.4253330
  43.2735062  44.4272947  63.4550762  43.8514233  45.3161860  62.8355598
  42.8712654  43.3336163  62.7756596  42.6142025  42.5766325  63.3929157
  42.9191971  43.0498219  61.3572836  43.9791632  43.1140089  61.1114073
  42.4027634  41.6312122  61.1588478  41.4392853  41.6026926  61.6677570
  42.5010347  41.2509775  59.7501183  42.2380638  40.1978827  59.6504259
  41.7501783  41.8293667  59.2118025  43.5094404  41.3975286  59.3631506
  43.3738852  40.8946085  61.7682314  42.9738760  40.1603174  62.2398281
  42.2572994  44.1650152  60.5569172  42.8625393  44.7529697  59.6706676
  40.9540844  44.3828201  60.6772995  40.4889441  43.7915993  61.3512564
  40.1160383  45.3826475  59.8803282  40.2350235  45.1379013  58.8248444
  38.6216378  45.3711605  60.3563595  38.5702276  45.7369328  61.3818693
  37.6667595  46.1565590  59.4207096  36.6287065  46.1082077  59.7496605
  38.0782294  47.1650600  59.4621611  37.8377056  45.7622528  58.4190130
  37.9318166  43.9883614  60.2709961  38.4260225  43.3694220  61.0198402
  36.8768001  43.9999628  60.5446911  38.0743766  43.5601044  59.2788363
  40.6244278  46.8331337  59.8910236  40.7728910  47.4200916  58.8096189
  41.0210228  47.3960018  61.0671043  40.9167385  46.8778467  61.9277668
  41.6747904  48.7509918  61.1039352  41.0295343  49.4367409  60.5548477
  41.8336201  49.2568779  62.4931097  42.7345943  48.8375044  62.9408503
  42.0493650  50.3174210  62.3634386  40.6242037  49.0985775  63.5593319
  40.0984907  48.1610537  63.3783054  41.2488461  49.0316153  64.9610615
  41.9812059  49.8105431  65.1732540  40.4425001  48.9727640  65.6921148
  41.7988539  48.0923843  65.0196457  39.6575475  50.2950764  63.6072159
  40.1340723  51.1952257  63.9954805  39.2997575  50.5691385  62.6147509
  38.8456106  50.0468826  64.2907810  43.0550718  48.6114836  60.3825521
  43.4761143  49.4818354  59.5885563  43.8822651  47.6262760  60.7128572
  43.6195278  46.8989182  61.3624859  45.1881266  47.5668383  59.9985218
  45.6957674  48.5097551  60.2017593  46.0868454  46.5678692  60.7805395
  46.1260891  46.8542862  61.8315077  45.7081318  45.5513716  60.6737185
  47.5401020  46.6208124  60.3086090  47.6314259  46.2829876  59.2763138
  47.9027748  47.6481581  60.3422260  48.6689425  45.7342768  61.3591099
  47.9513597  44.0047026  61.1864138  46.9250393  44.0075302  61.5535069
  47.9416656  43.7568998  60.1249981  48.5754395  43.3265591  61.7684364
  45.0467730  47.2981215  58.4978724  45.8692503  47.8285694  57.7916813
  44.0069580  46.6105795  57.9617023  43.3767462  46.2158346  58.6451626
  43.7122059  46.3970995  56.5440178  44.5954800  46.1319351  55.9629631
  42.6472807  45.3091145  56.4757776  42.0698595  45.3851032  57.3971415
  41.8974733  45.6028175  55.7411814  43.0048037  43.7796926  56.1902952
  43.6330557  43.3620882  56.9770622  41.7501163  42.9774761  56.0982943
  42.0034170  41.9411325  55.8748388  41.2844086  43.0054045  57.0834064
  41.1197948  43.3695316  55.3001165  43.8530350  43.6944008  54.9375200
  43.8741827  42.6551247  54.6095419  43.4746790  44.2467690  54.0773821
  44.9148560  43.9230490  55.0289059  43.2205200  47.7485418  56.0270166
  43.6615562  48.1278563  54.9237299  42.4554014  48.5515881  56.7605877
  42.1681356  48.1686592  57.6499414  41.8369293  49.8068523  56.2092066
  41.1990213  49.6047163  55.3487921  40.9198189  50.3070831  57.2985125
  40.3860903  51.2277794  57.0628119  40.1642847  49.5935345  57.6273251
  41.4875889  50.6006002  58.1814575  42.8563404  50.8691931  55.7784653
  42.6396656  51.4821529  54.7231340  43.9313555  50.9337139  56.5068674
  43.9552069  50.3230190  57.3109770  45.1154661  51.8411493  56.3441801
  44.7545481  52.8691769  56.3756990  46.1019993  51.5885162  57.5139380
  45.5777693  51.2887859  58.4213781  46.7104626  50.7188416  57.2658682
  47.1203184  52.7542639  57.7257872  48.3621502  52.5506878  57.5474215
  46.7128706  53.9378500  57.9221344  45.6629753  51.5587759  54.8685217
  45.7318974  52.5816965  54.1433525  45.9624195  50.3195286  54.4250441
  45.8033371  49.5578480  55.0689650  46.3401747  50.1363468  53.0090714
  47.0058441  50.9620953  52.7578306  47.0578337  48.7579775  52.8240585
  46.6270113  47.9253864  53.3801985  47.2205687  48.6626434  51.7504978
  48.4577799  48.9289331  53.2973623  48.8871288  49.8896217  53.0130434
  48.3157349  49.0077019  54.3751955  49.3549585  47.7413464  52.9243517
  49.9717331  47.6840734  51.8458223  49.4165277  46.7105341  53.7306070
  49.9897099  45.9235334  53.4619188  49.0090322  46.8080568  54.6495914
  45.2132750  50.2236986  52.0299435  45.4338694  50.8001041  50.9702539
  43.9908838  49.7340345  52.2701311  43.8832092  49.2197704  53.1327105
  42.8136158  49.6490383  51.4042425  43.1255674  48.9958096  50.5893278
  41.5857220  49.0230131  52.1510267  41.5610600  49.3211842  53.1991625
  40.7207298  49.2940235  51.5456867  41.7028475  47.4795485  52.0542336
  41.3567114  47.1725988  51.0672808  42.7505827  47.2251749  52.2144032
  40.5819988  46.7143202  53.2892656  39.0821075  47.5192928  52.7956867
  38.8676810  48.5356140  53.1261635  39.0309072  47.4274969  51.7107677
  38.2828879  46.8939924  53.1936216  42.5145626  51.0934734  50.9200287
  42.5488853  51.3635731  49.7387505  42.3884869  51.9831800  51.8878412
  42.5489044  51.7330933  52.8531504  42.2609711  53.4354544  51.6148853
  41.3673353  53.6068869  51.0147858  42.1435690  54.1683149  53.0491686
  42.9677296  53.7255096  53.6084414  42.2823906  55.6989717  52.8219461
  43.3620501  55.7987642  52.7102518  41.7697716  55.9318733  51.8886280
  41.8397474  56.3286304  53.5937643  40.8043623  53.8074636  53.7232494
  40.0352383  54.4696045  53.3256102  40.6215286  52.7600384  53.4833050
  40.7882214  54.0958595  55.2695560  41.3351774  55.0186110  55.4631329
  39.7538686  54.0919065  55.6133652  41.3846159  53.3619022  55.8115101
  43.4206867  53.9675093  50.7923794  43.1933451  54.6465731  49.7828722
  44.6676540  53.7073421  51.2714911  44.7390938  52.9999733  51.9888639
  45.9032011  54.1000700  50.5514717  46.0325336  55.1820469  50.5778265
  47.1767139  53.6819649  51.2455702  47.2982073  52.6041460  51.3535357
  48.0508471  54.1159439  50.7601309  47.0254898  54.1509390  52.5537968
  46.6822243  53.5550356  53.2236242  46.0834742  53.6648893  49.1024446
  46.4180994  54.4507694  48.1866312  45.7051754  52.4296904  48.7713528
  45.3494453  51.9114113  49.5618820  45.4944468  51.9129896  47.3965931
  46.3170147  52.0379829  46.6924143  45.0812483  50.4558229  47.4687624
  44.4028854  50.3651047  48.3171082  44.5829010  50.1966715  46.5346336
  46.2477112  49.4671774  47.6522732  46.3763523  49.2470884  48.7120438
  45.9766436  48.4657907  47.3178148  47.5290060  49.8571539  46.9431925
  48.2387495  49.0709686  46.6857529  47.2537374  50.2633238  45.9698677
  48.4144592  50.7325220  47.7890062  48.7139320  51.5966606  47.3604202
  49.1732216  50.3659344  48.7696409  49.2667389  49.1043901  49.2187977
  48.7284946  48.4449673  48.6751556  49.7333145  48.8584089  50.0801373
  49.8019457  51.2991476  49.3935966  49.9310017  52.1952295  48.9458370
  50.2770519  51.0781527  50.2570391  44.4439316  52.6677227  46.5615273
  44.7801256  53.1111860  45.4721117  43.2856798  53.0350971  47.1641684
  43.0539560  52.6022434  48.0468035  42.2929859  53.9536715  46.5534830
  42.2277594  53.5409832  45.5467367  40.9362888  53.8072824  47.3504448
  41.1532593  53.8791084  48.4162140  39.9360776  54.9477291  47.0219231
  40.1304293  55.3615665  46.0324430  38.9117694  54.6514845  47.2480440
  40.1665640  55.7759953  47.6919603  40.1917791  52.4543715  47.0600557
  40.6917095  51.6498661  47.5994444  39.2646575  52.4511528  47.6332378
  39.9375701  52.2490025  45.6045008  39.5099282  53.1340408  45.1334095
  40.8762169  51.9404888  45.1442146  39.2759109  51.4059591  45.4055262
  42.7593088  55.4076385  46.4733219  42.7254152  55.9797049  45.3557968
  43.3368158  55.9570742  47.5494480  43.6578369  55.3292751  48.2725763
  43.9538717  57.2683764  47.4500608  43.1316233  57.9573298  47.2567654
  44.7092724  57.6524925  48.7502241  44.0405178  57.6884890  49.6102095
  45.3672075  56.8135166  48.9768076  45.5097580  58.9717674  48.6439466
  45.9823608  59.0463400  47.6645660  44.8286915  59.8022747  48.8297129
  46.6102934  58.9910698  49.7156000  46.9633865  60.1143599  50.2156448
  47.0548010  57.9508972  50.2087450  44.8590708  57.3500395  46.2331343
  44.7947264  58.3460569  45.5425262  45.7703066  56.3382149  45.9838867
  45.9749746  55.7472754  46.7769814  46.6499805  56.3199377  44.8097515
  47.0848322  57.3194265  44.8044682  47.7556086  55.2082491  44.9883318
  48.3125734  55.3203011  45.9185648  47.2646046  54.2373943  45.0551605
  48.8076019  55.3070450  43.8446617  49.7379160  56.3760233  43.8716984
  49.8467302  57.0135260  44.7366524  50.7223988  56.4129162  42.8726768
  51.4206839  57.2365904  42.8537464  50.8272552  55.4295540  41.9051075
  51.8454695  55.4445934  40.9275150  51.7759418  54.6554089  40.3853369
  49.9792099  54.3207121  41.9322491  50.1946878  53.4391737  41.3467026
  48.9493752  54.3099451  42.9100704  48.1933260  53.5667467  42.7040434
  45.9060526  56.2547970  43.4093857  46.1814642  57.0512247  42.5124884
  44.8127079  55.5163860  43.3682156  44.5023394  54.9838781  44.1683483
  43.9399147  55.6124783  42.1758795  44.5578861  55.3027391  41.3331032
  42.8290319  54.5355415  42.3203897  42.3698759  54.6775961  43.2986975
  41.7106009  54.6232414  41.2664127  42.1220112  54.2588043  40.3251219
  40.9217691  53.9287138  41.5553379  41.2855244  55.6223059  41.1701059
  43.4438801  53.1353331  42.2725201  42.7828646  52.3767996  42.6918077
  43.7471437  52.8343725  41.2697506  44.2056847  53.1114864  43.0517387
  43.3144188  57.0182467  41.9230175  43.4893417  57.7026272  40.9138680
  42.7054453  57.5355816  42.9755783  42.7269077  57.1290541  43.8999033
  42.0215845  58.8173437  43.0064487  41.2430525  58.8298321  42.2436619
  41.2779379  59.0346098  44.3786478  41.9066143  58.8372231  45.2469254
  41.0909748  60.1047564  44.4676733  40.0236511  58.2042217  44.6348524
  39.2063379  58.4389877  45.7077932  38.2278872  57.5273657  45.7615328
  37.4845529  57.4123096  46.5365267  38.3374166  56.7885303  44.5969915
  37.7304912  56.0460854  44.2799425  39.4805193  57.2058392  43.9118814
  39.8854256  56.7651272  43.0128670  42.9574442  59.9706602  42.6117897
  42.5847197  60.6304455  41.6761732  44.0262270  60.2912283  43.3658552
  44.2245102  59.6897459  44.1526222  45.0289011  61.3011837  43.0527449
  44.5395184  62.2731113  43.1157255  46.1985970  61.3654757  44.0786648
  46.9735813  62.0856524  43.8162947  45.6524372  61.7132139  45.4699898
  46.4380932  61.5769958  46.2131500  45.1728058  62.6910734  45.5130196
  44.9191284  60.9667206  45.7751131  46.8623829  60.1399136  44.1572380
  46.1916971  59.5391035  44.4901180  45.6705332  61.1759043  41.6123581
  46.2335062  62.1949959  41.0919523  45.6425047  59.9505234  40.9379196
  45.2376366  59.1396379  41.3836193  46.1498451  59.8687935  39.5148325
  46.9062757  60.5891418  39.2033720  46.7733526  58.4620953  39.3350196
  46.1763430  57.7032518  39.8408270  46.6723394  58.2389402  38.2729006
  48.1452465  58.2937860  39.9578834  48.0072832  58.4858131  41.0219288
  48.4269714  57.2487116  39.8292375  49.2369556  59.1636324  39.3192434
  49.1972923  58.9457703  38.2519746  48.9948320  60.2126312  39.4897628
  50.6420660  58.8547468  39.8066926  50.6205177  57.8428173  40.2112198
  51.3466644  58.8823223  38.9754987  51.1027241  59.7454023  40.8784771
  51.2941599  60.6647873  40.5067444  50.3418398  60.0444746  41.4715385
  51.8697166  59.3899107  41.4311552  45.0053549  60.1507282  38.5046339
  45.2670527  60.0276041  37.3505354  43.7613869  60.4580402  38.9980459
  43.5988712  60.3955221  39.9929237  42.6300955  60.9973335  38.2295966
  42.0916080  61.6517258  38.9150953  42.9557610  61.9114494  37.0635176
  43.4834337  61.4338684  36.2379384  42.0719814  62.4270058  36.6877055
  43.8652945  63.0268812  37.4397898  43.4941339  64.1036892  37.9164219
  45.1790333  62.8955746  37.2826529  45.8021593  63.6240196  37.6007438
  45.5092525  62.2357750  36.5929294  41.6602993  59.9317169  37.7273989
  40.7008934  60.2107668  36.9893861  41.9579458  58.6880064  38.0357480
  42.5780725  58.6847687  38.8329506  41.0911179  57.5235033  37.7203536
  40.4377270  57.6968956  36.8652987  41.9007158  56.2485361  37.4941421
  42.6226616  56.0647631  38.2898307  41.2649393  55.3959370  37.2554660
  42.7339697  56.3488626  36.2630916  44.0784168  56.6678572  36.4990211
  44.4530916  56.9894361  37.4595451  44.8647547  56.9175053  35.3534675
  45.8849239  57.2312212  35.5185294  44.4082737  56.7055368  34.0694928
  45.0784063  56.7074013  33.2225442  43.0991888  56.2694025  33.8390589
  42.7454138  55.9608269  32.8664207  42.3169661  56.1096668  34.9695539
  41.2843895  55.9031296  34.7297025  40.1048517  57.2048473  38.9413190
  40.1735449  57.9238939  39.9083686  39.2650700  56.1338806  38.8202286
  39.4225955  55.6198072  37.9652333  38.2466125  55.5765295  39.7384024
  38.5223031  55.5795670  40.7929564  36.8597269  56.3556099  39.7164059
  36.1947370  55.8315706  40.4028988  36.9949722  57.6757097  40.5024815
  37.3657656  58.4517860  39.8329115  35.9917903  57.9151726  40.8551693
  37.5411654  57.5103092  41.4311457  36.2889957  56.5675211  38.3256078
  37.0045328  57.0749855  37.6786280  36.0473180  55.6033564  37.8783035
  34.9965215  57.3718500  38.3238459  35.1289272  58.3701468  38.7409449
  34.8126864  57.5295401  37.2610927  34.2425394  56.8780708  38.9368677
  37.8410840  54.1176891  39.4630075  37.7824569  53.7787533  38.3200407
  37.5290990  53.2631540  40.4201746  37.4730921  53.5784531  41.3780642
  37.3513293  51.8001890  40.1827717  37.9979229  51.4805651  39.3655467
  37.8725266  51.1334991  41.4601374  38.8373113  51.5090084  41.8011475
  37.1776843  51.2659025  42.2894526  38.0318713  49.6377850  41.2862015
  36.9623828  48.7312651  41.0639286  37.5349498  47.4796963  40.9497595
  37.0545244  46.6096544  40.5271292  38.9028263  47.5922537  41.0807610
  39.5433378  46.8344402  40.8921766  39.1981387  48.9451361  41.4036989
  40.1320982  49.3852806  41.7205572  35.9396935  51.4284945  39.8657918
  35.7556629  50.8622551  38.7700701  34.9443865  51.9257593  40.6215239
  35.1788855  52.5043011  41.4155054  33.5058284  51.7379475  40.3392458
  32.9225874  52.3685551  41.0102654  33.1047821  52.2296762  38.9481807
  33.4549761  51.4827204  38.2357740  32.0155787  52.2608089  38.9758372
  33.7303567  53.6706495  38.6510730  33.5487056  54.2674446  39.5449090
  34.7937083  53.6798668  38.4117126  32.9683876  54.4449949  37.5845361
  32.0280170  54.7560787  38.0395412  33.4206104  55.4080725  37.3477316
  32.8779507  53.6459827  36.3076997  33.5074806  52.8614378  36.2166858
  31.8130064  53.6900616  35.5528736  30.9682918  54.7400808  35.4522538
  31.2777734  55.5976582  35.8868647  30.1866674  54.6783686  34.8155761
  31.5633655  52.6864243  34.7570252  32.1809435  51.8936062  34.6563220
  30.9809065  52.8693724  33.9524317  32.9383326  50.3541660  40.8078384
  31.7965531  50.3594065  41.3330221  33.7584066  49.2742920  40.5830050
  34.6466827  49.4387627  40.1313257  33.3654094  47.8996038  40.8498240
  32.2821879  47.9364920  40.9654856  33.7149262  47.2186470  39.5233727
  33.2496524  47.8124523  38.7365985  34.7902203  47.2736025  39.3535733
  33.2589054  45.7996225  39.5568967  32.1632910  45.5318308  40.0296211
  34.0332770  44.9578094  39.0805030  33.9971447  47.3390532  42.1401834
  34.6939731  46.3265228  42.1414709  33.8145614  48.0466747  43.2232380
  33.2542086  48.8685942  43.0484343  34.3727541  47.7559423  44.6012449
  35.4469061  47.7620459  44.4161463  34.1508389  49.0107107  45.4616594
  33.0818629  49.2036676  45.3713512  34.6349907  48.8631153  46.9218302
  33.8891101  48.2698822  47.4508190  35.6568837  48.4925747  47.0026588
  34.6684694  49.8136139  47.4543142  34.7717500  50.3166962  44.8106098
  34.4401574  50.4786205  43.7849760  34.2623949  51.0898590  45.3858280
  36.3308811  50.4198122  44.9989605  36.6801643  49.6099281  44.3585062
  36.6065240  51.4004946  44.6111631  36.6484618  50.4351950  46.0415554
  33.9077044  46.4234161  45.2349186  32.7428365  46.1186886  45.2768135
  34.9046230  45.6802464  45.6699991  35.8684182  45.9795189  45.6294823
  34.7712660  44.2884731  46.2307835  34.0834260  44.4767857  47.0551062
  34.0993357  43.3169031  45.1933575  33.8951755  42.3108101  45.5596876
  33.1416845  43.7363052  44.8849630  34.8843360  43.0843115  43.9162779
  35.0375175  44.0703249  43.4776258  35.8308744  42.6834965  44.2789221
  34.1425991  42.2704411  42.7763796  33.8476968  41.3321733  43.2462692
  33.3734560  42.9295635  42.3737860  35.1661348  41.9982004  41.5997744
  36.0780954  41.5842104  42.0299339  34.7109795  41.2614727  40.9378290
  35.5234742  43.1678343  40.7319593  36.0237789  43.8529873  41.2800169
  36.2391305  42.8406000  40.0988340  34.7446871  43.6296606  40.2844048
  36.0950351  43.7558556  46.8062782  37.1475196  44.1201019  46.3577604
  36.1453843  42.8504944  47.7862692  35.0229287  42.1689653  48.3641863
  34.4030643  41.7342854  47.5800180  34.4591713  42.9034328  48.9393663
  35.4575372  41.0427713  49.2940903  35.4212332  40.1319599  48.6964178
  34.7361755  41.0102940  50.1105976  36.8625164  41.5312433  49.6945000
  37.5669718  40.7631636  50.0137091  36.8153453  42.2371244  50.5237150
  37.3762202  42.2591400  48.4562302  38.0140638  43.0855560  48.7697506
  38.1328964  41.3458109  47.6280594  39.3339968  41.3979912  47.7337408
  37.5590467  40.7390976  46.6505766  36.5541077  40.7120752  46.5532923
  38.2958007  40.1982355  45.4680014  38.7184000  39.2309475  45.7397890
  37.2352743  39.8012352  44.4054317  37.0044398  40.7031441  43.8385296
  37.7657390  39.0966845  43.7648726  35.8872914  39.1983342  44.9459457
  34.9138880  39.9210978  45.3310585  35.7780457  37.9810095  44.9722385
  39.3110657  41.1320448  44.7341585  40.1896572  40.7070446  43.9853096
  39.0042257  42.3998117  44.6892643  38.1074357  42.7361822  45.0097704
  39.8641539  43.3790445  44.0100050  39.9717379  43.1487656  42.9500532
  39.2245436  44.8094368  44.0571499  39.1175151  45.0965118  45.1032066
  39.8433781  45.5980682  43.6291313  37.8944421  45.0304174  43.4099579
  37.3366475  44.1310740  42.8482723  37.3885083  46.2211609  43.3903790
  36.4871716  46.3505411  42.9534006  37.9246926  47.0117378  43.7183905
  41.2878275  43.5387707  44.6150875  42.2889090  44.0763617  44.1408396
  41.3109159  43.1346130  45.8794022  40.4308367  42.8463840  46.2825012
  42.4525166  43.2729149  46.7518663  43.1750822  43.9496040  46.2957001
  41.9886398  43.8812971  48.1536913  41.2987614  43.1830454  48.6276293
  42.8010273  43.9081001  48.8799238  41.3599443  45.2691078  48.1145763
  42.1710396  46.3867140  48.3664131  43.2314491  46.2759638  48.5386896
  41.5396643  47.6671600  48.4507036  42.1630812  48.5317373  48.6246347
  40.2039862  47.7648544  48.1170082  39.8748708  48.7916183  48.0550480
  39.3902802  46.7053699  47.7834463  38.3712745  46.8335104  47.4493551
  39.9596119  45.4751778  47.8514147  39.3712378  44.6001434  47.6178885
  43.0708790  41.9203615  46.8902349  42.4810743  40.9367275  47.2993183
  44.3327713  41.8333197  46.4963007  44.7796059  42.7105331  46.2706280
  45.2367640  40.6876612  46.5830040  44.5967293  39.9508834  47.0684004
  45.6833839  40.3620529  45.1387882  45.7265186  41.3027811  44.5899105
  46.7191029  40.0387907  45.2431631  44.8420620  39.2138886  44.4778728
  44.8830414  38.3153105  45.0934839  43.3856583  39.4683838  44.2013931
  42.9167652  38.5997486  43.7390995  42.9234838  39.7258234  45.1543999
  43.2128811  40.2914047  43.5079336  45.5581999  38.7050462  43.1992912
  45.1868677  37.7513671  42.8241730  45.7024336  39.4336367  42.4015141
  46.5584660  38.4593725  43.5559654  46.4272785  40.9782410  47.5266600
  46.9789171  42.0533180  47.5164557  46.8140221  40.0240993  48.3634567
  46.2672281  39.1761851  48.4099054  47.9564667  40.1160574  49.3011379
  48.0044699  41.1657763  49.5907879  47.6856375  39.2693400  50.5319405
  47.4960423  38.2148123  50.3316307  48.5701847  39.3830347  51.1586475
  46.5565395  39.8286605  51.4390469  45.6053400  39.6904564  50.9250259
  46.5351343  39.1070533  52.2557020  46.9156218  41.5171528  52.1404791
  48.5272980  41.3964891  52.9564476  48.6586332  42.2983360  53.5543871
  48.3901787  40.6385565  53.7277031  49.3664598  41.1741924  52.2972918
  49.1785383  39.7437334  48.5252047  49.0909386  38.7308979  47.8387976
  50.3418255  40.3730440  48.8458204  50.2670860  41.1564732  49.4788790
  51.6510010  40.1608372  48.2575417  51.5809536  39.9618983  47.1881390
  52.3131704  41.0143232  48.4031343  52.3527479  38.9851475  48.8741493
  53.5633802  38.8131285  48.7922573  51.6393566  38.0823112  49.5394802
  50.6472492  38.2705450  49.5592928  52.0866060  36.7587614  50.0110817
  52.6169682  36.8063068  50.9621620  50.8279657  35.9733510  50.5043173
  50.0582457  35.9724498  49.7325468  51.1304331  34.4880366  50.9441614
  50.2434397  34.0438151  51.3958406  51.5235472  33.8873506  50.1239586
  51.9303751  34.6363425  51.6695547  50.1332521  36.7400551  51.6057062
  50.8143282  36.8446350  52.4502707  49.8646212  37.7627611  51.3411093
  48.8053560  36.0545111  52.2036743  48.3113575  35.4252410  51.4633465
  49.0319014  35.5565548  53.1464481  48.2103491  36.8842268  52.5852919
  52.9021645  35.9931564  49.0061331  52.4551868  35.6825185  47.9030848
  54.0915012  35.6389236  49.4141245  54.3953657  35.9641242  50.3207731
  55.0610304  35.0643873  48.5181570  55.6561232  34.3207717  49.0482569
  54.6116066  34.4148064  47.7670479  56.0906506  36.0631537  47.8895140
  57.0560789  35.5603981  47.3484278  55.8306456  37.3916364  47.9147577
  54.9630165  37.6305842  48.3732510  56.8171120  38.3774042  47.6105547
  57.7592468  37.8518414  47.4547815  56.6011143  38.9974499  46.1890936
  57.5176096  39.5345116  45.9447575  56.5980482  38.1318092  45.5267048
  55.3140450  39.7996879  45.9118414  54.4482613  39.2958188  46.3415384
  55.3796673  40.7145882  46.5006971  54.9355030  40.2404451  44.4981050
  54.0127993  40.8207083  44.5028019  55.6102896  40.9766054  44.0612602
  54.8672104  39.1292310  43.5211754  54.0531683  38.5462761  43.6538363
  55.8704519  38.7154722  42.7787304  56.9467831  39.3976665  42.5299931
  56.9473696  40.3880978  42.7278662  57.5437117  39.1477180  41.7545557
  55.8719635  37.4861145  42.2387028  55.1328611  36.8558812  42.5155258
  56.5688801  37.1829200  41.5735054  57.0404291  39.4294190  48.6761189
  58.1160307  39.4302940  49.2134047  55.9624767  40.1345205  49.1219473
  55.0739622  39.7713113  48.8077497  56.0561132  41.1023712  50.2556324
  56.9616938  40.9064817  50.8297873  56.1697006  42.5357628  49.6719933
  55.2952814  42.6579523  49.0327978  56.1573219  43.2822657  50.4661465
  57.2871590  42.6538134  48.6876965  57.1879148  42.5836277  47.3353767
  58.4101629  42.7289486  46.8396664  58.7851667  42.7299786  45.8268642
  59.3245792  42.8020382  47.8519821  60.3327847  42.7933741  47.7924347
  58.6653948  42.7685213  49.0427542  59.0298891  42.9243565  50.0473738
  54.8263597  40.8277988  51.1017418  53.7504148  41.1226559  50.7133389
  54.8661089  40.0078726  52.1913958  55.7805872  39.6539617  52.4334192
  53.6333227  39.4349146  52.7038956  53.1045914  38.8196421  51.9758940
  54.0967941  38.6402678  53.9799118  54.9153090  37.9474545  53.7846088
  54.4186449  39.3740153  54.7189140  52.7262497  37.7041841  54.6558666
  52.2199154  38.6122465  55.4948807  52.6345205  40.5086327  53.1771803
  51.3990307  40.3962994  53.0496025  53.1243467  41.6540194  53.7137985
  54.1242170  41.7873573  53.7645721  52.3052120  42.8033686  54.1889143
  51.4503193  42.4846983  54.7853279  53.1367588  43.7989950  55.0100422
  52.4869537  44.6319294  55.2785063  53.4564352  43.3045292  55.9273243
  54.4320488  44.3925381  54.5053768  54.9112940  44.1641426  53.4119129
  55.1005363  45.1761150  55.2757120  55.9978580  45.6069279  55.1044989
  54.6169806  45.5693293  56.0704851  51.6593504  43.6206961  53.0667973
  50.7347107  44.3411493  53.4178305  52.1291971  43.5007048  51.8354321
  52.6813507  42.6794577  51.6334867  51.8090439  44.3688202  50.7713699
  51.8858624  45.3417873  51.2566805  52.9089451  44.3019056  49.7243786
  53.9090872  44.3771362  50.1511765  52.8222418  43.3883858  49.1361094
  52.8039646  45.5152750  48.7041426  51.8344402  45.5048037  48.2061338
  52.8671217  46.4463568  49.2673492  53.8426495  45.4909182  47.5800800
  53.6513996  44.5336723  47.0950985  53.5033798  46.2465906  46.8715954
  55.2898312  45.7983160  48.0544853  55.3200054  46.8839025  48.1477261
  55.3748369  45.1594305  48.9335155  56.3570166  45.4423666  47.0839787
  56.3009596  46.1105824  46.3286924  57.3160791  45.5249882  47.3897076
  56.2802505  44.5381784  46.6405249  50.3892326  44.1154385  50.2005911
  50.0513458  42.9750395  49.8902273  49.5538998  45.1866531  50.0766897
  49.8347330  46.0547829  50.5098104  48.2569933  45.0900364  49.4742870
  47.8373957  44.0877438  49.5605707  47.3855734  46.0100985  50.3654814
  47.5121546  45.7401133  51.4139032  47.5712109  47.0815372  50.2902508
  45.8371878  45.7765436  50.1271820  45.5436516  46.1282825  49.1381359
  45.4857445  44.2864609  50.1864338  45.7131195  43.7900400  49.2430544
  45.9084415  43.7224102  51.0178661  44.4193935  44.1395712  50.3579426
  45.0649357  46.5828896  51.1389399  44.0612364  46.4174604  50.7473707
  45.4293442  46.2374306  52.1063948  45.4198456  47.6118755  51.0812616
  48.2279634  45.5978346  47.9893112  48.2701445  46.8304062  47.6561832
  47.9497910  44.6292591  47.0521498  47.7718306  43.6965179  47.3962784
  47.7381563  44.8761654  45.6002712  48.2220459  45.8270645  45.3772497
  48.3198881  43.7813091  44.7908926  47.9481649  42.8171396  45.1377392
  47.9278755  43.8648796  43.7772608  49.8433447  43.5997629  44.7856379
  50.5597401  42.8744984  45.7820129  49.9653530  42.4743128  46.5900707
  51.8901491  42.8651667  45.7526255  52.4903679  42.3210621  46.4668369
  52.5838947  43.3917856  44.6703959  53.6605597  43.3471394  44.5981836
  51.8999338  44.1509676  43.6587524  52.4645662  44.6390915  42.8781557
  50.5158901  44.2430210  43.6896181  49.9418926  44.8803234  43.0332756
  46.3042259  45.2272224  45.2303743  45.4075670  44.7428560  46.0073566
  45.9843588  45.9710503  44.1281319  46.7789984  46.2344170  43.5630751
  44.6478653  46.3551998  43.7366533  43.8764524  45.6862450  44.1181278
  44.4616175  47.8524828  44.2003155  44.6256542  47.8234529  45.2775097
  45.0916529  48.4973240  43.5876703  42.9905510  48.2753944  43.9990425
  42.6921749  48.0038786  42.9864454  41.9967890  47.5179911  44.9123383
  42.4141216  47.5534534  45.9186602  41.0394144  48.0367279  44.9618006
  41.8530416  46.5203619  44.4974041  42.7692509  49.7297382  44.0776491
  41.9065142  49.9059010  43.4351921  42.6358986  49.9573421  45.1352501
  43.6369753  50.1338768  43.5562754  44.5063353  46.2700748  42.2213268
  45.2727795  46.9057131  41.5149689  43.4611559  45.5822849  41.7216587
  42.9242468  45.0772810  42.4121666  43.3232069  45.1361752  40.3519821
  43.8171673  45.7991219  39.6416306  43.8838148  43.7031317  40.2042007
  43.7922573  43.4601450  39.1455817  45.3954172  43.7180805  40.4251146
  45.5284309  43.8265038  41.5015221  45.8452272  42.8222513  39.9970150
  45.9500933  44.5154524  39.9305129  43.1252909  42.5944042  40.9914303
  43.5352612  42.5954771  42.0013952  42.0440292  42.7306986  40.9714746
  43.2630539  41.2345839  40.3444624  43.2339048  41.2278843  39.2548728
  44.2851877  40.9234762  40.5602407  42.4879932  40.5635500  40.7147264
  41.8034315  45.0949335  39.9696136  40.9989214  45.6247377  40.7110500
  41.4522171  44.4051027  38.9062572  42.1670389  44.0177155  38.3070397
  40.0791168  44.1890907  38.4087944  40.2143431  43.7302256  37.4293780
  39.3483257  43.1179190  39.1351914  40.0659800  42.3618841  39.4537663
  38.9352202  43.6423683  39.9968171  38.0941534  42.4577045  38.4933829
  37.8230453  42.6090670  37.2967410  37.3764205  41.7754030  39.2443347
  39.3643665  45.4677773  38.1098986  38.1755209  45.6749725  38.3845806
  40.0177097  46.3288927  37.3522663  40.9122181  46.1089897  36.9380212
  39.4663072  47.6332664  36.8321776  38.7858319  47.9686737  37.6148367
  40.7287502  48.5205841  36.6629529  41.5162182  47.8425837  36.3338399
  40.6344080  49.2888355  35.8954978  41.2371778  49.0421009  37.9054046
  41.1737728  50.4198074  38.2229114  40.6066036  51.1105680  37.6166344
  41.6934443  50.9475756  39.3496513  41.4127541  51.9697762  39.5563483
  42.4444818  50.1328611  40.1975203  42.8593588  50.5572128  41.0998535
  42.6350689  48.8287401  39.8513460  43.2426071  48.2018566  40.4872131
  42.0240641  48.3093834  38.7705421  42.3409700  47.3056602  38.5286403
  38.5781670  47.4926138  35.5911183  38.8012457  48.1173182  34.5406246
  37.6615214  46.4966106  35.5734730  37.4451232  46.0812998  36.4683414
  36.7893338  46.1348057  34.4387102  37.4270558  46.0294580  33.5610342
  36.3170147  45.1716566  34.6319962  35.7217646  47.1422100  34.0018082
  35.1916671  47.0672226  32.8532982  35.2999091  47.9265451  34.9746704
  35.7214546  47.6676321  35.8552194  34.3313432  49.0819454  34.8827004
  34.1097045  49.1373777  33.8169122  33.0220199  48.7584496  35.6299567
  33.4380555  48.7058973  36.6360664  32.3494744  49.6119833  35.5447173
  32.3181653  47.5421667  35.0459170  33.0543637  46.7513084  34.9021697
  31.3267374  47.0722723  36.0743642  30.7074451  46.2783670  35.6568885
  31.7161345  46.6909170  37.0183110  30.6417251  47.8860283  36.3123894
  31.6161561  47.8975201  33.7518668  31.6025639  46.9202471  33.2693148
  30.6031942  48.2422161  33.9596939  32.1609020  48.6039305  33.1254911
  34.9264193  50.5320406  35.2456117  34.1812444  51.3611984  35.6890178
  36.2544084  50.6533670  35.1352549  36.7655611  49.9843788  34.5773315
  36.9837999  51.8307066  35.5635738  36.4531898  52.1473742  36.4615059
  38.3940458  51.3210440  35.9063745  38.1710243  50.6593657  36.7433596
  38.8524342  50.8105230  35.0594068  38.9812946  52.1458101  36.3101053
  36.9675756  52.9326773  34.4586420  36.8314052  52.7039242  33.2181263
  37.1776533  54.1950083  34.9028349  37.4474835  54.2837763  35.8720684
  36.9301319  55.4596233  34.2439461  37.0099497  55.4194736  33.1576085
  35.5283666  55.9666777  34.6986961  35.2933621  55.6828737  35.7245255
  35.4188395  57.0495176  34.6389818  34.3332028  55.4506493  33.9129543
  34.2515230  54.3769073  34.0817666  33.4733033  55.8785772  34.4282699
  34.3886852  55.8084679  32.3679662  34.4259930  56.8931198  32.2667813
  35.1921654  55.2793264  31.8555903  33.1061125  55.3242970  31.6263127
  33.2577896  54.2662764  31.4125657  32.1970129  55.2898502  32.2266912
  32.9238439  55.9783888  30.3109741  32.5758028  56.9252682  30.3599024
  33.7973785  55.9774637  29.8039865  32.2164035  55.4941988  29.7769451
  38.0154371  56.4265394  34.7887063  38.6217737  56.2155867  35.7928634
  38.1368589  57.5922203  34.1235328  37.4318528  57.7532434  33.4184504
  39.0460348  58.6985254  34.4409776  39.6026587  58.3722401  35.3195024
  40.0496149  58.8761425  33.2738853  40.2301502  57.9334259  32.7573609
  39.6925807  59.6178007  32.5593472  41.3418007  59.4198275  33.7921715
  41.1660957  60.3656340  34.3046975  41.6641951  58.6883736  34.5332146
  42.4311113  59.6413279  32.7416039  43.3631182  59.7458124  33.2970738
  42.5021029  58.6996508  32.1972632  42.2951269  60.7468462  31.7376566
  43.1943464  60.7577229  31.1217093  41.4071512  60.4442501  31.1826468
  41.9049644  62.0790291  32.2122359  42.6103020  62.4046087  32.8576851
  41.6250372  62.7037430  31.4696217  41.0645199  62.0858765  32.7723289
  38.1509256  59.8690224  34.7518468  37.4718809  60.3205633  33.8220572
  38.1056070  60.3508377  35.9892440  38.8844562  60.1370382  36.5956974
  37.0924830  61.3347006  36.3802695  36.1681342  61.1611509  35.8293080
  36.6792774  61.2058592  37.8115916  35.8098555  61.8591404  37.8852630
  36.4644504  60.1703215  38.0754256  37.6800132  61.6827154  38.8448620
  37.6809502  62.9679441  39.3738055  36.9438982  63.6864662  39.0468812
  38.6678696  63.3954906  40.3552151  38.6183357  64.3793821  40.7978296
  39.6600962  62.4973631  40.7505369  40.6187391  62.8232288  41.6214037
  41.1287498  62.0297289  41.7998695  39.6214032  61.1801672  40.3264523
  40.2929401  60.4201698  40.6977272  38.7016535  60.7821894  39.3291593
  38.7215185  59.7752666  38.9391470  37.3574853  62.8165722  36.0649371
  36.4805055  63.6388159  36.2680411  38.5395670  63.1908131  35.5586123
  39.2562604  62.4795151  35.5811310  38.9441204  64.5331669  35.2463007
  38.0962324  64.9976254  34.7428393  39.3563414  65.3240108  36.4892554
  39.4171381  66.3771296  36.2147570  38.5236788  65.1248121  37.1638608
  40.5593491  64.9102783  37.2376561  40.4209995  63.8891315  37.5929356
  41.3730621  65.0856972  36.5339518  40.5985880  65.8045864  38.4954429
  40.4538870  66.8233061  38.1357527  39.6569276  65.5682230  38.9909387
  41.6588259  65.5572176  39.4011283  42.3826122  64.9752283  39.0042353
  41.8098211  66.0148096  40.6009531  40.9446716  66.6902637  41.2366486
  40.1339912  67.0811510  40.7782841  41.1021852  66.8392706  42.2231007
  42.8197813  65.6324911  41.2485790  43.4345865  64.9607134  40.8117294
  42.9672241  65.9470606  42.1969509  40.0451183  64.6066141  34.2505336
  40.9643364  63.8184214  34.3478107  39.9764109  65.5372190  33.3185577
  39.1905141  66.1707258  33.3523774  41.1071444  65.9590769  32.4693727
  41.3986683  65.0737953  31.9042253  40.5618572  67.0424795  31.4886117
  39.6092343  66.7298269  31.0609913  40.2419090  67.9288721  32.0363688
  41.4550018  67.4570513  30.3201795  41.1210823  68.3781147  29.5444393
  42.4788761  66.7888880  30.0991917  42.3830557  66.3827038  33.3043504
  42.3359442  67.2397375  34.1763425  43.4922361  65.7324791  32.9627109
  43.4457302  65.0259113  32.2425008  44.8323298  65.8217764  33.5708094
  44.7047329  65.7496643  34.6509099  45.7132053  64.6454334  33.0661011
  45.6660795  64.3537807  32.0169020  46.7451286  64.9293566  33.2725477
  45.4372501  63.2755423  33.7523532  44.4178247  62.6359129  33.7877250
  46.4897823  62.6359940  34.1857076  46.4478302  61.6550827  34.4226646
  47.3542404  62.9900312  33.8016939  45.4954147  67.1803951  33.2339287
  46.4404535  67.6441717  33.8859248  45.0173140  67.8025866  32.1940947
  44.4169855  67.3259115  31.5364575  45.3316689  69.2499971  31.8629909
  46.4188099  69.3262911  31.8830276  44.8134136  69.6446896  30.5216575
  43.7276888  69.5664358  30.4653597  45.1636553  70.6668806  30.3782535
  45.3457165  68.7366486  29.4794607  46.4341831  68.7480402  29.5360899
  44.9771214  67.7499008  29.7597623  44.7349501  69.1388512  28.0623603
  44.8606777  70.1813269  27.7698946  45.3725386  68.6641407  27.3165536
  43.3441257  68.6188602  27.8195333  42.7480459  68.4925747  28.6250424
  42.7137804  68.4376001  26.6436863  43.3412266  68.4090042  25.5592918
  44.3511248  68.4158325  25.5463982  42.8647518  68.1505537  24.7070742
  41.4041233  68.2523203  26.6985369  41.0057545  68.2148743  27.6258993
  40.8366776  68.0213928  25.8955526  44.7988939  70.3150988  32.8518009
  45.3990412  71.3771915  32.9996920  43.6111307  70.1996136  33.4614468
  43.0358028  69.3847036  33.3032775  42.9727411  71.3758659  34.1667199
  43.7119675  72.1172714  34.4699812  41.9202566  72.0377302  33.2812881
  41.2315226  72.6590300  33.8537669  42.5652361  72.9281378  32.1746182
  41.8099737  73.6440182  31.8502736  43.4485006  73.5004234  32.4582171
  42.8124714  72.3217106  31.3032818  41.1026859  71.0446453  32.6643419
  40.4175758  71.6264963  32.3271775  42.1830893  70.9588957  35.4017234
  41.5985441  71.7760229  36.1341667  42.2349405  69.6658659  35.7600546
  42.9797506  69.1387701  35.3270054  41.3272476  69.0113878  36.7791867
  41.4814091  67.9418707  36.6361094  41.7235422  69.4765425  38.1915855
  41.4411592  70.5151796  38.3635926  41.2770462  68.8507271  38.9643121
  43.2359266  69.3654156  38.3466411  43.6189556  68.3851147  38.0630970
  43.6978531  70.1557255  37.7549195  43.6179924  69.5978165  39.8666191
  43.1422567  68.8548422  40.5067492  44.6865129  69.4678831  40.0383377
  43.3664846  70.9665537  40.3901958  42.8995752  71.6263628  39.7845960
  43.7107134  71.3560581  41.5778255  44.1706610  70.5707884  42.4779415
  44.1773844  69.5704699  42.3385859  44.0975952  70.8380270  43.4492016
  43.5328865  72.5233459  42.0596457  43.5664368  73.2849121  41.3970757
  43.7283421  72.6843309  43.0373859  39.8544312  69.0860128  36.4950299
  39.0322328  69.2824602  37.4022412  39.4575787  69.0765762  35.2058887
  40.1726627  68.8397217  34.5330882  38.1033015  69.3151331  34.8691702
  37.6388764  69.9668932  35.6091809  38.0303240  69.9046612  33.4140539
  38.7821960  70.6924820  33.3679581  38.2953691  69.1520071  32.6715136
  36.5740180  70.4321909  33.0176163  35.8704472  69.6010685  33.0658460
  36.3733959  71.2116814  33.7526298  36.5384388  71.1734295  31.7003393
  37.5909925  71.3935137  31.0761642  35.4018068  71.7834187  31.3304830
  35.5541658  72.1807289  30.4144955  34.5256567  71.6431189  31.8129444
  37.2587538  68.0135632  34.9479032  37.5721836  67.1377945  34.1909194
  36.3832736  67.9904318  35.9316707  36.4405346  68.7378120  36.6086078
  35.5685377  66.8910122  36.3590622  36.2718725  66.0659981  36.4721107
  34.9467254  67.3622847  37.6772499  35.6779933  67.7591896  38.3813906
  34.2223120  68.1485987  37.4650407  34.2412829  66.2099886  38.4955144
  34.9533391  65.2957726  39.2304730  34.0124655  64.4320488  39.6825337
  34.1564369  63.5480738  40.2860737  32.8041601  64.8188591  39.2183495
  31.9364715  64.3129969  39.3247271  32.9481435  65.9204960  38.4578872
  32.1415710  66.5330172  38.0828309  34.5549488  66.3241863  35.3724599
  34.1423345  67.1010876  34.4734883  34.2240548  65.0323296  35.4560709
  34.6796203  64.4925833  36.1780405  33.1957030  64.4229317  34.5446968
  33.4686255  64.5606089  33.4984374  33.0901027  62.8291607  34.7607017
  32.1394658  62.4777460  34.3595767  34.1971731  62.2031593  33.8737249
  34.1276860  62.5424910  32.8402233  35.1589370  62.4293041  34.3341255
  34.0245104  61.1320496  33.7687731  33.1798601  62.4994659  36.2494087
  34.2096710  62.6701307  36.5632105  32.4763823  63.1673384  36.7465711
  32.8168988  61.0587645  36.6257286  33.2409883  60.2930880  35.9761190
  33.0433345  61.0323143  37.6916265  31.7875648  60.8671761  36.3226366
  31.8227839  65.0476885  34.7141075  31.4503026  65.3537798  35.8085465
  30.9700155  65.0913477  33.6581516  31.1903119  64.6607399  32.3131752
  30.9522724  63.6088514  32.1551418  32.2028184  64.8832989  31.9764256
  30.2497554  65.4735613  31.4463472  29.8925853  64.8791504  30.6053901
  30.7424092  66.4028168  31.1602044  29.0454483  65.7330227  32.3359418
  28.2623434  65.0102091  32.1070552  28.6235905  66.7299366  32.2082543
  29.5797634  65.5742359  33.7920451  29.5701027  66.5611649  34.2546344
  28.5925746  64.6944857  34.5428228  28.6905694  63.5168934  34.3577814
  27.7517962  65.2954149  35.3337121  27.8872180  66.2736082  35.5456042
  26.6625023  64.5709705  35.9817386  26.9643784  63.7719965  36.6589451
  25.9349108  65.5507374  36.9528627  26.6681409  65.8326387  37.7085114
  25.5602860  66.4469814  36.4583945  24.7349358  64.9948359  37.6738787
  24.8337746  64.5154190  38.9965940  25.8041120  64.6301317  39.4566894
  23.7214565  64.0062284  39.6397305  23.7853360  63.7048769  40.6748676
  22.4856377  63.9148378  38.9641380  21.5014076  63.4740257  39.7372389
  20.7048011  63.2353592  39.2575955  22.3058510  64.4091940  37.6183438
  21.3312149  64.3582392  37.1558595  23.4562135  64.9505997  37.0136046
  23.4239721  65.4097271  36.0365844  25.7128501  63.8667679  34.9670076
  25.1666522  64.4237947  33.9819908  25.3708029  62.6169395  35.2914548
  25.7837057  62.1159792  36.0651851  24.3205857  61.8652630  34.6025109
  23.6595058  62.5440168  34.0636587  24.8343134  60.8703518  33.5614610
  25.4292154  60.1270533  34.0922141  23.9561868  60.3351116  33.2001996
  25.5293560  61.4023399  32.2492051  24.8464084  62.0089817  31.6545010
  26.4702749  61.9302130  32.4045157  25.7831168  60.1423025  31.3734770
  24.8205256  59.6838999  31.1467910  26.2053776  60.4683876  30.4229712
  26.7511010  59.1995907  32.0569992  27.1936917  59.5908976  32.8762031
  27.3574376  58.1851768  31.4144230  27.0572662  57.7133703  30.2343178
  26.2730694  58.0331516  29.6839786  27.7800918  57.1502686  29.8094153
  28.2664418  57.5783014  32.1211529  28.6105633  57.9915142  32.9761004
  28.7375998  56.7856312  31.7091036  23.4406424  61.1085606  35.6627226
  23.9006948  60.7767296  36.7489457  22.1578622  60.9104252  35.3560519
  21.8595695  61.2915611  34.4695663  21.2281060  60.0118256  36.0986781
  21.8169713  59.3788385  36.7625046  20.3970695  60.8796644  37.1124339
  20.0209880  60.2596045  37.9261851  21.0893154  61.5255070  37.6526070
  19.3075001  61.6654491  36.4361095  19.6887946  62.1315098  35.5275369
  18.5298419  61.0326767  36.0083890  18.6990595  62.8382635  37.2906017
  17.7012062  63.4152460  36.7869878  19.2194414  63.0757904  38.4054351
  20.2991056  59.0301847  35.3754663  20.0921917  59.2173672  34.2020607
  19.9145293  57.9316330  36.0059762  20.2616286  57.7893686  36.9437289
  19.1532505  56.8918848  35.3573823  18.9059937  56.2203217  36.1795545
  17.7874231  57.3945665  34.7888732  17.4605429  58.1521034  35.5011821
  17.9326129  57.8544474  33.8113594  16.7045343  56.2774754  34.7174120
  16.8680286  55.2358913  35.3281832  15.5857992  56.4564085  34.1019225
  19.9257946  56.1139631  34.3570304  19.4049823  55.5659533  33.4432793
  21.2916088  56.0590887  34.4972086  21.6429496  56.6698980  35.2207923
  22.1468210  55.0049591  34.0305686  22.1471405  54.9429607  32.9423285
  23.5453033  55.2807665  34.6210933  23.4731007  55.1641941  35.7024336
  24.1636801  54.5172882  34.1490626  24.2673135  56.5956020  34.2350626
  24.1036081  56.6209030  33.1577229  23.8412738  57.4376392  34.7805595
  25.7830739  56.4754820  34.5846629  26.2763405  55.7367134  33.9529943
  26.2614489  57.4490643  34.4778872  26.0181856  56.0513926  36.0175109
  25.8525515  56.9363928  36.6318750  25.2117395  55.4047251  36.3633013
  27.3646498  55.5359840  36.2471795  28.0101776  56.2030840  35.8492136
  27.4919581  55.3566742  37.2329473  27.5016093  54.6733618  35.7400084
  21.6395283  53.6400127  34.4601870  21.0686111  53.4825277  35.5478120
  21.9805527  52.5601673  33.6907220  22.4858594  52.6097918  32.8176212
  22.1076465  51.1914968  34.2676950  21.1323214  50.8606768  34.6246243
  22.6892114  50.2227306  33.1984138  23.7007284  50.5907345  33.0266404
  22.7681684  49.2190742  33.6161923  21.8088055  50.2426863  31.9805217
  22.2181773  50.7826519  30.9486890  20.5875659  49.7635174  31.9780803
  20.1451063  49.7195387  31.0712194  20.3161454  49.1411543  32.7258062
  22.9258132  51.1880302  35.5386639  23.9271736  51.9401550  35.6361794
  22.6373672  50.2783871  36.4303279  21.8472934  49.6511602  36.3805842
  23.4587216  49.9773788  37.6101398  23.3456731  50.8027840  38.3130145
  22.9096127  48.6443710  38.1942654  21.8566680  48.8565588  38.3796954
  22.9833245  47.9384756  37.3669910  23.5642505  48.0923033  39.4466162
  22.8369379  47.3698187  39.8169255  24.9127650  47.3039770  39.2614388
  24.9422121  46.7560768  38.3196092  25.8326483  47.8886127  39.2506337
  24.9132776  46.5048075  40.0026655  23.7226582  49.1821527  40.4657698
  24.2531943  48.7919903  41.3343334  24.3692374  49.9823236  40.1055527
  22.7695680  49.5270491  40.8667231  24.9504757  49.9329376  37.2487307
  25.3686404  49.3311262  36.2699485  25.7610440  50.5824280  38.0963540
  25.4358196  50.7556820  39.0367341  27.2026014  50.6292534  37.8545237
  27.3987174  50.1878452  36.8773842  27.7200484  52.0569658  37.9441547
  27.3957753  52.4795198  38.8951492  29.2436886  52.2492504  37.8472686
  29.5833015  51.9120502  36.8679523  29.5731044  53.2773685  37.9974818
  29.7969413  51.5799236  38.5060668  27.2155428  52.7530575  36.8198705
  26.3263750  52.3914909  36.8041468  27.8633308  49.7204065  38.9468765
  27.5158715  49.8192358  40.0729847  28.8669086  48.9654255  38.5705757
  28.9306617  48.7209511  37.5926805  29.6444058  48.1402969  39.4685531
  30.5392385  47.9060888  38.8919044  29.8549032  48.7027597  40.3781843
  29.0258169  46.8723297  40.1684284  27.9483080  46.4107990  39.7090006
  29.6966171  46.3263035  41.1321020  30.6548810  46.6359377  41.2092972
  29.2182565  45.2553368  41.9670153  28.7465310  44.4738865  41.3712692
  30.3605723  44.5078754  42.6563787  31.0587573  45.2693844  43.0038643
  29.9292326  43.4526396  43.7498760  29.2423511  43.7888384  44.5265818
  29.3762660  42.6590633  43.2473135  30.7557154  42.8900719  44.1840887
  31.0084677  43.7537336  41.7034864  31.4712524  44.3812513  41.1434412
  28.1272316  45.8525705  42.8800535  28.3959937  46.6363573  43.7615252
  26.9380951  45.3335619  42.6953459  26.8395281  44.5931768  42.0154810
  25.7020664  45.7218027  43.2732677  25.5479717  46.7422056  42.9223776
  24.5156169  44.8215055  42.7992725  23.6397314  44.9213314  43.4403276
  24.2757392  45.1810455  41.7986250  24.8684669  43.7903738  42.8183603
  25.6834292  45.7743883  44.7688770  25.4042125  46.8615770  45.3137970
  26.0559177  44.6845436  45.4035425  26.2785292  43.8581181  44.8672915
  26.0518169  44.5093870  46.9122791  25.0752378  44.7504854  47.3321295
  26.3757730  43.1132078  47.3735523  26.0658860  42.9509211  48.4058952
  25.7885218  42.4545383  46.7337179  27.7775884  42.6979017  47.1053267
  27.9190922  42.7942848  46.0288525  28.5915256  43.2832575  47.5330687
  27.8993702  41.2158728  47.4033499  27.6996565  41.0994959  48.4685612
  27.1466970  40.6827211  46.8225479  29.2104888  40.6387663  47.0493174
  29.7824764  40.2014828  47.7576351  29.6226263  40.2955389  45.8466816
  28.8793874  40.4177999  44.7542286  27.9368997  40.7750845  44.6896744
  29.2769289  40.1022720  43.8810158  30.8196092  39.8811150  45.6745768
  31.3944411  39.6940899  46.4837074  31.1016893  39.4354725  44.8132181
  26.9746399  45.5158854  47.5800943  26.6309953  45.9942722  48.7043571
  28.1428719  45.8797407  46.9924736  28.3334875  45.4089451  46.1194801
  29.0675998  46.8714714  47.4814749  28.9804196  46.8589973  48.5679150
  30.4752588  46.5140152  47.1056509  30.5939627  46.3560867  46.0337067
  31.2000418  47.3043060  47.3012114  30.9120965  45.2747440  47.8581667
  30.9270954  45.2452564  49.3069649  30.9050894  46.1888123  49.8319530
  31.3827610  44.0962553  50.0128031  31.6162133  44.1527128  51.0657597
  31.7871785  42.9969788  49.2815638  32.2045946  41.8484497  49.8788691
  31.9186664  41.0631084  49.4065523  31.5529847  42.9583549  47.9321766
  31.8844867  42.0268917  47.4975586  31.1070871  44.0633011  47.1950150
  30.9073400  44.0090656  46.1350346  28.7564826  48.2688046  47.1186495
  28.9118743  49.1308498  47.9803467  28.3490014  48.5200500  45.8873796
  28.2270765  47.6879644  45.3280306  28.1945395  49.8886776  45.4494238
  29.1442800  50.4195023  45.3837061  27.7175808  49.8325109  43.9658737
  26.6727138  49.6004868  43.7596512  27.8463221  50.8797836  43.6924744
  28.2978058  49.1066980  43.3961010  27.1630597  50.6825161  46.2697983
  26.0683346  50.2467585  46.4912748  27.5479984  51.9270468  46.5091038
  28.5161757  52.0585632  46.2532949  26.7302442  53.0653620  46.9771576
  26.7873120  53.0910969  48.0653572  27.4291086  54.4128227  46.5201139
  28.4621859  54.5701933  46.8300915  27.3327303  54.4280434  45.4344940
  26.6137934  55.4112053  47.1185064  27.1598649  55.8363914  47.7838087
  25.2918863  53.0797434  46.3623047  25.1249075  52.7074099  45.2084875
  24.3455505  53.3893633  47.2548151  24.5355463  53.6367416  48.2154465
  22.9341984  53.5939503  46.8981361  22.4617743  52.6235151  46.7459154
  22.0848870  54.2312574  48.0656052  22.3420358  53.7402678  49.0041685
  22.3940873  55.6927967  48.2582140  22.0006490  56.0998726  49.1896582
  23.4614444  55.8697891  48.3905935  21.9834733  56.3313103  47.4760437
  20.5703092  54.0784645  47.7999496  20.3527045  54.5963621  46.8658590
  20.3093433  53.0360651  47.6171923  19.5521867  54.4856262  48.8130474
  19.7058988  53.8010454  49.6472073  19.7151482  55.4702711  49.2512512
  18.5462570  54.3764305  48.4077263  22.7570057  54.3344021  45.5582905
  21.7732692  54.1370344  44.8488474  23.6824179  55.2647734  45.2347136
  24.4574881  55.4506540  45.8550549  23.7096763  56.0929918  43.9456367
  22.8137922  56.7135286  43.9662647  24.9763870  57.0149851  43.9633465
  25.8459234  56.3904428  44.1681671  25.0207114  57.4824190  42.9796600
  24.8702192  58.1158209  44.9445343  23.7272692  58.5546207  45.2959299
  25.9524727  58.7436485  45.2970076  25.8955717  59.3675280  46.0892439
  26.8443704  58.3488703  45.0347710  23.6628866  55.2635527  42.6760674
  22.9590249  55.5930948  41.7528391  24.4567227  54.1726542  42.6445150
  24.8905492  53.9303637  43.5238266  24.4630718  53.2233000  41.5179396
  24.7426128  53.7587452  40.6106043  25.5548215  52.1862221  41.8944311
  25.4404235  51.6406584  42.8311062  25.6385636  51.5078020  41.0454130
  26.5030980  52.7135706  41.9982290  23.0531764  52.5840902  41.2182140
  22.6081419  52.5003862  40.0603247  22.2263026  52.2131252  42.2706175
  22.6303911  52.3592663  43.1846523  20.8674836  51.6569614  42.3082304
  20.7193089  50.9330034  41.5069580  20.4854608  51.1029863  43.7155914
  20.5267811  51.8579912  44.5006752  19.4750905  50.6967402  43.6685133
  21.4266610  49.9833536  44.0509653  21.1714864  48.6570692  43.7770653
  22.3527026  48.0102444  44.0799332  22.5782228  46.9661379  43.9205980
  23.1920338  48.8170195  44.7624588  24.1736269  48.6208296  44.8969603
  22.6226735  50.1000547  44.7590256  23.1613541  51.0114193  44.9726772
  19.8515654  52.7340794  41.8665314  18.8890505  52.3845196  41.2269115
  20.2614355  53.9840269  42.0725393  21.0082603  54.1263580  42.7374411
  19.6542895  55.2283573  41.5930891  18.5680711  55.1376343  41.5926695
  19.9465609  56.2938261  42.6755333  21.0282350  56.2663984  42.8071785
  19.7681034  57.2974825  42.2896147  19.1571271  56.0866928  44.0097713
  19.2717147  55.0677919  44.3796539  19.7005904  56.9890547  45.1570797
  19.3594563  58.0179167  45.0423336  19.1388381  56.6060305  46.0090303
  20.7814884  56.8562460  45.2031898  17.6637018  56.3628006  43.7680912
  17.1706986  56.5606308  44.7198820  17.6326084  57.2304392  43.1090498
  17.1650338  55.4976845  43.3310461  20.0858498  55.7647657  40.2220297
  19.6809924  56.8489790  39.8044586  20.9353137  54.9835920  39.5104957
  21.2839389  54.1308308  39.9244618  21.5578747  55.3523302  38.2528996
  22.2596025  54.6104383  37.8717518  20.8487725  55.4537630  37.4313259
  22.3408747  56.6639471  38.2129216  22.4550939  57.2626925  37.1509457
  22.7030492  57.2124147  39.3599820  22.5183296  56.6828966  40.1999760
  23.4057355  58.4973669  39.5443130  22.9570842  59.1836834  38.8261342
  23.1622601  59.1408110  40.9253883  23.3598399  58.3680391  41.6682863
  24.0375304  60.3795147  41.0726976  23.8046503  61.0680056  40.2603865
  23.8403201  60.7794714  42.0673132  25.0869036  60.0900793  41.1287498
  21.7042899  59.6305752  41.0123062  21.5815401  60.5066967  40.3755617
  21.0382128  58.9342594  40.5028105  21.0296178  60.0672483  42.3193693
  21.6882372  60.8435631  42.7087975  20.0425482  60.5062675  42.1742249
  21.0258555  59.2265892  43.0131912  24.9442315  58.3825016  39.1758084
  25.5220175  57.3888969  39.5370126  25.4906225  59.2961359  38.4506845
  24.9149156  60.0996256  38.2431626  26.8815422  59.2411280  38.0236745
  26.9467044  58.3226585  37.4403477  27.1349859  60.4577780  37.0832729
  26.4641237  60.4062939  36.2257195  26.9076109  61.3883924  37.6032281
  28.5856867  60.4078579  36.4661360  28.6420608  61.2601948  35.7890534
  29.3354917  60.4988194  37.2520208  28.7433648  59.0735960  35.6561255
  28.5343051  59.1118574  34.3979144  28.9106774  57.9346561  36.1486602
  27.8734517  59.0717125  39.2703295  27.8111029  59.6755123  40.3360891
  28.7738585  58.0848026  39.0424347  28.8420868  57.8051090  38.0743361
  29.7759938  57.6037550  39.9748564  29.2424250  57.6568222  40.9238482
  30.2818274  56.1621380  39.8391199  30.2891850  55.8331108  38.7999916
  31.2733221  56.0702324  40.2825117  29.4430280  55.1516676  40.6044292
  29.7915363  54.1353655  40.4206276  29.5271730  55.3931093  41.6640186
  27.9438829  55.3706980  40.2069378  27.5319576  55.2076244  39.0337682
  27.1423006  55.6654882  41.2269545  26.2457800  56.0581827  40.9776735
  27.4844527  55.8416796  42.1607590  30.9984016  58.4363222  40.0238419
  31.3789439  59.0248823  39.0368247  31.6559172  58.6069441  41.2024260
  31.2710404  58.1856728  42.0357943  32.7533531  59.5157671  41.4688826
  33.5085988  59.3347073  40.7040834  32.1622109  60.9730959  41.5304613
  31.6275811  61.1730766  40.6018734  31.4672971  60.9772158  42.3702145
  33.1621671  61.8972826  41.8038082  32.6989031  62.6945353  42.0709705
  33.4854460  59.0049982  42.7156210  33.0599403  58.0341434  43.3212137
  34.5878983  59.6298313  43.1454611  34.7281146  60.5067539  42.6643705
  35.4018807  59.2777348  44.3370104  35.9664965  58.3794117  44.0873623
  36.3768554  60.4008818  44.6643877  35.8583546  61.3337994  44.8855686
  36.8361950  60.1419687  45.6183624  37.4585986  60.5160713  43.5441160
  38.0085945  59.5929813  43.3610582  37.0431566  60.8945990  42.6101875
  38.4932780  61.5535879  44.0508080  38.9363360  61.3784027  45.0311708
  39.3561745  61.3822508  43.4072542  38.0637503  62.9852772  43.8264132
  37.0711756  63.1617451  43.7651300  38.7993145  64.0844917  43.8168240
  40.0376701  64.1084719  44.0564632  40.5274916  63.2259703  44.0933752
  40.5346823  64.9666214  43.8650036  38.2483673  65.1773834  43.4948635
  37.2442770  65.2305317  43.3995676  38.7763548  66.0314798  43.6037111
  34.6248960  59.0227175  45.6027651  35.0836015  58.1673527  46.4156675
  33.5948253  59.8709059  45.8041143  33.6738658  60.7897854  45.3923941
  32.5939035  59.7070694  46.8536377  32.9932904  59.8380518  47.8593445
  31.5184999  60.7353926  46.8509912  30.9188652  60.3210640  47.6614666
  31.8172550  61.7592335  47.0759106  30.7106066  60.7371569  45.5178833
  30.8636856  61.6990376  45.0285530  31.1001158  60.0113297  44.8040485
  29.1944766  60.5074549  45.7309198  29.0960622  59.5158815  46.1727381
  28.7594438  61.3105345  46.3258219  28.4807444  60.4286289  44.4257736
  28.9833593  59.8263931  43.7895346  27.4948883  61.1662483  43.9682007
  26.9758058  62.0001745  44.7688627  26.8146968  61.6912413  45.7168627
  26.2311220  62.5591898  44.3776464  27.0369625  61.0434103  42.7428246
  27.4580455  60.4542446  42.0387888  26.1725593  61.5402555  42.5813961
  32.0963883  58.2870865  46.8620586  32.2937918  57.6007986  47.8380013
  31.5136433  57.7422285  45.8053875  31.6441631  58.2065010  44.9179649
  31.0900664  56.3723326  45.6917667  30.4344463  56.2983799  46.5594053
  30.3593969  56.0569096  44.3909645  31.0774899  55.9291506  43.5809517
  29.8694181  55.1080942  44.6095228  29.4358897  57.1516180  43.8484049
  28.2717633  56.8192196  43.5711288  29.9920511  58.2521534  43.5383892
  32.0930696  55.3098774  45.9437227  31.8721342  54.3751764  46.6927052
  33.2632852  55.3698969  45.2596760  33.4632659  56.1364555  44.6331835
  34.3841267  54.5183229  45.4585600  34.3096018  53.4889507  45.1079369
  35.6192541  55.1019669  44.7301054  35.5461383  56.1696959  44.5234537
  36.4365578  54.9419975  45.4333305  36.0269666  54.4521809  43.4055185
  35.2817965  53.6452293  42.8687382  37.1457624  54.8152971  42.9419804
  34.8186970  54.4078302  46.9902039  34.9560714  53.3317327  47.5255585
  34.9869370  55.5657864  47.6788282  34.8230219  56.4390516  47.1985817
  35.3289533  55.7014608  49.0689516  36.2124038  55.0959253  49.2712879
  35.6557536  57.1003675  49.4687939  36.2224984  57.5533199  48.6553240
  34.7598624  57.7118921  49.5761395  36.5273261  57.3698139  50.7275534
  36.4539146  58.3561754  51.1856031  36.2642622  56.6435242  51.4965773
  38.2918000  57.3883724  50.0991726  38.8542938  55.6873751  50.3538847
  38.3763337  54.8928499  49.7808409  39.9289346  55.6583881  50.1738501
  38.7603021  55.4662657  51.4170790  34.3153334  55.1233435  50.0004196
  34.6526480  54.4782925  50.9965086  33.0411625  55.4347277  49.7045946
  32.8897023  56.0528851  48.9203453  31.8152928  55.0029707  50.4136372
  31.8529415  55.3181934  51.4563847  30.5163503  55.6535006  49.8637056
  30.6740117  56.7239237  49.7316408  30.2620292  55.2596951  48.8796616
  29.2819262  55.4825974  50.7944489  29.2288065  54.4346285  51.0894823
  29.4637084  56.0903549  51.6808367  28.0312777  55.8486843  50.1451588
  28.0346370  56.5684938  49.1063499  26.9608116  55.4578114  50.6509686
  31.6343570  53.4758949  50.3214359  31.5957928  52.7787971  51.3233280
  31.6790318  52.9095411  49.1165161  31.8766093  53.4589243  48.2923603
  31.6101503  51.4777899  48.8314199  30.6798363  51.0421515  49.1958857
  31.6312885  51.1623049  47.3311234  32.6175070  51.3923073  46.9279194
  31.4627147  50.0856686  47.3080254  30.6060433  51.9917154  46.6391468
  31.0574484  52.8389168  46.6303587  32.7111626  50.6649351  49.4739151
  32.5195622  49.6086693  50.0052595  33.9326119  51.2290525  49.5718765
  34.0778255  52.1277952  49.1345263  35.0359869  50.5971098  50.2947998
  35.1790309  49.6159029  49.8421764  36.1740589  51.5095711  50.1956272
  36.4685917  51.7446661  49.1728449  36.0313749  52.4645662  50.7013178
  37.5009131  50.8341599  50.6681347  37.4671292  50.5517244  51.7203617
  38.0172849  49.6651077  49.8832035  37.3267388  48.8218403  49.8958397
  38.1862497  50.0124502  48.8639355  38.8928509  49.2180443  50.3539658
  38.6399031  51.9145918  50.6143856  39.1048360  51.9929934  49.6316385
  38.3768296  52.9354906  50.8912516  39.4394684  51.6684723  51.3131142
  34.6217871  50.4164219  51.7922592  34.7885823  49.3352365  52.3396397
  34.1234350  51.4470434  52.4871063  34.0959144  52.3427677  52.0212555
  33.5204411  51.3018417  53.7654209  34.2819333  51.2417507  54.5429945
  32.9609156  52.2268867  53.9044476  32.5371003  50.1303816  53.8870859
  32.5885081  49.2941999  54.8142242  31.7639685  49.9687958  52.8263044
  31.9228196  50.4738474  51.9661903  30.8581042  48.8267517  52.8506804
  30.4140615  48.6746883  53.8344479  29.7241116  49.0371847  51.8928814
  30.1568222  49.1380596  50.8975458  28.9934516  48.2283497  51.8882513
  28.8425350  50.2575779  52.0529795  28.3647799  50.6169891  53.3083010
  28.7451148  50.1444626  54.2018700  27.6236439  51.8139935  53.4771872
  27.2552419  52.1636915  54.4302845  27.2984457  52.6491213  52.4302816
  26.6213298  53.7863111  52.6644278  26.7721152  54.3683815  51.9160604
  27.7603316  52.2632313  51.1654806  27.5618076  52.9372454  50.3452969
  28.4642410  51.0235310  50.9824467  28.6841369  50.6728077  49.9849319
  31.6036940  47.4685431  52.6049089  31.1434388  46.4663935  53.1360579
  32.7457571  47.3913574  51.9689274  32.9193139  48.1331968  51.3058615
  33.6339426  46.1817074  51.9449377  33.0502701  45.2836370  51.7427206
  34.8411989  46.2558651  50.9510756  35.2998042  47.2327471  51.1043358
  35.8910561  45.0998926  51.0756826  36.3300371  45.1183605  52.0732069
  35.4863334  44.1418362  50.7494450  36.6901445  45.4191160  50.4066133
  34.3895221  46.2042665  49.4396877  34.0363121  45.1870203  49.2707157
  33.5486221  46.8665457  49.2338324  35.2250004  46.3727808  48.7602186
  34.1598129  45.8012676  53.3836412  34.2953396  44.6338987  53.8262081
  34.3671799  46.8291140  54.1888618  34.3476152  47.7155924  53.7052441
  34.9109888  46.7545414  55.5843353  35.6636024  45.9660816  55.5815506
  35.5439401  48.0941868  55.9681606  34.7930813  48.8239002  55.6651258
  35.4756188  48.3602619  57.0229769  36.9152713  48.3636522  55.3545904
  37.0222378  47.8352451  54.4072533  37.1534181  49.8277664  55.2050304
  38.1671143  49.9812460  54.8349380  36.4051700  50.3055573  54.5726156
  37.1326232  50.1928329  56.2318659  37.9313564  47.7769709  56.2912655
  37.7612329  48.2205534  57.2722816  37.6717019  46.7222452  56.3819647
  38.9307356  47.8187370  55.8581305  33.8051963  46.4161634  56.5809536
  33.9072204  45.7236814  57.5858831  32.5931525  46.9102955  56.3413811
  32.5653362  47.6224852  55.6257582  31.4196730  46.4517069  57.0564604
  31.7470455  46.4902735  58.0954218  30.1518154  47.3347425  56.9274473
  29.9111390  47.4238539  55.8680916  29.3251395  46.8883991  57.4801493
  30.4061651  48.8397074  57.3180342  31.3052893  49.1789389  56.8036413
  29.5179009  49.4484234  57.1490622  30.8577967  49.0604496  59.0845871
  29.5468664  48.2946968  60.0424385  28.5614038  48.6719847  59.7692537
  29.5195985  47.2524548  59.7244930  29.7203016  48.4066963  61.1127090
  31.0291958  44.9681854  56.7800522  30.5633616  44.3280697  57.7243280
  31.3498569  44.4054079  55.6060028  31.8818784  44.9827290  54.9705839
  31.2853241  42.9954147  55.2663612  30.3330803  42.5951719  55.6144094
  31.3070512  42.7258873  53.8251495  30.3848433  43.1261539  53.4039354
  32.1214914  43.3595896  53.4741354  31.5973830  41.3048935  53.4467411
  30.5435038  40.4051733  53.3257771  29.5878243  40.6902552  53.7402678
  30.7508588  39.0970159  52.8819370  29.9709940  38.3539748  52.8038454
  32.0282292  38.7328267  52.3751497  32.1006417  37.5257874  51.6492558
  32.9478407  37.2994471  51.2585783  33.1236506  39.6604466  52.4186230
  34.0745473  39.3893480  51.9842100  32.8810883  40.9560061  52.9498100
  33.8037157  41.5133142  53.0174065  32.3597074  42.2312546  56.1053324
  32.0909619  41.2359524  56.7918158  33.5471153  42.8119421  56.2996244
  33.7509942  43.5281706  55.6173038  34.6486998  42.2496271  57.0648813
  34.8038173  41.2027931  56.8037891  35.9571385  42.9899168  56.7931414
  35.8207083  44.0713120  56.7847347  36.6488647  42.7216578  57.5916719
  36.6964889  42.7079296  55.4817820  36.5087080  41.5480661  54.6830082
  35.7117963  40.8507299  54.8952579  37.2425294  41.3584900  53.4987259
  37.0951891  40.4383707  52.9527569  38.0767989  42.3152781  52.9897881
  38.4622860  42.1609831  51.9927979  38.2885814  43.5091496  53.7062836
  38.9381146  44.2786074  53.3158398  37.5975370  43.6847639  54.9370623
  37.8212214  44.5220804  55.5814743  34.3334365  42.3157024  58.5705853
  34.7017407  41.4110804  59.3068218  33.6491942  43.3404636  59.0921497
  33.7100148  44.2153025  58.5910988  33.1563282  43.2687950  60.4897785
  33.9557743  42.8456640  61.0980082  32.7313399  44.5809746  61.1349821
  31.8697190  45.0744438  60.6853151  32.3314881  44.3965244  62.1320772
  33.8348961  45.6211758  61.3840818  34.8168945  45.3926325  62.0050573
  33.7492156  46.8259668  60.9296703  34.4561100  47.4805164  61.2329388
  33.0979347  47.1096230  60.2117062  32.0701027  42.2393894  60.6934118
  31.8248963  41.7084742  61.7788982  31.2354493  42.1035576  59.7048950
  31.3927579  42.5736570  58.8249159  30.0508213  41.1890268  59.6925783
  30.3186107  40.3077745  60.2754879  28.9550686  41.9042206  60.4598236
  29.1980767  41.9741964  61.5200853  28.8005543  42.9124260  60.0754404
  27.5541306  41.2694311  60.4831791  27.0435047  41.6184235  59.5856428
  27.5578117  40.1798248  60.5122375  26.5787125  41.8047619  61.6104746
  27.0663834  41.6030025  62.5641870  26.4569139  42.8879213  61.6044855
  25.3169346  41.0774040  61.5106106  25.2698565  40.2615833  62.1041822
  24.3322277  41.3376617  60.6650686  24.3384218  42.3509502  59.9020004
  25.1327038  42.9718971  59.8416376  23.5040617  42.4157763  59.3365526
  23.3435392  40.5049181  60.5749559  23.3266926  39.6975565  61.1815786
  22.4931622  40.8456802  60.1497030  29.6669531  40.8947802  58.2220078
  29.0468001  41.7778587  57.4931479  29.8085141  39.6546745  57.7401400
  30.2212167  38.9585018  58.3443975  29.5575976  39.1772366  56.3856745
  30.2473044  39.6066093  55.6590080  29.7390556  37.6897216  56.3105726
  30.7968593  37.5425124  56.5284729  28.8261509  36.8272042  57.1889734
  28.9871860  35.7540846  57.0861292  29.0763760  37.1247482  58.2072830
  27.7528048  36.9607544  57.0540953  29.7459626  37.1963429  55.0196648
  28.8655472  36.9489503  54.7276592  28.0760217  39.3748736  55.9544420
  27.8712010  39.4358277  54.7425747  27.1519208  39.4884920  56.9096851
  27.4757481  39.1650820  57.8100443  25.7365656  39.6629596  56.7050362
  25.3742743  39.0332246  55.8924580  24.8915887  39.2399359  57.9523087
  25.3543830  39.7785902  58.7792158  23.8291121  39.4832540  57.9457712
  25.1550269  37.8634000  58.1454706  24.7234869  37.5618052  58.9482260
  25.4611111  41.0875463  56.3012600  25.0484753  41.8782663  57.1497822
  25.7426691  41.5047550  55.0584030  26.1144805  40.7910299  54.4481182
  25.2402878  42.7688789  54.4820547  25.6699824  43.5307026  55.1325130
  25.6864166  42.9074144  52.9872847  25.5102706  41.9122267  52.5790215
  25.0648856  43.5631514  52.3775244  27.1800900  43.2288122  52.7970600
  27.7595043  42.3502684  53.0808687  27.5188899  43.4072065  51.3245201
  27.1692491  44.3450165  50.8928108  28.5969710  43.3626175  51.1700630
  27.1487617  42.5716972  50.7303572  27.7299190  44.4420052  53.6094475
  28.7529683  44.7066116  53.3421183  27.0519805  45.2885151  53.5002661
  27.7974987  44.1857386  54.6667385  23.7555909  42.8147888  54.5128107
  23.1604266  41.8269920  54.1673851  23.1614161  43.9788103  54.8950911
  23.7803245  45.0679493  55.5186558  24.2323041  45.6316280  54.7025204
  24.5595956  44.7659874  56.2184095  22.7099323  45.7534599  56.2751341
  22.9716802  46.8070745  56.3725567  22.6294255  45.3101015  57.2676325
  21.4212012  45.4658508  55.5485201  21.2672091  46.1827421  54.7420120
  20.6487656  45.5296898  56.3149214  21.6969824  44.0296984  55.0062990
  21.4789963  43.3055067  55.7912397  20.7712221  43.7955618  53.7590647
  19.6267366  43.3499718  53.8747740  21.3547206  44.0981436  52.5743484
  22.3110509  44.4222546  52.5964022  20.8691192  43.9155531  51.2271595
  19.7869289  44.0303087  51.2887764  21.3243365  45.0536108  50.3637838
  21.3207722  44.6925163  49.3353367  20.6269717  45.8813238  50.4929495
  22.6169348  45.6443310  50.6998205  23.7772536  45.4609680  50.0049686
  23.8868618  44.8235703  49.1400385  24.7720695  46.2598753  50.6281805
  25.7247210  46.2438059  50.2930737  24.2449117  47.0410728  51.5831137
  24.8153377  47.8975439  52.6189566  25.8816457  48.0688286  52.6119900
  23.8795161  48.6019564  53.4098577  24.2331338  49.3108940  54.1438627
  22.4861360  48.3721542  53.3601904  21.8773413  48.8707399  54.0999031
  22.0169449  47.3567677  52.5190592  20.9899282  47.0580721  52.6687860
  22.8444147  46.6870737  51.6322994  21.0135818  42.5570774  50.7412100
  20.2491713  42.3451424  49.8197985  21.8041873  41.6106462  51.2233543
  22.3980546  41.9483614  51.9672441  21.8459749  40.2584362  50.7608271
  22.1827126  40.3575373  49.7288942  22.8358102  39.4928932  51.6279697
  23.7243724  40.1176500  51.7187166  22.4963117  39.4390345  52.6623487
  23.2165051  38.1166816  51.1044502  22.3549175  37.4733996  50.9256840
  23.7659907  38.1122899  50.1630926  24.1263175  37.3417306  52.0408869
  24.5253992  37.8460908  53.0738068  24.4558287  36.1707664  51.6868734
  24.7942376  35.4769039  52.3381329  24.0199637  35.7924485  50.8580208
  20.4866123  39.5500636  50.7539606  19.7220755  39.8000288  51.6892576
  20.2498174  38.7090659  49.7279119  20.8076739  38.7765145  48.8886595
  19.1436684  37.8047729  49.7983408  19.3512642  37.0504808  49.0393639
  19.0726709  37.3966455  50.8065557  17.7345920  38.3084226  49.5237827
  16.7551339  37.7023196  49.9157953  17.6314127  39.4950747  48.9921379
  18.4681523  39.9607754  48.6710644  16.3038015  40.0775099  48.6195517
  15.5604064  39.8742032  49.3903494  16.5041721  41.6059303  48.4375477
  17.4264812  41.8064165  47.8923416  15.6277156  42.0289040  47.9466105
  16.8047023  42.3369980  49.8175001  17.5783014  41.8174934  50.3829718
  17.3965502  43.6672592  49.5540762  16.7045176  44.2237616  48.9220238
  17.4470210  44.2504883  50.4735327  18.3675110  43.5821819  49.0661240
  15.6201291  42.5642300  50.6757689  14.8106372  43.0499077  50.1308393
  15.1082885  41.6372061  50.9341240  15.9162796  43.0883074  51.5844679
  15.8593667  39.4433427  47.3382902  16.2767482  39.8087072  46.2900114
  14.9827147  38.4421206  47.4806356  14.7452593  38.1033707  48.4020329
  14.5262969  37.6305890  46.3314486  15.3765118  37.1722007  45.8263588
  13.6385310  36.4786148  46.8841600  12.9196906  36.9725490  47.5379181
  13.1019747  35.9778261  46.0782957  14.4094312  35.5108500  47.6975775
  15.2602100  35.1194882  47.1398020  14.8362648  36.0552764  48.5399055
  13.5792983  34.2768598  48.1157255  13.3782971  33.6279774  47.2632885
  14.1571224  33.6655450  48.8089228  12.2943866  34.6491170  48.8445616
  11.7554128  35.4998851  48.4276724  11.6753638  33.7520814  48.8604355
  12.6120007  34.9699283  50.3095198  11.8277335  34.9989748  50.9452724
  13.2360566  34.2979789  50.7327652  13.0809438  35.8549309  50.4397678
  13.6735249  38.5157418  45.4543638  12.8378940  39.3056059  45.9473991
  13.7716496  38.4090686  44.1275263  14.3561435  37.6321411  43.8539362
  13.3207810  39.2753649  43.0802774  12.2952855  39.5444226  43.3333921
  14.2589009  40.5473232  43.1170893  13.8247561  41.3979340  42.5916529
  14.2723680  40.8734131  44.1570854  15.2905190  40.3565216  42.8213549
  13.3693492  38.5598373  41.7228174  14.4376397  38.2391930  41.2536621
  12.2523510  38.4380341  41.0260725  11.3694596  38.6425972  41.4718914
  12.2791290  38.0107689  39.5810270  12.7144790  37.0123434  39.6224546
  10.8220863  37.9444027  39.1136050  10.5250335  38.9365220  38.7736726
  10.7564795  37.3703671  38.1893325  10.1706934  37.5667739  39.9017501
  13.2253861  38.7576985  38.5961437  13.8776863  38.1427860  37.6697659
  13.4200954  40.0628185  38.8244271  13.0613887  40.5284166  39.6457958
  14.1826904  40.9070683  37.8462863  14.7256005  40.2684879  37.1494627
  13.2648778  41.9109058  37.1430087  13.8916886  42.7162218  36.7600226
  12.4809635  41.3554621  35.9714222  11.8965721  40.4993582  36.3085818
  11.6675961  42.0351458  35.7173252  13.1775439  41.1201477  35.1667476
  12.3934519  42.4880266  38.0541587  11.7156172  41.8438768  38.2714415
  15.2814543  41.6597795  38.6386371  15.1512384  41.8255091  39.8404598
  16.3548779  42.1067047  37.9440236  16.3379478  42.1119356  36.9341803
  17.4476802  42.8623581  38.5637450  17.6392913  42.5053787  39.5756531
  18.7801409  42.7648306  37.8301048  18.6533511  42.8109360  36.7484856
  19.4565701  43.5851669  38.0700922  19.4575357  41.4893723  38.2745290
  19.5005512  41.6193724  39.3558955  18.7944579  40.6584549  38.0336761
  20.8810806  41.2627363  37.6871562  21.6137576  41.7971277  38.2918978
  21.0949850  40.1980639  37.7810717  20.9208846  41.6157722  36.1611009
  20.0306153  41.2701988  35.6356478  20.8569551  42.7033854  36.1277819
  22.1791816  41.1407900  35.5651546  22.9179096  41.7354393  35.9126782
  22.3346877  40.1636791  35.7680702  22.2378230  41.2768078  34.5660758
  17.0670891  44.3122435  38.7650919  17.4050033  44.8417521  39.8193979
  16.1918974  44.8531866  37.8937292  15.9237778  44.2449665  37.1332741
  15.3748691  46.0096931  38.1943870  15.9835327  46.9113398  38.2627082
  14.5120239  46.4658117  36.9704080  15.1223814  46.6936493  36.0965347
  14.0198696  45.5370522  36.6817927  13.5868382  47.6265192  37.3496270
  12.8849614  47.2865772  38.1111431  14.1961730  48.4449148  37.7330732
  12.8487492  48.1152487  36.1010122  12.2907126  48.9768028  36.4676452
  13.5641992  48.3529520  35.3137851  11.8476057  47.0161581  35.4703665
  11.7453754  47.2348928  34.4074440  12.4503696  46.1102390  35.5343151
  10.5349243  46.8485594  36.0509467  10.0617373  46.1954927  35.4429197
  10.5859208  46.5769672  37.0224071  10.0745046  47.7372122  35.9152269
  14.7658646  45.9442663  39.5926428  15.0673497  46.8382597  40.3573942
  13.9155126  45.0086069  39.9254942  13.6095476  44.2333126  39.3550467
  13.3344638  44.8146725  41.2439632  12.8435981  45.7436562  41.5340281
  12.2869182  43.6033869  41.1610365  11.4914358  43.8950825  40.4753113
  12.7810800  42.7717495  40.6587505  11.6837180  43.0443382  42.5028467
  11.3004875  42.0313215  42.3802090  12.4667442  43.1412220  43.2549000
  10.4908621  43.9554453  42.9423904  10.2528703  45.0516796  42.5185823
   9.6291941  43.5069895  43.8097429   8.7324077  43.9714670  43.8216114
   9.6977675  42.5700426  44.1805887  14.4106913  44.5882034  42.3596430
  14.2592192  45.1957130  43.4102345  15.5570495  43.8893461  42.0746136
  15.6706774  43.5046101  41.1476994  16.6023803  43.6990786  43.1004715
  16.1228144  43.2511234  43.9707899  17.5905311  42.5980473  42.6613808
  17.0726967  41.7007542  42.3225355  18.1475842  42.9638195  41.7988253
  18.6849809  42.2458315  43.7476110  19.1208518  43.1782389  44.1064024
  18.2154298  41.9425583  44.6833706  19.8268223  41.2167168  43.4498024
  20.5191445  41.6922903  42.7550983  20.3076959  40.9100962  44.3786955
  19.2668939  39.9033999  42.7991152  18.6323881  39.4348001  43.5513878
  18.7282443  40.2121639  41.9032192  20.3832769  38.9851046  42.5252390
  21.0334039  39.4367480  41.8979740  20.8598781  38.6606956  43.3545208
  19.9479461  38.1491208  42.1623087  17.1220052  45.0788212  43.4724092
  17.1548879  45.4354811  44.6591568  17.5931418  45.8938932  42.4985027
  17.6020610  45.5617523  41.5447187  18.1602931  47.2720718  42.6751375
  18.9657736  47.1355772  43.3967161  18.7806308  47.8041220  41.3649368
  18.1057441  48.1956911  40.6038141  19.4382489  48.6479425  41.5737629
  19.6388745  46.7877436  40.6857967  20.4538846  45.8113337  41.3140202
  20.4082799  45.7166243  42.3888922  21.3439751  44.9329615  40.5887508
  21.8467569  44.2054224  41.2086725  21.4372444  45.0588369  39.1722369
  22.2841382  44.3214846  38.3898926  22.5391698  44.8300505  37.6166415
  20.6787705  46.0691547  38.5488558  20.8151436  46.1644983  37.4817491
  19.7388971  46.8567038  39.2457628  19.2318189  47.6021862  38.6511827
  17.1696866  48.3055019  43.2389975  17.5593531  49.0668249  44.1684484
  15.8714473  48.2060766  42.8798103  15.6882179  47.4404669  42.2470617
  14.8246610  48.8808966  43.6801577  14.9868894  49.9557304  43.5994625
  13.3336675  48.7197256  43.2342386  13.2803392  49.2030334  42.2587013
  13.2115304  47.6498652  43.0651808  12.2528148  49.1621065  44.2294502
  12.2539437  48.4699297  45.0714684  12.5424981  50.1637506  44.5470810
  10.8775306  49.2980433  43.6043596  10.7616472  50.0022268  42.5808382
   9.8281628  48.7870264  44.0856409  14.8716259  48.5239935  45.2106905
  14.9297786  49.3904209  46.0844707  14.9253178  47.2123623  45.5377054
  14.7089922  46.5954924  44.7677851  14.7079003  46.7109108  46.8743658
  13.9183891  47.3054123  47.3340988  14.2531574  45.2724981  46.8997955
  14.8765028  44.6586084  46.2496519  14.2343736  44.7592068  47.8611898
  12.8321064  45.1153278  46.3385677  12.7695704  45.7054043  45.4242373
  12.7172840  44.0805149  46.0159397  11.7844570  45.4203653  47.3878574
  11.8921077  46.3714933  47.9092598  10.8448827  45.5014706  46.8412971
  11.7075384  44.2924118  48.3636808  11.8123627  43.3195448  47.8834248
  12.5032914  44.2445898  49.1070461  10.4129744  44.2789602  48.9843941
   9.6829021  43.9933395  48.3475924  10.4158068  43.7591505  49.8503590
  10.0646830  45.2194929  49.1035175  15.9519267  46.8906879  47.6740503
  15.8173549  47.1177435  48.8990116  17.1306372  47.0145893  47.0989418
  17.2850525  46.8001366  46.1241245  18.3360076  47.4599648  47.7971363
  18.4140885  46.8628454  48.7056828  19.6184754  47.2250223  46.8868542
  19.6540666  47.8106165  45.9682083  20.8521533  47.7552414  47.6555586
  20.8595133  47.2496510  48.6211777  21.8579507  47.6284742  47.2550535
  20.7568645  48.8102770  47.9122972  19.8004222  45.6614685  46.5560341
  20.1428914  45.1965761  47.4805260  18.8242781  45.2257109  46.3430738
  20.8195210  45.2110863  45.5077648  20.5055022  45.5169106  44.5097828
  21.8085003  45.6312704  45.6906986  20.9594822  44.1303968  45.5327368
  18.1727242  48.9052439  48.3264256  18.6045766  49.2114639  49.4419718
  17.6487482  49.7372866  47.4369192  17.3703039  49.4813299  46.5004110
  17.4123967  51.1764765  47.7793741  18.3674824  51.6070175  48.0803013
  16.9755971  52.0243073  46.6075468  15.9386170  51.8068314  46.3516712
  17.0477045  53.0674028  46.9155359  17.7592170  51.8118477  45.4206944
  17.4169195  50.9964752  45.0470543  16.3620389  51.2741899  48.9159298
  16.5609527  51.9760752  49.8881865  15.1774371  50.6007624  48.8279676
  15.1174128  50.1015329  47.9520321  14.1575193  50.5488300  49.8639822
  13.8337493  51.5801954  50.0038099  13.0257857  49.6751690  49.3246460
  13.0109334  49.8657703  48.2515478  13.3300412  48.6285162  49.3326378
  11.6026688  49.9456787  49.9041319  11.4790368  51.0121918  50.0921917
  10.8862305  49.6070957  49.1556835  11.3713098  49.2200279  51.2712288
  10.5088949  49.6439219  52.0281553  11.9759941  48.1677151  51.5057135
  14.7128201  50.0325489  51.2903547  14.2847157  50.5216694  52.3285103
  15.5620646  48.9758348  51.2549877  15.7515419  48.5957813  50.3386068
  16.3396800  48.4273863  52.4053240  15.6709552  48.3007765  53.2567215
  16.9922650  47.0750809  52.0978165  16.2614620  46.4542913  51.5795040
  17.8286028  47.2532129  51.4218569  17.5513780  46.2909985  53.3147192
  17.9189849  45.3455544  52.9158449  18.3103335  46.8719101  53.8387680
  16.4577663  45.8918476  54.2944336  16.0128760  46.8082094  54.6823215
  15.6021202  45.4286003  53.8031387  16.9504058  44.9552059  55.4186106
  17.3436379  44.0128660  55.0372124  17.8091276  45.4264021  55.8968067
  15.9794712  44.7212934  56.4845228  15.9857213  45.5711079  57.0303059
  15.0731266  44.4575500  56.1252451  16.3770092  44.0185356  57.0913172
  17.3823833  49.3407917  53.0909967  17.5600457  49.3658400  54.2988777
  18.0811357  50.0888968  52.2646856  17.7867448  49.9533272  51.3080978
  18.9231694  51.2125063  52.6326084  19.5750415  50.8718586  53.4370470
  19.8374104  51.6051531  51.4622545  19.2603016  51.6643810  50.5394650
  20.2591586  52.6006985  51.6005182  21.0628438  50.6784487  51.4200258
  21.6768742  50.8871126  52.2961092  20.7680607  49.6310759  51.4849520
  21.8079877  50.8061123  50.0879622  21.0991430  50.4558802  49.3376446
  22.1268559  51.8386984  49.9458790  23.1491208  49.9935055  49.9436378
  23.0970383  48.9375925  50.2090454  23.3350468  50.0441790  48.8708067
  24.3089652  50.6406403  50.5849409  25.1893067  50.2073860  50.3453493
  24.4060636  51.6454792  50.5537748  24.1556978  50.5438328  51.5785360
  18.1521702  52.4341726  53.1571960  18.5102546  52.7690458  54.2744350
  17.0987809  52.8865767  52.5302458  16.8711543  52.5724363  51.5977192
  16.2355149  53.9629221  53.0714750  16.8462896  54.8635769  53.0092192
  15.0787342  54.1659498  52.1338701  14.5566761  53.2233715  51.9692278
  14.3005121  54.8413610  52.4892378  15.5692649  54.7594261  50.7779503
  15.9149563  55.7812643  50.9343100  16.4554298  54.2064524  50.4664373
  14.2188215  54.6316051  49.5194960  15.1059675  55.1944828  48.0876541
  15.7917380  54.3731499  47.8797245  14.3862152  55.3534651  47.2846651
  15.5038786  56.1982059  48.2369947  15.7685935  53.6129189  54.4731808
  15.6914961  54.5667648  55.2519035  15.5607677  52.3445320  54.8237467
  15.6661224  51.6529322  54.0952587  15.0231647  51.9410181  56.1429358
  14.4963467  52.7332735  56.6748190  14.0866256  50.7979298  55.8934307
  13.4649312  50.6751108  56.7802858  13.3833528  51.1699677  55.1483822
  14.6602476  49.4948721  55.4976225  14.1050601  49.0989542  54.8218918
  16.1105990  51.5539837  57.0876598  15.7655966  51.0865450  58.1864691
  17.3983741  51.6499090  56.6940689  17.6435280  52.0399237  55.7952404
  18.5335493  51.1387968  57.5168467  18.2070303  50.9301758  58.5356522
  19.2248929  49.8503351  56.9333220  19.6109653  50.1232243  55.9511852
  20.4191017  49.2894125  57.6191044  20.7888126  48.4176207  57.0792961
  21.2754464  49.9634171  57.6413393  20.1296544  48.9919901  58.6270046
  18.3084905  48.8243484  56.7256832  17.7311158  48.9778662  55.9742355
  19.5247829  52.3356724  57.5116205  20.4474998  52.3005819  56.6426420
  19.3164825  53.3237314  58.4190226  18.0956781  53.4480810  59.2686415
  18.0567181  52.6162624  59.9719667  17.2017813  53.5392618  58.6516047
  18.1680524  54.6998024  60.1233053  17.7287030  54.6226215  61.1178493
  17.6720500  55.4721451  59.5354557  19.6894801  54.8651409  60.1112843
  20.1783514  54.3796921  60.9559393  20.0024438  55.9029055  60.2261639
  20.2924633  54.2903852  58.7898111  20.2889585  55.0218248  57.9816771
  21.6690874  53.6947441  59.0554476  21.8172431  52.5420427  59.5603323
  22.6875520  54.4892263  58.8197422  22.4731898  55.4079866  58.4591341
  24.1347837  54.1497946  58.8543034  24.3117857  53.3571863  58.1272888
  24.9567270  55.4395485  58.5658598  24.7927999  56.2017488  59.3276262
  26.4631581  55.2515173  58.5584068  26.7856622  54.8045111  59.4987679
  26.8666053  54.6949387  57.7124977  26.9564033  56.2229776  58.5911417
  24.6543908  56.0616493  57.1811533  24.9826765  55.3912973  56.3868284
  23.6258674  56.3889599  57.0291519  25.1996779  56.9984674  57.0665836
  24.5670033  53.6045504  60.2762890  25.3851461  52.6485348  60.4494762
  24.1825747  54.2192984  61.4067364  23.4407306  54.8901796  61.2664413
  24.3579769  53.6945772  62.7531242  25.3957486  53.4990215  63.0231094
  23.8778496  54.7988081  63.7420416  24.0387893  54.4170189  64.7502279
  24.6110296  55.6011629  63.6597204  22.4210477  55.2996492  63.5963249
  21.8364739  54.4725227  63.1935310  22.0203733  55.4882479  64.5923090
  22.3221707  56.6090202  62.8230858  21.6548395  57.5229645  63.3544540
  22.7169776  56.6551018  61.6484833  23.6510134  52.3872948  63.0218172
  24.2520332  51.5437174  63.6735153  22.5684023  52.0770073  62.3771954
  22.2493935  52.6606321  61.6171122  21.9837666  50.7625580  62.3776436
  22.0675421  50.4516983  63.4190130  20.4944634  50.7352114  61.9476700
  20.2964640  51.2137079  60.9885406  19.9113441  49.3096209  61.9460964
  19.9536240  48.8647270  62.9402685  18.8741291  49.3320894  61.6117525
  20.5227995  48.7237453  61.2598228  19.6348774  51.4007711  62.9859352
  19.5321155  50.9025860  63.9499617  19.9238193  52.4391460  63.1483889
  18.6204934  51.3833761  62.5874090  22.9160833  49.7666931  61.7344284
  23.0132532  48.5598850  62.1037149  23.5281444  50.1242208  60.6053734
  23.3205199  51.0659647  60.3051901  24.5494676  49.3300056  59.8872089
  24.1558170  48.3220387  59.7562361  24.7091198  49.8899794  58.4118080
  23.9031649  49.5838451  57.7448606  24.8210740  50.9706926  58.4991312
  25.9885001  49.4812584  57.6645708  26.8856859  49.5598507  58.2785559
  25.9662509  48.0760241  57.0710754  25.9904695  47.4110556  57.9343939
  25.1179528  47.8820181  56.4146805  26.8431020  47.8805304  56.4538145
  26.1936998  50.4751348  56.5015936  26.4814568  51.4764833  56.8218994
  27.0627213  50.1274967  55.9429789  25.2476454  50.6218529  55.9804821
  25.8850670  49.0982246  60.7665110  26.4679170  48.0015850  60.6522846
  26.2227774  50.0298691  61.6590881  25.7308626  50.9118032  61.6767836
  27.3629260  49.8166943  62.6115561  27.8821325  48.9047718  62.3167229
  28.3937836  51.0538578  62.5572729  28.1487870  51.8446636  63.2662868
  29.3436122  50.6237125  62.8749180  28.7296915  51.6344452  60.8695030
  27.5499558  52.1585941  60.5254221  26.8845391  49.5220280  64.0358734
  27.6424766  49.7529936  64.9699402  25.7562733  48.8624525  64.2070436
  25.1208520  48.7067413  63.4375668  25.2596235  48.4361410  65.5541945
  25.3089213  49.2803812  66.2418938  23.7689829  48.1049252  65.5551147
  23.3697844  48.0526781  66.5680408  23.2579827  48.8508511  64.9463701
  23.4731030  46.7648077  64.9434280  23.6431336  46.7829943  63.8669252
  24.0748143  45.9510899  65.3482819  21.9576693  46.3588905  65.1733065
  21.8155432  46.3056469  66.2526846  21.2245703  47.1224976  64.9133348
  21.5592384  44.9757910  64.5865917  21.3843536  45.0208712  63.5116577
  22.4392748  44.3332577  64.5585394  20.3884315  44.2898846  65.2514935
  20.0073504  43.5191822  64.7214985  20.5552030  43.9156294  66.1746502
  19.6157944  44.9389410  65.2945900  26.2050605  47.3570490  66.1141300
  26.6919470  46.5193367  65.3138971  26.3639164  47.3941088  67.4207258
  25.9228134  48.0914927  68.0031204  27.3446488  46.5901136  68.1206131
  27.4455953  47.0184803  69.1178131  27.1927381  45.5163670  68.0106592
  28.7924218  46.7035055  67.5673485  29.5006776  45.7521963  67.6808739
  29.2233491  47.8670120  66.9859171  28.5885620  48.6497784  67.0524502
  30.6097531  48.1598377  66.4205408  31.2992907  47.5612259  67.0157766
  30.6593609  47.7777195  64.9518394  29.8116755  48.2240486  64.4319201
  31.6334963  48.0854702  64.5717669  30.5832076  46.2996674  64.6442318
  31.7647600  45.4816675  64.7581434  32.6123500  45.9634352  65.2227831
  31.7084718  44.0652037  64.4647455  32.6033592  43.4860516  64.6384096
  30.5108762  43.4599876  64.0614653  30.5536151  42.4216270  63.7675428
  29.3507147  44.3015432  63.7949562  28.4158897  43.8140059  63.5608387
  29.4145799  45.7154655  64.1370869  28.5913324  46.3571167  63.8596964
  30.9786105  49.6644735  66.7690802  30.0867677  50.4157686  67.1945620
  32.3018765  49.9990892  66.6792345  33.3922148  49.0804577  66.2296963
  33.5288119  49.2011404  65.1550436  33.2714891  48.0456305  66.5501022
  34.7142267  49.6352100  66.8014574  35.5324578  49.5193720  66.0906935
  34.8072624  49.2230558  67.8062296  34.3186665  51.0907602  66.8908739
  34.6889877  51.5849161  65.9926701  34.7840595  51.5553379  67.7601671
  32.7812243  51.3188601  67.0698500  32.4660206  51.4868021  68.0996799
  32.2417784  52.5408459  66.3522530  31.7302513  52.4463224  65.2201700
  32.3845458  53.7726355  66.8448448  32.9005814  53.7928295  67.7128315
  31.7687440  54.9564552  66.2422323  30.7162166  54.7488451  66.0494089
  31.9453907  56.1466408  67.1735811  31.5130711  55.7784939  68.1039953
  32.9972816  56.3188410  67.4015808  31.3439965  57.0327425  66.9704914
  32.4140453  55.2120733  64.8981428  31.7221045  55.5553055  63.9477491
  33.7431240  55.0353718  64.8410797  34.1548204  54.6728039  65.6891108
  34.6431255  55.3607750  63.7421751  34.6555448  56.4501953  63.7088394
  36.0476422  54.8382139  63.9226055  35.9201646  53.7928629  64.2038345
  36.6042566  54.8098850  62.9858637  36.9161177  55.5874491  64.9140263
  37.8544855  55.0587893  65.0816298  37.0195866  56.6228104  64.5893288
  36.3566804  55.7265663  66.3114452  35.6188440  54.8213911  66.8142986
  36.8194366  56.6624975  67.0232105  34.1118240  54.8993683  62.3767424
  34.1202593  55.5787945  61.3440800  33.6656141  53.6435938  62.3236275
  33.7096930  53.1198692  63.1861067  32.9680824  53.0277586  61.1952829
  33.6462975  53.0677795  60.3429174  32.7704048  51.5467787  61.6026211
  32.4008679  51.4382029  62.6223040  32.0205951  51.1569452  60.9142017
  34.0097260  50.6807852  61.4426947  34.3617702  50.1959229  60.1693106
  33.7025905  50.3832054  59.3345594  35.5611253  49.4621325  60.0433493
  36.0095787  49.1317081  59.1180849  36.4173698  49.2864180  61.1443329
  37.3803687  48.8226223  60.9896135  35.9697795  49.7118378  62.3650265
  36.6884232  49.6427536  63.1682587  34.8108983  50.4370499  62.5513840
  34.5063996  50.7125139  63.5502815  31.6742420  53.7310743  60.7527018
  31.5918279  54.0355635  59.5973444  30.7363510  54.1028976  61.6349125
  30.9669733  54.0446424  62.6165056  29.5805216  54.9140692  61.2889051
  29.0580106  54.5069838  60.4232454  28.6197019  54.9306202  62.4983788
  29.1058969  55.4004145  63.3533716  27.6441765  55.3851032  62.3254871
  28.5409427  53.8858080  62.7988195  29.9098706  56.3902855  60.8922672
  29.2756820  56.8973207  59.9522972  30.9842777  56.9654894  61.4757347
  31.5216780  56.3781929  62.0973349  31.5980101  58.2708168  61.1976242
  30.8769774  59.0881252  61.1827230  32.6730418  58.6969995  62.2784042
  33.4112763  57.9145336  62.4540710  33.1826830  59.5133018  61.7665291
  31.8747854  59.2047405  63.5019493  31.7140698  60.2704573  63.3390808
  30.9212875  58.6814976  63.5738039  32.7069139  58.9571285  65.1149321
  33.8885593  60.2767324  65.1791668  34.7005630  60.2163696  64.4545221
  33.3243394  61.2091780  65.1618958  34.2723775  60.1356077  66.1895466
  32.0936942  58.2835007  59.7714758  31.6282415  59.0668869  58.9603186
  33.0210710  57.3771572  59.4976521  33.3511186  56.7608881  60.2266121
  33.5012507  57.1461248  58.1418324  34.2290020  57.8883028  57.8137350
  34.2625785  55.7796097  58.0371571  35.1017737  55.8320522  58.7307692
  33.5576463  54.9871397  58.2884789  34.8348093  55.3273535  56.7536163
  34.0307045  54.9040270  55.7153559  32.9712725  54.9597836  55.9175682
  34.5420074  54.5603466  54.4293547  33.8066697  54.3506098  53.6666632
  35.9403276  54.5476913  54.2272854  36.5047717  54.2714405  53.0433702
  35.9018373  54.4977427  52.3314333  36.7390084  54.8695040  55.3980494
  37.8016591  54.8825836  55.2056694  36.1949039  55.2300358  56.6090155
  36.8584394  55.5419493  57.4020052  32.4012351  57.1691990  57.0908594
  32.4897766  57.8600740  56.0698032  31.3600969  56.3311768  57.2745323
  31.3029838  55.8649826  58.1686783  30.2141738  56.1879778  56.3040113
  30.6746531  56.2002134  55.3161287  29.5001483  54.8186874  56.6244602
  29.2683697  54.7878075  57.6890850  28.5746670  54.7794771  56.0499573
  30.3576088  53.5909414  56.2892580  31.3558531  53.6793280  56.7179728
  29.6372819  52.3131800  56.7677498  30.0933075  51.3945007  56.3987303
  29.5979929  52.1791458  57.8487635  28.5728407  52.3553562  56.5369177
  30.4722810  53.4059429  54.7919130  31.0579991  54.2585802  54.4483280
  31.0084486  52.4607468  54.7068548  29.5102859  53.4399366  54.2805290
  29.3040824  57.4071312  56.2228346  28.9442229  57.8037119  55.0697327
  28.9366794  58.0131721  57.3706436  29.2722416  57.5871372  58.2226992
  28.3578491  59.3746948  57.4327326  27.3363018  59.2915154  57.0617533
  28.2343459  59.6833658  58.8875008  27.5379443  58.9799929  59.3440008
  29.1836238  59.5797968  59.4130993  27.6638794  61.0490847  59.1259909
  28.3909178  61.9271803  59.5282745  26.4070439  61.2430525  58.8036203
  26.0683918  62.1866846  58.6812687  25.7390738  60.5250835  58.5618877
  29.0330267  60.4569674  56.5701437  28.3632421  60.9899426  55.6855488
  30.2889562  60.6973696  56.7889929  30.7871842  60.2039003  57.5158739
  31.1133051  61.4285803  55.8102655  30.7565475  62.4570084  55.7540226
  32.5194478  61.3411140  56.4143944  32.4353456  61.8899679  57.3523617
  32.7680326  60.3053331  56.6456175  33.5628867  62.0505381  55.5889177
  33.8323450  63.3997631  55.7729435  33.4020543  63.9971733  56.5631056
  34.8686409  63.9531612  55.0441837  35.1953268  64.9275064  55.3763342
  35.5506873  63.2579994  54.0547895  36.4869380  63.9255524  53.3590794
  36.4420915  64.8716640  53.5154581  35.2615643  61.9117832  53.8233328
  35.7999587  61.2760544  53.1360340  34.2410851  61.3641071  54.5783186
  34.0852308  60.2966022  54.5278788  31.1532760  61.0081720  54.3570137
  31.0491705  61.8731260  53.5089207  31.4310193  59.7733831  54.0441656
  31.5459037  59.0499210  54.7395086  31.3558769  59.2621756  52.7324057
  32.1000171  59.7444010  52.0985126  31.7557931  57.8025961  52.7924633
  31.0646009  57.3293638  53.4898949  31.6226912  57.3947430  51.7904472
  33.5575414  57.4644995  53.1573439  33.5627770  57.3941946  54.4914818
  29.9727774  59.4494772  52.1091509  29.9213958  59.6794939  50.8517122
  28.8327432  59.4537354  52.8725863  28.8134432  59.1567993  53.8377571
  27.5535655  59.8895836  52.3087406  27.3820138  59.4286919  51.3359833
  26.4486885  59.5445967  53.3378696  26.8211460  59.7324896  54.3448830
  25.5857778  60.1509809  53.0625820  26.1792755  58.1021547  53.5011959
  27.0384765  57.5194120  53.1690979  25.9946203  57.9052782  54.5572424
  24.9625063  57.6854563  52.6954603  24.5952177  56.7153263  53.0302000
  24.1637897  58.4266138  52.7243757  25.3238678  57.5391340  51.2076950
  25.9615493  56.7935848  50.9676600  24.9159646  58.3133602  50.2228546
  24.0157533  59.2786837  50.3193045  23.4859681  59.2940140  51.1790705
  23.7735105  59.7942686  49.4852877  25.4477978  58.1698275  49.0670824
  26.2502074  57.5606537  48.9953518  25.3208995  58.8589096  48.3396435
  27.5311995  61.4118576  52.0799971  27.2170734  61.8519545  50.9703684
  27.9498196  62.2317076  53.0438566  28.1447697  61.7800283  53.9259434
  28.0168033  63.6775827  52.9408407  26.9914985  64.0441608  52.9905844
  28.5951471  64.1155291  53.7543631  28.6131430  64.2653608  51.6569328
  28.0427217  65.2090693  51.1395073  29.7939587  63.7753677  51.1651468
  30.2788377  63.1980038  51.8371964  30.4293036  64.0571547  49.9126387
  30.9333944  65.0232983  49.9363947  31.5140533  62.9964685  49.6891403
  31.0923386  61.9925785  49.7387838  31.9325137  63.1739044  48.6984253
  32.8023529  63.0555582  50.6170940  32.6337981  63.0732298  51.6938400
  33.6439753  61.7452621  50.2151442  33.9916420  61.7934990  49.1832018
  34.4588709  61.5324831  50.9070730  32.9824233  60.8900023  50.3529119
  33.6671162  64.2842197  50.3522253  33.8889313  64.1845560  49.2896986
  33.1706429  65.1596594  50.7708216  34.5304227  64.0516949  50.9757137
  29.5148969  64.1976452  48.7350368  29.1361499  63.2243347  48.1441975
  29.3930697  65.4709578  48.3340502  29.6517658  66.2635851  48.9040661
  28.8489604  65.8084869  47.0413876  27.8746867  65.3329420  46.9284821
  28.7321234  67.3488522  47.0258331  29.6324086  67.8715038  47.3489809
  28.5601568  67.6554823  45.9940815  27.5760436  67.6824713  48.0239773
  26.6380930  67.2215319  47.7143240  27.7642083  67.2329855  48.9989948
  27.2041059  69.2097282  48.2163572  26.7073369  69.6347666  47.3441982
  26.4382553  69.2113733  48.9919710  28.4211683  69.9394178  48.7261772
  29.0603352  70.4534626  48.1368351  28.6955595  70.1185846  50.0029325
  27.8747344  69.7912169  50.9741688  27.0163798  69.3741083  50.6434965
  28.1276989  69.9052525  51.9453049  29.7703290  70.7188606  50.3892422
  30.5361438  70.8894110  49.7532082  30.0283432  70.8409405  51.3580704
  29.7043204  65.3153467  45.8424902  30.9486723  65.1314640  45.8965969
  29.1086793  64.9033165  44.7137403  28.1000638  64.8728037  44.7568941
  29.5977974  64.3161440  43.4226274  29.5182204  63.2318497  43.5006428
  28.6557889  64.7851181  42.2586823  27.6242471  64.4689751  42.4138451
  28.6242986  65.8690786  42.1485043  29.0960026  64.4154692  40.8829975
  29.5236516  63.0866718  40.6283712  29.5370173  62.3470259  41.4152288
  30.0499034  62.8023100  39.3750548  30.3515434  61.7871332  39.1633153
  30.0686765  63.7034988  38.3030367  30.3509903  63.3860683  37.3100948
  29.5549941  65.0092268  38.5267639  29.5572019  65.7885838  37.7791023
  29.0825200  65.3387070  39.7971535  28.8199234  66.3671684  39.9964404
  31.0789776  64.7820425  43.1383181  32.0320177  64.0554094  42.9892731
  31.2766671  66.1111927  42.9864120  30.4711795  66.7016602  43.1368828
  32.5669146  66.6952372  42.6101255  32.9789805  66.1346292  41.7710590
  32.5156331  68.1052637  42.1132660  32.2355127  68.6655807  43.0052757
  33.5486674  68.3552694  41.8715286  31.6323042  68.4084034  40.8980751
  32.1112347  69.1228247  40.2285004  31.5251017  67.4998331  40.3055239
  30.2993369  68.8718843  41.3865852  29.6009731  69.6452570  40.6804085
  29.7878289  68.4100723  42.4331331  33.7070274  66.6017437  43.6470366
  34.8953938  66.6912508  43.3436251  33.4166622  66.4373064  44.9423647
  32.4492025  66.2258625  45.1408911  34.3286490  66.4534569  46.1013937
  34.8095632  67.4300957  46.0465670  33.5989261  66.5180397  47.4543619
  33.0003238  65.6276703  47.6467562  34.2566586  66.5342951  48.3233976
  32.6944208  67.7666569  47.3975658  32.5997925  68.1842136  46.3951731
  31.7619038  67.4213314  47.8439569  33.2070303  68.8851976  48.3087349
  33.2360768  68.6501503  49.5644331  33.7818933  69.8795462  47.8874922
  35.4719806  65.3885269  46.1033964  35.3210402  64.2155027  45.7571650
  36.5669298  65.8256531  46.7081213  36.5495586  66.8180323  46.8951654
  37.7614784  65.0652456  47.0057058  37.7362990  64.2566109  46.2752390
  39.0225267  65.8537912  46.8013287  39.8657608  65.1651955  46.7475414
  38.9580750  66.4885092  45.9175444  39.2118502  66.5754747  47.5959539
  37.6882339  64.5118284  48.5099983  37.5617146  65.3675556  49.4004583
  37.6825929  63.1623983  48.7541628  37.5342393  62.1576357  47.7101755
  38.4782267  61.9138050  47.2228003  36.7283869  62.4239492  47.0262337
  37.1753597  60.9061766  48.5129499  37.5435948  60.0513315  47.9457235
  36.1040306  60.7726479  48.6630297  37.8378105  61.0454893  49.9201584
  38.9079666  60.8540297  49.8413658  37.2478890  60.5550861  50.6945038
  37.7899170  62.5861740  50.1121998  37.0009279  62.9186964  50.7867622
  39.1082907  63.1020069  50.7963943  40.1037884  63.3638620  50.1637793
  39.0572619  63.3220100  52.1526575  38.1291270  63.2768631  52.5484228
  40.2101612  63.5911369  53.0253696  41.0812092  63.9994431  52.5128651
  39.8683882  64.5411205  54.1448307  39.3781137  65.4252005  53.7372208
  39.2054772  63.9768934  54.8007965  41.0680294  65.0004721  54.9433279
  40.8229542  65.6860399  55.9753609  42.2127819  64.7922897  54.4979334
  40.5294609  62.1897411  53.6246920  39.9937677  61.7470741  54.6363068
  41.4573860  61.5431118  52.9596329  41.8707466  62.0088387  52.1644402
  41.9821072  60.1860762  53.1722021  41.2307262  59.4016647  53.2629395
  42.9221201  59.9703932  52.0021248  43.7551498  60.6553078  52.1604109
  43.3602619  58.9774942  52.1035624  42.4054956  60.1094675  50.6399584
  41.6850138  59.0145731  50.0875711  41.5363598  58.0649471  50.5800390
  41.0753250  59.1868544  48.8717270  40.5043888  58.4123707  48.3812141
  41.2765026  60.4194641  48.1433058  40.5717421  60.5963612  46.9974852
  40.2461529  59.8063612  46.5598869  42.0493031  61.4652300  48.6566544
  42.0921087  62.4310684  48.1752729  42.4877501  61.3282919  50.0236034
  43.0409193  62.1160650  50.5133200  42.8446007  60.1530600  54.4994450
  42.9377031  59.1068220  55.1782370  43.3665133  61.3027287  54.8692751
  43.3206177  62.1209860  54.2789745  44.0784550  61.4366865  56.1536074
  44.8984861  60.7237101  56.2391281  44.7589254  62.8593159  56.1389685
  45.3851461  62.9240608  55.2491617  43.9529991  63.5873985  56.2310696
  45.6918669  63.2227516  57.2959948  46.5794659  62.5989437  57.4015331
  46.0199213  64.2582035  57.2048044  44.8006630  63.3073568  58.9358711
  46.2043667  63.1448984  59.9428558  45.9463930  62.7762032  60.9356403
  46.8646860  62.4290323  59.4533491  46.5428448  64.1765642  60.0387764
  43.1045961  61.2545967  57.3612928  43.3858681  60.4902983  58.2941437
  41.9381762  61.9496059  57.2545958  41.8874407  62.6089382  56.4911747
  40.8611012  61.8663311  58.2805777  41.3209724  61.9455528  59.2656374
  39.7739387  62.9513884  57.9991865  40.0978613  63.9782476  58.1687021
  39.4963813  62.8248072  56.9527483  38.5089231  62.8039408  58.8333130
  38.5202789  63.2695484  60.1598644  39.3494487  63.7869883  60.6193590
  37.3579478  63.2304573  60.9403896  37.3342586  63.7156200  61.9049931
  36.1903667  62.6248932  60.3524017  35.0500822  62.4935293  61.1018085
  34.3041086  62.3192930  60.5232191  36.2020373  62.1374750  59.0131903
  35.4064131  61.5295935  58.6083937  37.3513794  62.3028374  58.2179451
  37.2779202  62.0219755  57.1776915  40.2491379  60.4827452  58.2441473
  40.2343750  59.8360109  59.2926645  39.8705196  59.8857403  57.0743895
  40.0486279  60.3424025  56.1913013  39.2980742  58.5011578  56.9726372
  38.3950686  58.3227539  57.5564718  38.8831115  58.2342672  55.5098391
  39.7588873  58.3365726  54.8690176  38.5380745  57.2328806  55.2523899
  37.6414657  59.0640545  55.0636339  37.7497745  60.1347542  55.2367640
  37.4456286  58.7049484  53.5682487  38.0579901  59.3799067  52.9702997
  37.6392317  57.6452398  53.4020138  36.4604926  59.0348530  53.2384443
  36.3874221  58.6387300  55.7907963  35.5921173  59.3569660  55.5914497
  36.1332488  57.6713467  55.3575993  36.5527725  58.6021423  56.8675613
  40.3909588  57.4931765  57.4784231  40.0247812  56.4629078  58.0478811
  41.7180014  57.8229713  57.3958445  42.0398951  58.6160898  56.8597031
  42.7442741  56.8938446  58.0185747  42.3368692  55.9071589  57.7981853
  44.1193438  56.9737959  57.3734045  44.4709253  57.9901505  57.1958685
  44.8939562  56.6818953  58.0825377  44.1908789  56.0883570  56.0985565
  43.9543390  55.0374174  56.2649250  43.4498739  56.4365530  55.3789949
  45.5101871  56.1767292  55.3850269  46.2710905  55.8813334  56.1074305
  45.5682325  55.4425573  54.5814562  45.7777452  57.5079632  54.7744608
  45.8903980  58.2722616  55.4250431  46.0469246  57.7207947  53.4752989
  46.1386251  56.8571615  52.6163960  46.2428045  55.8995533  52.9200888
  46.2854624  57.0476103  51.6354418  46.1459494  58.9045477  53.0429554
  45.9665108  59.7127199  53.6215496  46.5004396  59.0632582  52.1106195
  42.9313803  57.0732212  59.5302248  43.0818176  56.0877180  60.2493334
  42.9009867  58.3648586  59.8373222  42.4375677  58.9502954  59.1571712
  43.2190847  58.8764954  61.2218142  44.1941261  58.4881592  61.5160894
  43.2590151  60.4122591  61.2065887  44.0149593  60.6463242  60.4570150
  42.2788334  60.8442593  61.0047817  43.8272285  60.9724188  62.5770235
  43.9140224  62.0486927  62.4280167  43.1011200  60.8381939  63.3788061
  45.2643919  60.5758190  63.0264807  46.0764408  59.9543095  62.3985958
  45.5085611  61.0169172  64.2485094  46.3869667  60.8247232  64.7084665
  44.8211432  61.6412258  64.6457386  42.2314787  58.3153200  62.2381926
  42.6707697  57.9622364  63.3415461  40.8913708  58.2246780  61.8641615
  40.6335402  58.7468100  61.0389280  39.8354530  57.6928663  62.7484798
  39.7272563  58.4143686  63.5583115  38.5312128  57.6688623  62.0082712
  38.6210823  57.2060490  61.0255003  37.8044915  57.0317316  62.5122929
  37.8960013  59.0975428  61.7994785  38.6168432  59.8108435  61.3998508
  36.8049741  58.7536573  60.6885052  36.0570312  58.1520700  61.2050009
  36.3986087  59.6872091  60.2993441  37.2420359  58.1955910  59.8604774
  37.1555471  59.7434092  62.9648685  37.8177643  60.0768805  63.7638474
  36.5093660  60.5273962  62.5700045  36.5523005  58.9595842  63.4229231
  40.1886272  56.3912964  63.3614016  40.2643967  56.2429810  64.6302509
  40.4437923  55.4355240  62.4976826  40.3399467  55.7667875  61.5492153
  40.9681416  54.0885544  62.7696466  40.2437019  53.6121464  63.4301996
  41.0498285  53.2090044  61.5051460  41.9113159  53.5944891  60.9598589
  41.3562441  52.1936750  61.7567682  39.8447251  53.1812906  60.5600929
  38.5613942  52.8262043  61.0539675  38.4485817  52.6237059  62.1087980
  37.4097514  52.6821947  60.2744579  36.4714360  52.3820686  60.7170630
  37.5198722  52.9681444  58.9208794  36.6412067  52.9862547  58.2931662
  38.7616158  53.3648682  58.3877659  38.8306975  53.6474133  57.3476744
  39.8813152  53.5011053  59.2111301  40.8433056  53.7520313  58.7892199
  42.2945786  53.9358187  63.4415245  42.4074459  53.0632639  64.3415833
  43.2949162  54.7744989  63.0553532  43.0689669  55.4310226  62.3218584
  44.6061850  54.8544884  63.6402607  44.9971437  53.8384151  63.5869074
  45.4754066  55.7429075  62.7827454  45.4860544  55.2880383  61.7922497
  45.1209116  56.7734241  62.7612734  46.9197655  55.6708336  63.1540871
  47.1008158  56.2255287  64.0747547  47.1844721  54.6261120  63.3171511
  47.8274679  56.2051344  62.1206999  48.8160801  55.7975054  62.3318624
  47.4371290  55.8184147  61.1793280  47.9240084  57.7027750  62.0203352
  47.1618795  58.2743406  62.3558521  48.8525391  58.3485222  61.3937187
  49.9602604  57.9371643  60.9004784  50.2304077  56.9648075  60.8599854
  50.7122755  58.6046648  60.9954262  48.6710310  59.6388292  61.2622690
  47.8284502  59.9929571  61.6920996  49.2823076  60.1679230  60.6568766
  44.5871067  55.2533245  65.1130104  45.2002192  54.5626640  65.9214735
  43.7542057  56.1466360  65.5224609  43.2376289  56.6675663  64.8282814
  43.4000111  56.4446688  66.9576597  44.3394899  56.7121792  67.4413109
  42.5542402  57.7193356  67.1154165  41.7433882  57.6839256  66.3878393
  42.0916367  57.9229164  68.5552597  42.8703785  57.7100515  69.2876148
  41.6478300  58.9040184  68.7243128  41.2567663  57.2739124  68.8196182
  43.2691669  59.0074158  66.5629435  43.4709835  58.8445711  65.5042410
  42.5861168  59.8557377  66.6064787  44.5709896  59.2793751  67.3264790
  44.9653912  60.2472782  67.0170975  44.4434023  59.1993713  68.4060287
  45.3347969  58.5652208  67.0187712  42.8092957  55.2680302  67.7056122
  43.3121824  54.8435593  68.8059807  41.7912769  54.6694136  67.1169758
  41.4511156  54.9058914  66.1958551  41.1277676  53.4533739  67.6923084
  41.0117340  53.7228060  68.7420893  39.7152066  53.3208227  67.0986462
  38.9716578  54.0750647  67.3562431  39.8412871  53.3994007  66.0188198
  39.0276933  51.9424009  67.3062086  39.7771716  51.1675119  67.1452093
  38.5062647  51.6993332  68.6967993  38.0618882  52.5970364  69.1266346
  37.8309441  50.8453703  68.7495613  39.3074346  51.4837217  69.4037199
  37.8320456  51.8710947  66.3767576  37.6115680  50.8428144  66.0901594
  36.9776893  52.2305012  66.9503450  37.9905295  52.4167776  65.4465914
  42.0640373  52.2373295  67.7485228  42.0200539  51.5918732  68.7812710
  42.9565382  52.1236372  66.7951632  42.9976034  52.7415371  65.9972811
  44.1168356  51.1714125  66.8806314  43.7975121  50.1401472  67.0310783
  44.7904873  51.1448145  65.5540943  44.0162802  51.1543465  64.7868824
  45.3864002  52.0464420  65.4124546  45.7163143  50.0138330  65.2199125
  45.2237129  48.7178421  64.9376583  44.1839886  48.5851145  65.1979780
  46.0285854  47.7179670  64.4583082  45.6550837  46.7119455  64.3365765
  47.3543262  47.9826450  64.1900492  48.1005621  47.3028755  63.8060617
  47.8746462  49.2353439  64.6091318  48.8758612  49.5696449  64.3806171
  47.0487690  50.2746868  65.0374937  47.4408674  51.2726355  65.1669312
  44.9688911  51.4645529  68.1605959  45.0953627  50.5805683  68.9944315
  45.4012060  52.7129364  68.2861900  45.1986933  53.2746887  67.4716234
  46.3472319  53.2144642  69.3230629  47.2647667  52.6349974  69.4253302
  46.7821789  54.7024918  69.1980839  45.9039402  55.3346682  69.0671253
  47.3028564  55.0459814  70.0919580  47.6935768  54.9055433  67.9620361
  48.6859274  54.5719433  68.2654285  47.4260521  54.2985678  67.0971012
  47.7613449  56.3131523  67.5447464  46.7727947  56.6019678  67.1877480
  47.9105330  56.9070864  68.4464598  48.7321711  56.4905787  66.4310360
  49.1402674  55.6918621  65.9666872  49.1228962  57.7492189  65.9599781
  48.5941410  58.9090061  66.3600731  48.0417681  58.9247894  67.2054911
  48.6927223  59.5978355  65.6280184  49.9872255  57.8092098  64.9882507
  50.4617834  56.9603682  64.7155619  50.3370142  58.6684370  64.5889044
  45.7813835  52.9938030  70.7677794  46.4502525  52.4823380  71.6780615
  44.5068121  53.2835436  70.8560610  44.1354990  53.7120438  70.0202322
  43.5100603  53.1283092  71.9827366  43.8737774  53.6010647  72.8950500
  42.1909285  53.7343645  71.4875841  41.8998241  53.2748032  70.5430365
  40.9645462  53.5891199  72.4404907  41.2755299  53.8429785  73.4538794
  40.1928806  54.2850733  72.1114254  40.6147146  52.5568962  72.4559736
  42.3557901  55.2124596  71.2837267  42.5443602  55.1726913  70.3432703
  43.2848835  51.6393566  72.4175453  43.2876110  51.3858652  73.6431408
  43.1469774  50.6874180  71.4806461  43.3303452  50.9650278  70.5270195
  43.0699539  49.2308474  71.7066574  42.4312735  49.0665388  72.5745249
  42.4374008  48.5770941  70.4620790  42.9961014  48.8638353  69.5711613
  42.5421286  47.4938107  70.4018307  40.9247112  48.8238144  70.2635574
  40.6624222  49.8210859  70.6167555  40.5407333  48.4911203  68.7600708
  39.4955707  48.7140751  68.5455179  41.1236286  49.1252947  68.0921221
  40.8483696  47.4564505  68.6086988  40.0847244  47.9106092  71.1421156
  40.2855158  47.9303265  72.2132826  39.0648079  48.2013798  70.8904791
  40.3884602  46.9067764  70.8451986  44.4507599  48.6770058  72.1264029
  44.5503521  47.7006149  72.8925133  45.5424356  49.3220854  71.6590357
  45.1643801  50.0371838  71.0542107  46.9811106  49.2189741  71.8990231
  47.4790144  50.1149511  71.5283346  47.2612810  49.2314768  73.3504534
  46.4801168  49.8331356  73.8150930  47.0620775  48.1939411  73.6186743
  48.6234093  49.5034838  73.7870932  49.1602802  50.5317926  73.3597422
  49.2261028  48.6383820  74.5960474  50.1532745  48.7484074  74.9812031
  48.7584066  47.7582788  74.7596788  47.6645279  48.1595421  71.0501337
  48.3109760  47.2709227  71.5683937  47.5895023  48.4048653  69.7396421
  46.8278027  48.9823008  69.4133234  48.1328678  47.5370979  68.6476088
  48.7697363  46.7250299  68.9983940  46.9840765  47.0330477  67.8844452
  46.3112211  47.8454876  67.6100206  47.4123192  46.5826368  66.9889879
  46.2151623  46.0406065  68.6588478  46.8138313  44.9381542  69.2710543
  45.8668184  44.2326689  69.9575663  45.9170103  43.3014154  70.5022240
  44.7358322  44.9267101  69.7576857  43.9139223  44.5798492  70.2312326
  44.8820877  46.0425234  68.8906145  44.1435575  46.8134451  68.7273455
  49.0747452  48.2730389  67.6946926  49.0776539  49.4901705  67.7066517
  49.8626041  47.5651979  66.8967342  49.9879551  46.5808201  67.0848656
  50.9969807  48.1751442  66.1925030  50.8694077  49.2576361  66.1870766
  52.2823906  47.7146864  66.7818022  52.5110579  46.6592026  66.6342831
  53.1689072  48.1204796  66.2944508  52.4929333  47.9988337  68.3086252
  51.8091059  47.4148035  68.9245844  53.4643221  47.6040411  68.6063623
  52.4752855  49.4428730  68.8529921  52.9671478  50.3792906  68.1933117
  52.0400000  49.6585846  70.0963831  52.3589802  50.4956913  70.5628681
  51.8258095  48.7831068  70.5521870  50.9774160  47.7312803  64.7461081
  50.6312656  46.5988016  64.3636656  51.4242983  48.6588192  63.8982439
  51.8961430  49.4811153  64.2465162  51.5542459  48.3911324  62.4725628
  50.6958628  47.8565454  62.0657444  51.7006350  49.7078562  61.6528273
  52.5915813  50.2374840  61.9901752  52.0145035  49.4599771  60.6388569
  50.4794168  50.5569363  61.5493011  49.5122576  50.1859283  60.6440544
  49.6945047  49.5653200  59.7791624  48.3250952  50.8738089  60.6112242
  47.5877285  50.6555223  59.8529100  48.1011677  51.9587469  61.5135527
  46.9115019  52.5611734  61.6319895  46.1479330  52.0495176  61.3549137
  49.0902328  52.2905397  62.4581337  48.9616728  53.0446243  63.2205248
  50.2905798  51.5547132  62.4789524  51.0176182  51.7854357  63.2435369
  52.8162909  47.4998760  62.1705151  53.8140249  47.9533768  61.6700697
  52.7077579  46.2118435  62.5220394  52.0431948  46.0824633  63.2715178
  53.7446499  45.1875210  62.3052263  54.6379805  45.7253838  61.9877768
  54.1705418  44.6281576  63.6680508  54.9788952  43.9073610  63.5450602
  54.5537758  45.4064417  64.3279791  53.0320835  43.8714743  64.3905354
  52.0724487  43.3426857  63.7573862  53.2360983  43.5534000  65.5954361
  53.3461857  44.1314936  61.2474632  54.2459965  43.3589458  60.8537149
  52.0917463  44.1969967  60.8551025  51.4277267  44.7957993  61.3247919
  51.5243340  43.4106922  59.7610235  50.5729628  43.8950396  59.5410299
  52.2879505  43.5519600  58.4709644  53.1678104  42.9552841  58.7116385
  51.7633724  43.0390358  57.6648474  52.5730658  45.0345993  58.0290079
  51.5510845  45.9055281  57.6912498  50.5433035  45.5194664  57.7328491
  51.7072868  47.2502041  57.3646164  50.9104633  47.9479837  57.1534777
  53.0230665  47.7686310  57.3494244  53.2244873  49.0731144  57.0796824
  52.4369097  49.6072912  57.2060919  54.0951300  46.9155550  57.6685524
  55.0737333  47.3665285  57.7417994  53.8964319  45.5589247  57.9962778
  54.7177792  44.8850155  58.1902790  51.0151577  41.9939375  60.1290798
  50.8985233  41.0931730  59.2847967  50.8276224  41.7071962  61.4341211
  51.0279083  42.3861122  62.1545792  50.5097389  40.2616024  61.9696903
  51.1522579  39.5235610  61.4895153  50.9390640  40.2478313  63.4555912
  50.2432299  40.7397556  64.1352415  51.1819220  38.8258266  63.9476633
  51.6379023  38.8843799  64.9359703  50.2193880  38.3182502  64.0109634
  51.8549204  38.2891965  63.2789326  52.1661568  40.8247471  63.8068056
  52.0736361  41.7799664  63.7822485  49.0152311  39.8839736  61.8914986
  48.2767773  39.8674941  62.8947639  48.5235500  39.6468353  60.6862545
  49.2350340  39.6392226  59.9694347  47.1568108  39.4784331  60.2922297
  46.5535975  40.1901627  60.8558607  46.8720245  39.5502043  58.8069630
  47.5116730  38.9442015  58.1653118  45.8963060  39.2354155  58.4368563
  47.2014475  40.8933306  58.1714153  46.3625288  41.9354248  58.5031652
  45.4385853  41.7712879  59.0377522  46.6921520  43.2369184  58.1128263
  46.0643053  44.0962029  58.2967663  47.8179216  43.4194946  57.2047615
  48.0656767  44.3953228  56.8138981  48.6970425  42.3574543  56.8998528
  49.5579100  42.3835802  56.2482214  48.4015656  41.0632277  57.4540758
  49.0555525  40.2562332  57.1583319  46.6121578  38.1029844  60.7447767
  47.3596096  37.1783566  61.0320997  45.2402639  37.9447699  60.8890820
  44.6863794  38.7854743  60.8082962  44.6464109  36.6813111  61.2750244
  44.9631834  36.4478421  62.2915125  43.1053209  36.7310548  61.1957026
  42.8255033  37.0144534  60.1810646  42.7342844  35.7181978  61.3524151
  42.4146986  37.7770305  62.0762396  41.1977720  37.8996754  62.0440340
  43.0960560  38.3208442  62.9603672  45.1274776  35.4899073  60.4140902
  45.4786062  34.4239259  60.9282684  45.2503347  35.6096339  59.1071749
  44.9543428  36.5008545  58.7353992  45.6103945  34.5447183  58.2186079
  45.0026655  33.6823893  58.4927511  45.2835655  34.7990966  56.7287683
  45.8302927  34.0034962  56.2226009  44.1985178  34.6968365  56.7109966
  45.7915592  36.0964084  56.1955309  47.0031643  36.2469816  55.5559540
  47.7386189  35.4898477  55.3273439  47.1785402  37.6130056  55.3458643
  48.0525446  37.9357982  54.9559641  45.9917212  38.3591962  55.5770636
  45.7342434  39.7735000  55.5527973  46.5830278  40.4278040  55.4191685
  44.4833279  40.2680492  56.0196877  44.3345737  41.3163519  56.2326097
  43.5881948  39.3811774  56.6005945  42.6990414  39.6928096  57.1285057
  43.9252520  37.9838204  56.7409515  43.1843328  37.3151112  57.1536016
  45.1367617  37.4363947  56.2502623  47.0956850  34.1331482  58.4656048
  47.4940443  33.1286860  57.8839874  47.8738213  34.8322129  59.2423868
  47.4596548  35.5549502  59.8135471  49.2785406  34.4720197  59.5722532
  49.7769976  33.9069176  58.7846613  50.1782894  35.6312633  59.8527575
  51.2026930  35.2590251  59.8413849  50.1602983  36.7428017  58.7873411
  50.3238535  36.3941789  57.7676296  49.1955900  37.2300792  58.9287567
  50.9833288  37.4056315  59.0545177  49.8739529  36.2667131  61.0873842
  48.9400530  36.4890385  61.0883045  49.3700743  33.6009765  60.8856249
  50.3314495  32.9498529  61.2241602  48.3081913  33.4692073  61.6329575
  47.4606895  33.9215469  61.3211393  48.1405830  32.6878333  62.9031754
  49.0202570  32.0588255  63.0396748  47.9019356  33.6760712  64.0490055
  47.6236963  33.1813145  64.9795437  48.8462639  34.1491675  64.3183136
  46.8712950  34.7859287  63.8474274  47.0573092  35.2190065  62.8646040
  45.8920813  34.3078804  63.8743591  46.7669344  36.2517905  64.9710846
  46.6051340  35.3526115  66.5983963  45.9516191  34.4993639  66.4167595
  47.5976419  34.9228716  66.7338514  46.2651634  36.0120058  67.3969746
  47.0301390  31.6491508  62.8881359  47.1690226  30.6392002  63.5285902
  45.8986092  31.7516637  62.1641541  45.7847643  32.5478315  61.5532064
  44.7894907  30.7815599  62.1409082  44.9300766  30.2828193  63.0998659
  43.3586693  31.5003061  62.1988392  43.1692886  32.0227051  61.2611103
  42.5766039  30.7462692  62.2877455  43.2695055  32.5428557  63.3739662
  44.1058254  33.2082033  63.1595325  42.0049715  33.3868575  63.2131052
  42.1566629  34.2724848  63.8301611  41.8814611  33.6638021  62.1661329
  41.1749792  32.8526425  63.6755228  43.1761599  31.8545151  64.7999907
  42.4410772  31.0513473  64.8516846  44.1783285  31.4688039  64.9870491
  42.9425573  32.6492548  65.5084515  44.9125099  29.6189451  61.1581612
  43.9886045  29.3088913  60.3996706  46.0239315  28.8641858  61.2400723
  46.7922688  29.1615367  61.8243170  46.2104130  27.7232409  60.3247738
  46.0816050  28.1980968  59.3521357  47.6556921  27.3091221  60.4331398
  48.3265495  28.1622052  60.3316402  47.9735565  26.9359851  61.4067125
  47.9995489  26.3725996  59.2322254  47.3827791  25.4738808  59.2348385
  47.7068377  27.0157814  58.4023237  49.4529200  25.9996867  59.1901302
  50.1203728  26.8274879  58.9506483  49.8104334  25.5810285  60.1308823
  49.4919109  24.8541689  58.1300879  50.4632139  24.3676972  58.2196236
  48.7844944  24.0439272  58.3066559  49.2779016  25.2607679  56.7197800
  49.8824739  26.0485458  56.5353775  49.5006752  24.4646621  56.1395311
  48.2862854  25.4412389  56.6547918  45.1501274  26.6218781  60.6507254
  44.6490908  26.4880991  61.7666769  44.8082972  25.9774351  59.5375109
  45.3364897  26.3936186  58.7839174  43.6483860  25.0997829  59.3290281
  42.8358984  25.4801559  59.9481297  43.2464933  25.0963688  57.8549242
  43.9035797  24.3619847  57.3890734  42.1987247  24.8318815  57.7123213
  43.5495186  26.3844800  57.0684719  43.1839991  27.3092270  57.5149441
  44.6275997  26.4806914  56.9396925  42.8933859  26.3675547  55.6627512
  43.4348965  25.9388566  54.6916628  41.6578388  26.8322968  55.5819082
  41.0702276  26.6214561  54.7879553  41.3308001  27.0293736  56.5169525
  43.9048815  23.6718154  59.8930979  44.7751904  22.9528451  59.2952681
  43.2538366  23.2272029  60.8382940  36.1851192  61.5496874  29.4935989
  26.0307169  37.2808981  36.0675597  66.5314176  23.8248115  52.2757292
  28.4620380  34.7820377  67.2413349  80.4326355  21.1061478  30.5583215
  66.5501451  74.7145987  47.4367809   2.8785926  24.9109030  42.8778219
  22.6214743  37.5409007  44.3605852  22.1821165  26.2592769  46.8820095
  54.3396282  34.0625572  59.2784214  63.1570816  52.4076509  39.1834259
  53.4174871  13.6123741   2.2571386  57.5029066  79.6072980   7.6392630
  11.9550192  20.0657964  69.1317177  12.8424394  20.3537798  69.3456841
  11.7433202  20.5256343  68.3193350  15.0087857   7.1366383  12.8899220
  14.7628664   8.0366970  12.6762608  14.4987463   6.9283749  13.6726788
  32.2863602   8.6503149  42.2375420  31.4370226   9.0011097  42.5054959
  32.6019263   8.1741358  43.0055931  30.6887698   1.4140822  61.6810158
  30.8424973   0.9137131  62.4824074  29.7365498   1.4966084  61.6291264
  31.6603922   5.7071997  55.5398300  32.1822047   5.0329663  55.1046875
  31.2906050   5.2670838  56.3051918  59.1605189  37.5410437   3.9337328
  59.7850802  37.5181322   3.2087258  59.4762733  36.8737610   4.5430496
  69.2070678  64.5058127  12.7563313  68.8670161  65.2261611  13.2870796
  68.6745169  63.7511226  13.0074528  27.0610833   6.9216734  55.2185488
  27.8696465   7.3590207  55.4853535  26.3770795   7.5763893  55.3589582
  69.6105721  62.6981302  21.4907673  70.3815177  62.6443501  22.0555618
  69.3354752  63.6131926  21.5474919  65.3952813   7.6548649  12.0038250
  65.8274579   8.1460835  12.7025059  65.1070904   6.8444134  12.4237564
  75.8779579   9.6551539  20.6836537  76.4704710   9.2930008  20.0248650
  75.2229028   8.9704348  20.8189133  85.1764157  61.5564915  13.7716892
  85.6089309  60.7473322  14.0444973  84.9501231  61.9953295  14.5917156
  51.9814896  14.3238951   8.5515764  51.3648486  14.7625376   9.1377381
  51.5000653  13.5651423   8.2217959  26.2612968  14.8859049  15.9455422
  26.6198807  15.3567339  16.6978481  27.0224076  14.4759585  15.5345848
  13.0164074   7.6521517  20.2407673  12.1730923   7.9405285  20.5898884
  13.6634039   8.1723286  20.7172516  78.9718199  34.4603992  66.4454222
  78.4038973  35.2290392  66.4991426  79.8507595  34.7997427  66.6143751
  14.3296837   2.6652838  35.4625538  15.2205395   2.5032355  35.7729557
  13.8973689   1.8131997  35.5198696  68.3214739  53.1388362  20.1039150
  67.6279261  52.9053231  19.4869068  68.9527181  52.4223872  20.0370815
   3.4171790  67.3922014  67.2372007   2.8929728  68.1748247  67.0671034
   3.6299723  67.0528412  66.3678408  52.3610234   6.2279726  16.1565808
  53.2557320   6.0402609  15.8728436  52.0225930   5.3840472  16.4557198
  51.1221102  46.9979765  30.0605038  51.5646007  47.4508949  29.3426541
  51.4979747  47.3809024  30.8531693  68.9295867  55.3295894  39.6215275
  68.2932117  55.7090278  39.0154865  68.6054280  55.5686267  40.4898670
  37.2965932  38.3890605  68.6175728  37.7653670  37.6159501  68.3032703
  37.6131320  38.5138059  69.5122623  55.5190372  49.9597931  61.8256426
  54.8179483  49.3085575  61.8501139  55.3873920  50.4832554  62.6161432
  84.5477491   5.4743506  31.3368157  84.1625457   6.1287524  30.7540444
  85.4542308   5.7596423  31.4513996  59.6731495   9.5073916  16.3782337
  59.3293404   8.6888482  16.7360237  60.3020787   9.8096968  17.0334271
  71.7561152  40.9004513  39.0893295  72.6567939  40.7300406  38.8136891
  71.2576917  40.9322533  38.2727459  49.9662640  77.0235940  31.7963913
  49.7881153  76.7601772  32.6992253  50.7818559  77.5218888  31.8487766
  61.1491611  76.4821144  34.8405579  61.6306808  76.2153192  34.0574959
  60.8276227  75.6619855  35.2150372  57.7006340  35.5334997  64.9320364
  58.2587099  36.0416985  65.5206919  57.3616219  34.8233724  65.4770327
  75.4602712  23.8526656  19.3781594  74.5573633  23.8895441  19.6938065
  75.6708055  22.9190279  19.3631581   2.9832670  67.3814078  18.1341103
   2.4117634  68.1486436  18.1030873   3.2056448  67.2856804  19.0601853
  69.4249299  70.2532740  13.5696533  68.9867881  70.8915444  13.0067375
  70.3569033  70.4495378  13.4740666  50.1220649   1.4058567  36.1838082
  49.4515371   0.7622363  35.9549454  49.6344274   2.2146393  36.3397339
  25.9347605   2.2403838   9.3354920  25.3948998   2.9153038   9.7469071
  25.4140353   1.9376637   8.5915592  33.5792923  13.0577481  51.3916159
  34.1611266  13.6628652  51.8515444  34.1622376  12.3832417  51.0431194
  23.1339240  34.2199446   9.9104717  24.0206217  33.8604285   9.8831108
  22.9105782  34.2359616  10.8411053   3.4181976   0.9010769  24.0825394
   2.6108932   0.4802300  24.3781307   3.3140158   0.9796454  23.1342724
   8.9656162  25.9445120  54.4511917   8.4932351  25.1579596  54.7239903
   9.1094327  25.8240630  53.5125473   0.9785482  38.3082432  39.8457077
   1.2057182  37.9057034  40.6839207   0.9794256  37.5813826  39.2228916
   6.1574292   4.1875197  24.4528225   5.5190801   4.4802166  25.1032665
   6.6471934   3.4931303  24.8934868  78.7968879   3.8703276   6.1883095
  79.0896850   4.7145678   6.5314606  78.9129000   3.2619025   6.9180992
  37.4186516  11.2040424  63.3519793  36.6149497  11.3061380  62.8422022
  37.5740814  10.2596736  63.3675241  63.3008694  33.4627654  15.3606537
  63.7392354  34.2217518  15.7453659  63.4833169  32.7468420  15.9692600
   8.8160059  75.9183427  40.8639363   9.3359491  76.7150255  40.9696987
   8.7221738  75.5739065  41.7520741   3.4806844  70.1439377  14.5428208
   4.1748544  70.5200311  14.0016010   3.8118049  69.2809196  14.7913960
  29.6555972   7.9457880   2.8211430  30.5469250   7.5980784   2.8505209
  29.2701935   7.6879288   3.6585215  26.0940051  11.4475895   6.9677761
  25.2922987  11.9695689   6.9998768  25.8360266  10.6394078   6.5244749
  80.5608636   8.8059260  37.9471520  80.8158427   9.1691328  37.0990399
  80.9580832   9.3945719  38.5889843  65.8792308  42.4992021   9.0001372
  65.6655624  43.0207699   9.7737911  65.2863648  41.7490952   9.0457562
  83.3144265  12.9508473  43.3803108  83.8910466  12.6251294  44.0714291
  83.7402230  12.6815678  42.5664261   3.4760496  78.9889165  36.4094094
   4.2928049  79.4543095  36.5898255   3.1177112  78.7898489  37.2743920
  40.1823496   8.9140965  22.1106270  40.3245806   8.7998940  23.0502823
  40.8865571   8.4130742  21.6991642  75.0579786  69.7822618  40.4914856
  74.9077129  68.9226866  40.8849144  74.2529011  69.9686146  40.0084162
  77.9481798  27.8536345  10.3361252  77.4362975  27.8678729  11.1448315
  78.8436084  27.6736857  10.6225804  37.7184510  15.4514290   8.6074236
  37.7805399  16.3481928   8.2784918  37.9787564  15.5148150   9.5263651
  75.3957676  20.2416016  58.3507565  75.7024884  19.9530341  57.4911717
  76.1461377  20.1084114  58.9299229  32.3746416  54.5889386  20.7008579
  31.9573805  54.1327437  19.9700955  32.4890920  55.4865952  20.3888539
   6.5911316  21.6908051  22.3794392   6.2727642  21.3423706  23.2121781
   5.8317661  22.1315886  21.9982460  71.9920924  67.0795723  39.3228939
  71.7475226  67.5173517  38.5075596  72.7836993  67.5342437  39.6107510
   6.0154220  75.3518577  22.7308586   5.1491090  75.0650330  23.0197647
   6.1214277  74.9585291  21.8646744  28.3051798  73.8395997  27.1068218
  28.9254305  74.4211956  27.5464371  28.8555547  73.2310315  26.6139153
  40.5563521   5.7104947   6.8901756  40.9911322   6.3134695   7.4931839
  39.8555636   5.3162409   7.4094942  56.0584784  31.6635180  64.2050457
  55.2116871  31.7709470  63.7718773  56.6665125  31.4583540  63.4948111
  52.0308518  11.8053175  56.5582016  51.1752390  11.9363142  56.1495426
  51.8374657  11.6970183  57.4893883  72.4709514  61.9064542   5.0267246
  71.6144946  62.2310658   5.3048399  72.8001597  61.4208098   5.7830313
  76.0766032  41.1052471  16.9586495  75.7311871  40.5061899  17.6204994
  76.8079665  41.5451092  17.3920754   2.6307630   2.1885134  33.9462784
   3.0639553   1.3417412  33.8388184   3.2697534   2.8264739  33.6285809
  26.7202303  73.2753988  20.6888703  26.7236253  72.9759355  19.7797325
  26.0833952  72.7093907  21.1251000  74.6513799  33.2425489  50.7637528
  74.1038659  32.5960996  50.3181484  74.8218587  32.8596284  51.6243008
  58.6379412  44.3052768  13.3130959  58.0576613  43.9910977  12.6196888
  59.5116880  44.0269469  13.0386284  52.7341771  32.5894238  17.2950485
  52.1043419  33.0799080  17.8232125  52.6901841  31.6966893  17.6375607
   8.4862873  80.6524678  27.2217015   8.2146665  81.5122672  27.5429466
   7.6665994  80.1758285  27.0906952  81.8001464  31.1171301  22.7191666
  82.1506598  30.6121661  21.9854191  82.0258668  32.0246317  22.5149086
  23.3440232  32.4992396  24.4197396  23.8231825  33.2436110  24.0556744
  23.9956450  31.8005539  24.4785526  79.7272876  76.6148349  20.5184200
  79.9908164  76.9827457  21.3618782  80.4937270  76.7303367  19.9567631
  19.1212821  13.9404370   7.7376059  19.1574120  12.9918648   7.8606251
  18.8396954  14.0536667   6.8297938  47.9246068  10.0991990  17.5090531
  48.3603215  10.3007103  18.3371666  47.1283936  10.6303383  17.5218895
  68.0308035  66.7700787  55.0604466  68.0353358  66.4794274  54.1484478
  68.0565384  67.7254673  55.0074795  81.3774875  72.0946952   3.5088614
  82.1882871  71.8861719   3.0448034  81.6670087  72.4908634   4.3307236
  24.5572686   6.7679001   2.9646853  25.0373625   7.5942494   2.9109553
  23.8229775   6.8777920   2.3605564  66.3576674  29.5613886  11.2030533
  67.0140826  29.4159819  11.8843773  66.1216855  28.6824633  10.9063366
  37.7309108  28.9147210  67.7337980  37.7251267  28.9685607  68.6894655
  36.8101192  28.8099051  67.4942350  14.7534677  74.3431707  42.2339848
  15.1486131  74.3541523  41.3622215  15.4986402  74.3455954  42.8347614
  65.0552442  45.7633324  31.5836838  65.7220724  45.1274850  31.8430546
  64.7729566  45.4739403  30.7160500  69.7440266  35.7990576  31.3547543
  70.4212117  35.4137303  31.9107846  69.8420739  35.3526951  30.5136898
  60.0399449  34.1677954  16.8487576  60.6833961  33.9179244  16.1856106
  59.8699739  35.0946041  16.6803292   6.4127752  79.3358107   4.1492489
   7.1868631  79.8732062   4.3172482   5.7819721  79.9401494   3.7579706
  73.1575727  22.3660398  56.3280392  72.9112577  21.4436078  56.2596226
  73.4990644  22.4574161  57.2175694  82.2806838  28.6135968  33.3699253
  83.1226209  28.6299129  33.8250092  81.8388989  27.8361090  33.7113503
  71.8077233  56.8582948  16.8533924  71.8103173  57.0937880  15.9256199
  71.0607245  57.3323651  17.2187451  50.1590249  77.0164672  14.1296208
  50.4542586  76.1159683  13.9948177  49.2696426  77.0323942  13.7761009
  80.3830528  21.7923450  43.6068773  81.2143135  22.2515893  43.7265682
  80.0230885  21.7144322  44.4903851   4.8205301  67.0986577  12.9467705
   5.1108572  67.5554605  13.7362507   5.1570818  67.6299616  12.2251919
   9.5774099  32.6603355   0.2871731   9.3603346  32.2871830   1.1414936
  10.4369327  32.2949078   0.0776032   6.6995975  71.4513918   1.8049172
   6.8118354  71.3710614   2.7521113   7.5896522  71.4165397   1.4544514
  70.7091239  54.8812469  35.2951172  71.1474374  54.3296858  35.9431103
  70.3331092  55.5981584  35.8058861  68.4728053  44.0636556  10.8455113
  68.3857229  44.7846805  11.4690331  69.3952849  43.8132637  10.8962086
  16.2251041  65.6499380  40.6966782  15.6147620  65.9383494  41.3753033
  15.6883762  65.1332111  40.0957251  13.5689470  49.4879540  32.7630833
  13.6077997  48.5404380  32.8932217  14.0952131  49.8494436  33.4762505
  52.5653890  30.8002528  21.1504677  53.2097080  31.2881734  20.6376103
  52.9129579  30.8088078  22.0422962  17.8871509  27.2534951  22.4809960
  17.5652620  27.4260445  23.3657864  17.1031639  27.0264836  21.9809368
  59.4405463  42.5925737  25.0384930  59.3671849  41.6918251  24.7230557
  60.2554348  42.6049188  25.5405262   1.6093609  67.7417513  13.1865719
   1.6282436  68.3679076  12.4628285   2.5122329  67.4322553  13.2591274
  65.7493856  69.6859308  14.6218231  66.2634566  68.9399262  14.3128899
  65.4158070  70.0942202  13.8229111  34.4897914  12.3684084  55.7933664
  35.1662397  12.9322755  55.4182577  34.9081039  11.9664967  56.5547562
  60.0193646  45.2095612  30.6840447  60.0716498  45.9052785  31.3393906
  59.5364096  45.6016191  29.9565342  65.8227825   5.8273709  36.7183185
  66.0024452   6.4058661  37.4594641  66.6735554   5.4472035  36.4994836
  77.8437379  15.5932160   3.7163666  78.0747416  15.4650112   2.7963474
  77.1522096  16.2548371   3.6997297  75.0420192  43.3608662  21.4823178
  74.4681409  42.7175543  21.8983010  74.4671777  43.8486554  20.8925274
  13.0384800  43.5827579  29.9275234  13.0533287  44.0599765  29.0978935
  12.4873516  44.1157480  30.5005863   6.4068624  47.3225262  15.9143952
   7.2838136  47.2976925  16.2972286   6.1705419  48.2500919  15.9170464
  50.3669908  63.5609814  27.7518872  49.6277931  64.0672251  27.4149349
  51.1138180  63.8493653  27.2271851   6.8864605  28.8596686  11.4981678
   6.7466804  29.4763132  12.2168091   7.7581760  29.0732666  11.1654213
  61.8944454  16.3611567  67.1487379  62.7427387  16.4246583  66.7098761
  61.4587259  17.1896505  66.9487953  32.1983955  69.5043642  59.3261242
  32.5493619  70.3913290  59.4057989  31.9867227  69.2489893  60.2240181
   7.9960367  62.5283427  67.7040386   7.1330759  62.6301760  68.1054831
   8.1796238  61.5909190  67.7653837  61.7360308  56.2506040   6.2409952
  60.9535244  56.2772497   6.7916372  62.0119598  57.1646102   6.1725357
  51.3304663  23.2775640  52.8319931  50.4081345  23.4772849  52.6718569
  51.3451195  22.3363042  53.0053377  45.1448774  17.9212248  53.9959860
  45.3224182  17.6904798  53.0841351  45.4005909  17.1446252  54.4937181
  49.0558651  55.0973244   9.7792128  49.2783001  55.1497157  10.7087353
  48.9742496  54.1596659   9.6049479  14.9255845  70.2205307  31.6628599
  14.0574453  70.4634554  31.3410616  14.8317668  70.2031822  32.6152945
  15.8099076  61.4320785  65.1147032  15.0430438  61.9005746  64.7850609
  16.5559051  61.8986089  64.7377825  81.0920146  55.1548930  10.8864144
  80.8744290  55.4919108  11.7554978  82.0302966  55.3199073  10.7935360
  81.0785249  59.2348333   7.4188975  80.7841351  58.6205514   6.7464236
  81.6099885  59.8735579   6.9437102  62.5769308  42.3109019  56.5612152
  61.9561270  41.9833526  57.2120217  63.4304455  42.0071848  56.8702439
  58.0481532  59.3258019  28.8204601  57.5297239  60.1234194  28.7143067
  57.5100401  58.7626620  29.3768242  63.6564684  18.5378337  63.2289839
  64.1200781  17.7831888  62.8659296  63.6053944  19.1595411  62.5029659
  54.7888231  28.6491203  51.0683155  54.3301105  27.8091359  51.0838032
  55.6985378  28.4217215  50.8761168  40.8529615  21.7035103  50.3848886
  40.3203487  21.7312765  49.5900393  41.0916376  20.7815599  50.4811811
  71.1891368  51.8500562  26.1770657  70.3853896  51.6153606  26.6409043
  71.1368277  52.8001304  26.0728863  14.8520991  62.3849828  69.7898865
  13.9578340  62.0584745  69.6903133  14.7473142  63.3192617  69.9698162
   1.7297863  11.0573985  24.7819451   1.3663482  11.1132409  25.6656960
   1.1842203  11.6465832  24.2609337  75.9901431  17.6490422   3.6382797
  76.3135102  18.5447856   3.7347964  75.8399155  17.5486131   2.6982954
  27.8441691  18.1921603   8.2420424  26.9421410  18.4956051   8.3444861
  27.9200720  17.9760195   7.3126581  74.0098765  58.1187745  18.1290844
  73.3991816  57.6322516  17.5753811  74.6033242  58.5471507  17.5121906
  41.4335060   6.1932480  55.3455830  40.7768488   6.3385057  56.0267067
  42.0260382   5.5409878  55.7193375  31.8021795  39.3051205   0.0045660
  30.9821150  39.7980711  -0.0224420  32.2208234  39.5811561   0.8199051
  29.3991110  73.2515379  24.5306042  28.5339185  72.9119368  24.3018368
  29.9762556  72.4894973  24.4812611  45.0604010  23.8683558  54.5923662
  44.3755388  24.5306373  54.4997549  44.6543598  23.1750536  55.1126480
  49.7140455  22.7021623  55.5055285  49.0784502  22.7001095  54.7898149
  50.1553202  21.8555617  55.4364061  52.0811033   6.0027796  66.9294119
  52.4630499   5.8908093  67.7999353  52.5969362   6.7031169  66.5298080
  66.3803434  29.9082780  59.3738222  66.1357832  29.5548940  60.2291250
  65.7444239  29.5289683  58.7672234  30.7036033  58.7606843  21.6199616
  30.2004653  59.5738228  21.6634396  31.5826994  59.0073236  21.9073513
  84.7769502  34.4031699   3.8198498  84.3891242  33.6293395   3.4111860
  85.6949189  34.3821837   3.5494354  35.9308430  57.3304101  20.7651451
  36.6602906  57.4477466  21.3737229  35.3330567  58.0504771  20.9661034
  78.0492118  74.4480892   4.7508600  77.5160745  74.9626585   4.1448763
  78.0130771  73.5566660   4.4040278   5.3374359  70.6526369  47.8317213
   5.4914567  71.5038771  47.4219656   5.7884166  70.7072777  48.6742544
  54.2983246  33.5717773  51.9687748  54.8743534  32.9861522  51.4773893
  53.5258675  33.0407810  52.1626472  51.5949249  16.6699696  55.5382967
  52.0180225  16.5340245  54.6905136  51.9549131  15.9824574  56.0986233
  12.3437664  35.9956052  10.6058052  12.8534481  36.1851080   9.8180512
  11.9940111  36.8450179  10.8748749  47.8150990  59.7342857  14.5293358
  47.3564771  59.8120948  13.6927727  48.6176589  60.2422663  14.4106606
  48.2514668  23.7729526  51.0490322  48.9457798  24.2111635  50.5569649
  47.5596905  24.4302416  51.1241913  52.0849398  61.3312503   4.9362162
  51.3420728  60.8763333   4.5394400  52.6352599  61.5833040   4.1946963
  84.3821099  71.1874171  18.2727841  84.8146584  71.8955680  18.7499169
  84.8640254  70.3996487  18.5245922  78.8111165  77.0703836  24.3377140
  78.4114125  76.2489672  24.6236256  79.7119382  76.8341418  24.1164902
  39.5182228  33.3860564  68.4361744  40.0781727  32.6834965  68.1058741
  39.6970439  33.4129906  69.3761349  31.0467863  25.2129865  65.3386211
  30.9351850  26.0131264  64.8252487  31.4336991  25.5090642  66.1625528
   0.3228351  68.8075300  15.2122620   0.9573814  68.5211798  14.5553044
   0.2895757  69.7591277  15.1143292   7.5629735   6.0153367  38.6130455
   7.7197980   5.0767018  38.7160423   8.4277415   6.4145161  38.7082413
  28.9848637   8.2964255  33.5185841  29.8561596   8.4189965  33.8954762
  28.4618258   9.0078570  33.8880757  65.3730300  73.5937401  23.8335922
  65.7348993  74.1936346  23.1813553  65.3336885  72.7485867  23.3859280
   6.4626428  70.7229539  17.6591900   7.1882078  71.0653730  18.1812409
   6.4407894  69.7880884  17.8635910  34.5624396  64.3485743  67.6137257
  35.4223249  64.0379817  67.3302364  34.7498414  65.1277131  68.1372309
  49.2488861  -0.0252034  64.6737385  49.3529510   0.3196779  65.5605650
  50.1166391   0.0623933  64.2793274  42.4884054  64.9669739  28.0722645
  41.5521642  65.1220818  28.1972340  42.9092333  65.4636260  28.7740257
  57.8527355  39.3456602  58.5600471  58.7024355  39.2980766  58.1218910
  57.8942394  40.1506042  59.0763569  44.1510102  77.6087693  58.8364267
  43.6439702  77.3531673  58.0658388  43.6303517  78.2987118  59.2476749
  70.7797578  35.5924426  18.8457993  70.6514933  36.1869713  18.1066635
  69.9282744  35.1718487  18.9654282  66.8668392  49.2174228  12.4971607
  66.0842231  49.3333371  11.9583634  66.6947701  48.4222921  13.0015400
   5.8595916  73.3054968  37.2937611   5.3550932  73.0095883  36.5360382
   5.4713508  74.1492291  37.5253227  55.6316233  11.7811000  48.9834690
  56.3821507  12.1465552  48.5150862  55.9521532  11.6365421  49.8737478
  17.3824546  57.9634184  60.6112099  18.3101794  58.1911272  60.5503464
  16.9565484  58.7696523  60.9024525  29.3969772  76.3854799  38.4672928
  28.5676953  76.5750403  38.9061403  30.0667045  76.6123555  39.1124511
  82.6283648  37.4859657   9.6464136  83.1045249  37.7151569   8.8483074
  82.4866250  36.5417953   9.5779732  27.4413753  36.1765218  63.3031178
  26.9231629  36.5536976  64.0140486  28.3467913  36.3930964  63.5257149
  68.5980394  42.9299680   1.1945847  69.1281751  42.3320742   1.7215708
  68.9072516  43.8024356   1.4383486  36.8128204  21.3953853  54.0199614
  36.9885731  21.6850662  53.1247330  35.8630466  21.2809443  54.0525579
  55.4330852  42.2495029   3.6953789  54.8600461  42.5262258   2.9803330
  55.8984449  41.4883563   3.3484990  17.6659033  70.9495874   0.6736401
  17.7787420  71.3488241   1.5362576  16.7209455  70.9693213   0.5223396
  81.6196969  77.7380224   7.0063904  80.8710769  77.4352022   6.4924839
  81.2511590  77.9513546   7.8636530  44.2567447  50.9934326  18.0934933
  44.1134992  51.1096795  19.0327481  45.1902345  51.1657306  17.9704502
  66.0604613   0.0755288  24.1817597  66.3210481  -0.5733679  24.8354080
  65.3879702   0.5984665  24.6182469  54.6951675  20.6169081  57.3444986
  54.2917013  20.6299734  56.4765835  55.6336975  20.6954384  57.1735382
  82.0882252  75.9910718  42.9730082  81.4563802  75.7528461  42.2945881
  82.6163128  75.2022726  43.0960941  86.0742098  24.9102522  19.3102291
  85.3013521  24.7757269  19.8587063  85.7209020  25.1074006  18.4427384
  80.6771949  49.0485223  34.5642880  80.8268836  48.4074404  35.2591541
  81.3965276  48.9070274  33.9488438  53.8314867  20.9129572  65.6208515
  53.5842943  21.6742444  66.1457968  53.9581013  21.2614322  64.7383738
  44.3287873  14.9032523  42.5102452  44.6328949  15.8096482  42.5571182
  44.8676943  14.5048500  41.8268040  59.7633839  35.5583262  62.8586340
  59.2182684  35.6354332  63.6416674  60.6198788  35.2869964  63.1888247
  83.2594636  46.4263316  11.8602493  82.4927523  45.9633144  12.1978977
  82.9503491  47.3184391  11.7026928   6.6759130  37.4765744  25.0066212
   6.8091747  36.5976130  24.6517971   7.2362491  37.5093605  25.7819775
  27.1400973  58.2647151  66.9918394  28.0202243  58.4360666  66.6568041
  26.8583820  59.1005892  67.3635626  67.0184231  17.8510654  61.0329199
  67.6245070  17.1759999  61.3381720  67.2274876  18.6189067  61.5648413
  64.8500395  31.3006568  62.9420233  65.0604677  30.5484676  62.3887014
  65.6141520  31.8725824  62.8694677  70.7956266  14.0216970  47.3522568
  70.8493757  14.4322038  46.4892244  70.1764011  13.3010006  47.2365332
  55.1418137  45.2868105  12.7195099  55.2416157  45.2999140  13.6714009
  54.1958546  45.2483870  12.5783756  47.8577423  32.5423145  68.6519527
  48.6426926  32.9146099  68.2500982  47.8010035  31.6573048  68.2917166
   5.8264994  17.6021506  37.3841313   6.7568516  17.3871113  37.3175362
   5.7856345  18.5435749  37.2159603  34.6756002  15.4577013  38.6143807
  35.2636644  14.9397989  39.1641072  34.4187090  16.1955996  39.1673210
  71.2160828  48.8276645  15.8546475  72.0070460  48.5025199  15.4246548
  70.9874919  48.1439467  16.4843395   6.1440059  71.4680548  28.5146740
   6.9036934  71.4937969  29.0964249   6.4003727  72.0012565  27.7622059
  85.3592014  31.8400288  51.2453318  85.0448895  31.4619851  52.0666218
  85.8929348  32.5876093  51.5145683  69.0903234  35.4456496  67.5666285
  68.5552788  34.7631145  67.9717255  68.4645128  36.1280513  67.3238897
  29.5303079  78.3639165   7.0883396  29.1777441  79.0485044   6.5197685
  30.4801103  78.4526583   7.0094612   3.0627271  56.1386557   2.1490362
   2.7321836  56.6503819   1.4107207   3.8001272  56.6492661   2.4833229
   1.8956539  73.7398501  20.3379372   1.1375209  73.2082649  20.0952748
   2.0615694  73.5164161  21.2537888  71.1312964  74.6496745  33.1017426
  71.6487124  74.6806141  33.9064530  70.2273658  74.7680326  33.3935097
  29.1963693  65.3860112   0.6417063  28.6807081  66.0269733   0.1523331
  30.0848982  65.7420250   0.6402138  66.6136932   0.8242205  55.7997036
  65.8943987   0.6876862  56.4163113  67.2349024   0.1233211  55.9973621
  82.4143794  45.1395651  35.6852081  82.7381757  45.4812311  34.8517540
  83.0828955  45.3902464  36.3227680  24.1929841   0.7526423  25.8563641
  24.2673754   1.7011668  25.9612396  25.0737595   0.4689385  25.6114605
  60.3537586  59.3118497  39.8529556  60.9505656  60.0592979  39.8158863
  60.7442739  58.6642118  39.2661885  72.2839117  27.3320818  60.9386253
  73.1857157  27.2717786  61.2538147  72.2386360  28.1835651  60.5037022
   6.8624183  69.2496558  24.7693279   6.6474125  70.1623483  24.9616745
   7.7186128  69.2899581  24.3432549  15.7138398  79.0953394   8.7846449
  15.7511559  78.9423366   9.7288016  15.1740208  78.3804746   8.4473112
  35.2941203   4.7610451  43.0049542  35.0660300   5.2463700  43.7978390
  35.6156992   3.9179589  43.3243588  18.8634845  58.4834894   6.2577227
  19.3879148  58.4852596   5.4569700  18.6156961  57.5670024   6.3797215
  14.1513511  59.5589753  15.4859951  14.1597101  59.4362911  14.5367268
  14.1112920  60.5079647  15.6045082  74.0521863  45.6329324  29.5321873
  74.9521306  45.3133272  29.4675186  73.5805753  44.9314158  29.9812916
  29.2831397   8.4002949  41.1700371  29.2585015   9.0236975  40.4440907
  29.2319989   7.5416066  40.7501820  81.5579989  72.8901907  23.0947331
  80.8867314  73.1380220  22.4589565  81.7664578  71.9808026  22.8807476
  17.2281906  51.9501611  14.1539410  16.7858717  51.1035236  14.2155102
  17.1643230  52.3184045  15.0351551  67.8738976  31.8653822  53.4060478
  68.4801912  32.2967720  54.0081644  68.0780506  30.9337354  53.4872055
  75.8588028  11.7087328  64.7473097  74.9294090  11.9326746  64.7953320
  75.9465170  11.2251484  63.9259148  51.0923100  11.4321864  58.9142704
  50.3254938  10.8804774  58.7598610  51.2558365  11.3573229  59.8544264
  61.9307831  62.8231211   3.5912111  61.1474970  63.1427785   3.1434229
  61.6930964  62.8223630   4.5184305  68.3854437  31.6264772  58.8583803
  67.6574135  31.0689282  59.1328621  68.0709124  32.0570254  58.0634403
  24.2711946  50.3008105  21.5877846  24.4879457  49.7212883  22.3181275
  24.2233202  49.7207852  20.8278397  41.4601183  28.9371634  59.8062897
  42.3801422  28.8853955  60.0653458  41.4453268  29.5870996  59.1037273
   9.5036527  29.4386490   2.4549607   9.8438522  29.2868157   1.5732315
  10.0109121  28.8485022   3.0123165  84.1509628   9.8525524  26.2408590
  83.3920479  10.4280174  26.1454034  84.8493767  10.4272056  26.5542793
   6.2876433  31.2291265  54.0458393   6.6745013  30.3590465  54.1435194
   6.6208285  31.7247415  54.7938919  52.4630120  55.0662943  19.0698651
  53.4089878  55.0610693  19.2159298  52.3651412  55.2787741  18.1416920
  17.6372835  76.6604229   2.1404293  18.3897325  77.1488066   1.8064621
  17.6310608  75.8511039   1.6293600  29.2570996   4.4914421  63.2577085
  29.0991497   5.2062982  63.8743639  28.9545250   3.7078893  63.7167597
  85.1484492  74.2299767  15.2522686  85.7157472  74.4618436  15.9875515
  85.3199342  73.3004471  15.1012734  73.5286811  49.5044221  27.2928360
  73.1280997  48.6586048  27.4937370  73.2951405  50.0623043  28.0347660
  66.2964037  79.6132632   0.9492758  65.8436301  80.2992340   1.4398602
  66.1834410  78.8248201   1.4801529  38.1893158   4.7277257  62.6196003
  38.1999159   4.5930141  63.5672140  38.6190367   3.9505732  62.2623825
  64.7175455  33.1874847  59.0561724  64.2964125  32.4391580  58.6332130
  65.3863192  33.4700584  58.4323740  79.7309783  16.3369389   5.5352143
  79.1621163  15.9517928   4.8686627  79.2986777  17.1567818   5.7743910
  48.7488317  10.6496382  68.4870148  47.8055429  10.7285750  68.6291742
  49.1189003  11.4323223  68.8952875  76.0862112  51.2348175  31.8103266
  75.2432728  50.8437824  32.0400572  76.4244080  51.5779924  32.6374221
  75.6698659  61.5814062  21.6720036  74.8320439  61.2970706  21.3067177
  76.2701228  60.8597370  21.4846066   3.2876510  41.0004377  50.5766058
   3.1651801  40.6143808  49.7093153   2.5560683  41.6101503  50.6728554
  44.7363520   3.1068730  61.6914654  43.8456964   3.0146408  62.0297861
  44.6205473   3.4191039  60.7940626  43.8274670  39.6420956  66.5894794
  43.5048771  40.0931787  67.3696709  43.1787252  39.8387408  65.9136915
  78.7315350   3.0445315  20.2077797  78.1275135   3.7730004  20.0638321
  79.5479994   3.4612538  20.4833821  13.4184286  55.5222996  32.8366593
  14.0364191  55.7827028  33.5196808  12.5680944  55.8255812  33.1547478
  71.2690070  55.6671198  28.3327416  70.6459239  56.3574441  28.5595730
  71.0570433  54.9481066  28.9279869  76.4896777  62.2602220   4.1060427
  76.2736752  62.9328080   4.7519568  76.6899207  61.4828988   4.6274880
  65.5570844  70.2705737  11.5579537  64.9790051  70.7046791  10.9305695
  65.4900649  69.3405529  11.3416222  85.2198842  43.9986702   8.1944683
  84.6344664  44.4509598   7.5870493  85.1322034  43.0729993   7.9671410
  58.2619527  27.4795194   4.6613434  58.0487135  27.7675470   5.5489281
  58.0778935  28.2412191   4.1116503  27.7674147  72.3260852  10.6825569
  27.9253477  72.5179644   9.7581795  27.6492367  71.3767072  10.7133129
  20.4638791   7.4869467  15.5149487  20.4600214   8.3219410  15.0469712
  19.6095347   7.1005656  15.3224781  57.7836084  16.3005602  67.0691109
  58.2291889  15.8568513  66.3474369  57.7711153  15.6551588  67.7758884
  84.4880536  67.8884574  22.3686531  84.9139169  68.2350202  21.5845898
  85.1349023  68.0060359  23.0643585  59.6143198  22.3768353  63.8685465
  58.8867760  21.9654083  63.4020281  60.3037453  21.7128158  63.8704109
  56.9482994  33.4175730  60.9561968  56.8615198  34.0505505  61.6689682
  56.0786963  33.3851337  60.5574894  24.1421601  62.9126531  45.9402847
  24.8999593  63.1687481  46.4660120  23.7180135  63.7399835  45.7125664
  59.6099999  76.5712877  26.3766030  58.8854244  76.1187740  25.9447983
  59.9092486  77.2132059  25.7326916  59.7906351  43.5164738  64.6402454
  60.1680470  44.2559624  64.1638565  58.9612532  43.8501263  64.9823475
  75.1482821  15.4912722  30.2627873  75.2186632  15.6806719  29.3271565
  75.5590200  14.6327293  30.3649235  14.1856786  58.1124731   0.5229977
  14.9222585  58.0328747   1.1290911  14.5507833  58.5602756  -0.2401563
  66.6994670  76.2073370  11.1534050  67.2531774  76.0187145  10.3957394
  67.3150471  76.4462038  11.8464020  54.5216444  50.9799333  20.3091744
  55.0285151  50.2595456  20.6838158  53.7213018  51.0077258  20.8334854
  46.6236496  31.6068387  53.2150364  46.1524534  31.3919258  54.0200329
  46.0224342  32.1712327  52.7290010  22.2324252   1.4084794   9.9241379
  21.7250466   1.8410756  10.6109169  22.9305768   2.0290877   9.7151783
  36.0287496  51.3025566   3.4912422  35.9270021  50.3827335   3.7357882
  35.1580927  51.5698024   3.1966761   2.7069160  60.7105394  10.7981327
   2.2965929  61.5233870  11.0933426   3.0251142  60.9089657   9.9174526
  33.4073376  35.3663613   0.5703238  34.0126538  34.8407723   1.0933760
  33.9719510  35.8655001  -0.0198433  82.8466511  42.2373247  53.6612749
  82.8780365  42.1790075  54.6161795  82.6189613  43.1500769  53.4844160
  12.7833008   9.3008782  12.7895573  12.2214436   8.5489394  12.9770020
  12.1808457   9.9806668  12.4876240  53.2860661   2.0729481  66.8153286
  52.8029966   2.4810734  66.0967827  54.1699839   2.4334422  66.7448997
  12.0285865  69.8951312  14.4949654  11.4226267  69.1575046  14.5653465
  12.0078870  70.1345440  13.5684231  22.1782851  26.1898829   8.9378479
  22.9330134  25.7337882   8.5655621  21.4381527  25.9055211   8.4015921
  23.0472967  63.5434290  30.3041962  22.7486154  64.0444895  29.5452717
  23.0463239  62.6338239  30.0061157  43.0557775  64.6700144  46.2689066
  42.5875282  64.8730803  47.0786858  43.9811897  64.7393942  46.5035105
  62.2465372  50.8241415  61.9820118  61.5156507  51.4374352  61.9051886
  62.8339863  51.0604858  61.2641859  13.2172799   1.6100432   2.5937870
  12.3439240   1.2965132   2.8286865  13.5042405   2.1129776   3.3559826
  26.9553301  79.9471803   2.3628596  26.2368604  79.9063679   2.9940298
  26.9462415  79.0915008   1.9339541  54.0135312   2.2204663   2.6466492
  53.9153599   2.8273894   1.9130018  54.4301056   2.7406622   3.3337429
  75.2503493  62.8802439  45.8858040  75.1371625  62.0581170  46.3628033
  75.3337672  63.5445352  46.5699032  69.7666788  21.5725064  57.1048594
  70.0535583  21.1925364  56.2744665  69.2085934  22.3078132  56.8516827
   3.2098982  69.5357033  32.2727230   3.2806560  70.2853032  31.6816834
   2.4434873  69.0553017  31.9595841  25.6141877  39.8195291  64.3022013
  25.7799125  38.8933372  64.4780827  26.4853168  40.2056694  64.2113018
  79.6206191  66.6450496  19.2300156  79.6506026  65.6927486  19.1380528
  80.1476863  66.9727608  18.5012940  68.5229328  67.8121086  13.6075619
  68.5465148  67.6778575  12.6601151  68.9226010  68.6720963  13.7376240
  19.5557806  48.3090838  12.8136185  19.9928352  48.4034874  13.6599663
  20.1677772  47.7983459  12.2836712   8.7438726   7.3828532  15.1126698
   8.9629960   7.2552229  16.0356644   8.1052613   8.0958821  15.1144818
   9.2180654  55.0560733  14.1689327   8.8881036  55.7727154  13.6269215
  10.0572702  54.8224934  13.7721852  66.9281816  12.9970837  50.1418877
  66.3814116  13.7821472  50.1727152  66.5747643  12.4875450  49.4127131
  71.6497758  62.0270010  23.0016258  72.1727088  61.8776437  23.7893227
  71.4090255  61.1496635  22.7040508  72.5949144  77.3670340  62.1874523
  72.6610422  78.2728958  62.4895620  72.0938015  77.4218988  61.3737535
   2.4000377  32.5789690  65.6028986   2.0595664  32.7170062  66.4867878
   2.1322268  33.3598518  65.1184082  20.6823846  74.7569915  10.4125813
  21.5970680  74.5726295  10.6261090  20.2383920  74.7795339  11.2602738
  24.0936399  19.0131998  65.7123756  23.8930774  19.5990515  64.9824524
  23.2903934  18.5091507  65.8426142  85.2032521  74.4912000  36.6427735
  85.3109458  75.3844162  36.9695786  86.0225585  74.3032666  36.1849049
  76.8103498   0.5292727   4.6320036  77.2407931   1.2153984   5.1420811
  77.3430329   0.4491784   3.8407591  19.4705507  44.5138698  10.7553795
  19.9098560  45.3207054  10.4865673  18.5375044  44.7227611  10.7104233
  78.5007286  29.0927267  67.4007654  78.9007235  29.7756433  66.8623781
  77.6968098  29.4909620  67.7344656  82.0939922  12.6543987  65.4799271
  81.5637302  13.4471905  65.3990459  81.5800858  12.0793355  66.0468817
  45.0327894  12.3038822  50.7674074  45.9484789  12.1160656  50.9734917
  45.0086137  12.3584037  49.8120642  67.0924714  79.1634889  26.6045883
  67.1863892  79.6146031  25.7655934  66.2777999  78.6680766  26.5202740
  59.2676308  53.1429215  10.5441406  58.4845975  53.2260545   9.9999169
  59.0900352  53.6954447  11.3053349  58.6549496  15.3279139   4.3418673
  59.3186497  14.7930838   3.9063290  58.2497239  14.7369076   4.9764803
  12.6553270  35.7795702  13.2979229  12.6750824  35.9554457  12.3572281
  11.7256376  35.7959609  13.5251740  83.3737469  74.3824911  57.0830631
  84.1021252  73.7895870  56.8982506  83.4703541  74.5987606  58.0104923
   1.5163153  39.2694616  58.0114412   2.0216864  38.6254215  57.5154161
   1.7557448  39.1101670  58.9244175  51.6253111  54.2877026   6.2306669
  52.3840257  54.7208174   5.8395270  51.7658159  53.3566733   6.0584000
  67.3122597  45.7587051  52.7731466  67.2486782  45.0326777  52.1526051
  67.0699739  45.3752565  53.6160564  64.0931820  44.4740321   2.2797087
  64.6526932  45.2487685   2.2252300  64.6386933  43.7608267   1.9480446
  77.2684240  21.6412449  60.1597595  77.6376867  21.9357681  60.9923029
  77.4773979  22.3431420  59.5433950   9.7649974  31.8165183  53.1227350
   9.1167563  31.5277052  53.7650776  10.4733580  32.1887064  53.6480331
  10.7861253  70.8952065  12.1757630  10.7888338  70.5134698  11.2979820
  11.0404846  71.8080612  12.0407417  38.6450791  21.2457205  31.9026306
  39.0886712  20.4187705  32.0913437  37.7188515  21.0618426  32.0592240
  33.4413027   1.4427258  30.3975037  33.0976271   1.7897345  29.5742729
  33.3890271   0.4922368  30.2971676  80.9455967  51.1673450  55.8029699
  80.9901333  52.0587301  55.4570198  80.8422565  50.6146622  55.0283146
  54.2456844  71.1324139  14.3839482  55.0594118  71.4294692  14.7911862
  54.1441491  71.6931363  13.6148480  16.5325331   7.0389582  39.0170983
  16.9602227   7.8045680  38.6334923  17.2241044   6.3792111  39.0690544
  66.9730949  35.9258366  56.0173512  67.0539713  35.0734639  56.4453173
  66.2813425  35.8027840  55.3672981  33.9146590   1.6998412  19.8046616
  33.0079960   1.5059496  20.0425747  33.9059662   1.7500569  18.8488224
  17.8173753  77.2825642   4.6508482  17.2841045  78.0538626   4.8430613
  17.6177189  77.0747562   3.7380579  66.2367081  32.7128865   5.9655550
  65.5462574  32.3552348   5.4073504  67.0508980  32.4711348   5.5240849
  10.7466480  42.0627189  16.7117241  10.5072042  42.9000457  16.3144997
   9.9521085  41.5324898  16.6501263  16.1630362  45.0646257  60.7039070
  15.5898970  44.4396734  61.1479568  16.4161891  44.6232367  59.8931551
  74.5267487  58.7201548  60.6303120  73.6586428  59.0384817  60.3827429
  74.8350000  58.2419252  59.8605680  62.8119135  23.3972549  66.9677639
  62.3391962  22.5653434  66.9413757  63.6124277  23.2025075  67.4550867
  85.2762750  51.9341703   4.0975550  85.8290770  52.2842487   3.3989218
  85.8435204  51.9220503   4.8684767  34.3998360   7.1302630  23.9881638
  35.0517058   7.3163105  24.6639469  34.8981976   7.1200396  23.1709889
  20.5898356  22.9488636  30.7638481  20.6215453  23.5023285  29.9835232
  20.0680565  23.4491517  31.3912895  84.9496892  55.9755524  -0.1628038
  85.8012154  55.7402201  -0.5312559  85.1331570  56.1769172   0.7548168
  23.8009334  51.5903902  66.5668392  24.0927267  52.4299240  66.9221878
  24.1354871  51.5806007  65.6700611   0.4564020  65.4381104  29.0438202
   0.6458399  65.0485440  29.8973873  -0.2356938  66.0755177  29.2197350
  76.4952469  28.1170988  55.5087996  76.3119316  27.3008132  55.0437117
  77.0035648  27.8478861  56.2738943  81.1417916  53.6121281   0.9938029
  81.8139985  53.1853529   0.4625490  81.5061095  53.6213537   1.8789128
  75.7993319  77.0854207   0.1167801  75.8322957  77.4433800   1.0039166
  76.7147115  77.0479937  -0.1605579  17.2716257  60.3209873   7.4246386
  17.8636619  59.6972092   7.0043734  16.4290163  60.1795491   6.9930866
  62.2842121  35.2219129  49.6405125  61.7310429  35.9264612  49.3030930
  62.2817945  35.3489733  50.5892372  75.3331616  59.3564184  32.5583676
  74.8408797  60.0699075  32.1523789  76.2366727  59.4975694  32.2755650
  27.1823618  46.6861983  28.5844830  26.2637636  46.7667653  28.8412312
  27.3507234  47.4624528  28.0503300  14.7957584  74.6493741  12.5566605
  15.0278351  75.1916667  13.3105114  15.2984401  75.0199147  11.8312386
  67.6821375  25.8813667  63.6933947  67.0690632  25.5918646  64.3690872
  68.0271864  25.0704694  63.3197403   0.7795286   1.9004275   5.8136585
   0.7060122   1.1010767   6.3350609   0.1205444   2.4885107   6.1826161
  43.5182309   4.3529250  14.8143986  42.8395533   4.5126797  15.4702309
  43.4630417   5.1047827  14.2245701   5.9191817  52.7089310  41.5819025
   6.4835280  53.4022379  41.9240618   6.3506240  52.4247360  40.7761002
   4.6723005  18.9539762  26.5403584   4.3217489  18.0656334  26.6050652
   4.3459961  19.3978401  27.3231343  18.1236431  43.4661697  33.2621887
  18.5225317  42.6181657  33.4571484  18.5566827  43.7555884  32.4591091
  78.6265469  32.0655298  58.2464170  78.7557507  32.0861959  59.1946316
  77.7076674  32.3044086  58.1246328  13.6010050  14.5446373  34.5683983
  13.8076233  14.9057700  33.7063530  14.3227219  14.8319508  35.1276997
  56.3589907  53.7000656  45.5218554  56.0941315  54.6171761  45.5924654
  56.0488033  53.4269810  44.6584654  59.1979718  16.4528777  25.0682095
  59.9223923  16.5730406  25.6822136  59.6221756  16.2604739  24.2319897
  52.5268555  18.6176109  57.6229858  52.2720575  17.8911841  58.1918573
  53.4826756  18.6356521  57.6711273  53.2320878  78.9692754  65.2214909
  53.7087724  78.7589485  66.0244608  53.7300679  78.5376239  64.5272827
  73.8888600  57.7110155  22.6086357  73.6596253  57.6653918  23.5368660
  74.3727639  58.5322841  22.5215271  18.1488105  66.5435382  31.9749096
  17.5915500  66.0119696  32.5433472  17.5348684  67.0326420  31.4271095
  28.2148096  64.9262305  10.8038357  27.6090833  65.6339689  10.5837658
  28.1732103  64.8634120  11.7580631  18.0826354  20.7399918  13.4590748
  17.7381396  20.0558926  14.0331486  18.6490416  21.2646843  14.0248612
  57.0849251  18.5088517   5.6292561  56.3282609  18.0548455   6.0001543
  56.9939827  18.3927514   4.6834877  22.6936552  63.1168743  12.3398140
  22.3651287  62.5976225  13.0737618  23.2146379  63.8076039  12.7493218
  16.5820193  19.6020771   8.6660603  16.2163996  20.2412964   9.2775753
  16.0050988  18.8419367   8.7407997  26.6856455   4.8691536   1.6665915
  27.1787619   4.6596219   2.4597910  26.8072867   5.8115126   1.5508726
  82.5935748  62.0947142  19.2307690  82.8916791  62.3573204  20.1016358
  81.9091704  61.4465566  19.3972424  21.2269425  10.5157496  27.3404339
  21.9696497  10.8974101  26.8725136  21.5092206  10.4865242  28.2545975
  24.8243546  26.6238238  36.9068173  24.5770764  25.7532383  36.5951088
  25.5646872  26.4670254  37.4929455  18.0770370  68.8795467   2.3956087
  18.5457918  69.5206137   2.9299620  17.8892395  69.3406721   1.5780953
  40.5810091  60.3880294  18.5223702  39.6441099  60.2358814  18.3986405
  40.7276556  61.2699433  18.1803921  33.9362642  59.8926278   8.6518267
  34.0875837  59.6128615   7.7490166  33.3567545  60.6504603   8.5738018
  58.6814427  27.5404049  10.8272961  59.0275216  26.7087056  11.1509159
  58.7312722  27.4659754   9.8742989  60.5431843  38.7098408  58.2165003
  60.3751326  37.9738808  58.8050175  60.8234692  38.3021069  57.3970938
  83.2982543  65.2336188   2.9414728  83.0596116  64.3378325   3.1799057
  84.1314032  65.3862711   3.3873299  28.8517403  36.3712241   5.3923157
  29.7988486  36.4674546   5.2924994  28.7479710  35.6333758   5.9931782
  48.6168360  21.7976357   5.5523709  49.2034554  21.0455347   5.6327036
  48.2191729  21.8848254   6.4186791  80.6293586  75.3857871   3.8090733
  79.8603108  75.0341435   4.2575625  81.3621095  75.1717587   4.3865660
  80.1609444  28.6663748   8.8180235  79.2162346  28.7560536   8.6926392
  80.2933526  28.8140465   9.7544506  72.7031946  54.3176270  46.8353224
  72.0441532  53.7253428  47.1973944  73.5401964  53.9240122  47.0817566
   4.1695136  45.7873106  32.0281005   5.0544757  45.9987354  32.3253965
   4.2986316  45.1492119  31.3263965  84.1188004  80.8493920  25.5633095
  84.5337870  80.2267428  24.9663761  84.3814328  81.7087670  25.2335575
  24.8454305  75.1697059  29.6416119  25.3535101  74.5251866  30.1342324
  25.5009576  75.7675525  29.2823055  24.3072146  44.2501020  67.5796080
  25.1386756  44.1087484  68.0322886  24.2240447  45.2020121  67.5231600
  24.6639847   2.2931839  23.1441525  25.3883910   2.2295929  23.7665871
  24.9585843   2.9355885  22.4985913  70.0064847  75.2437038  60.8667326
  69.5539663  75.9884611  60.4707575  69.6551797  75.1951266  61.7558098
  41.7984411  79.4073435  15.5709675  42.1995756  78.9335485  14.8423794
  40.8800623  79.5021673  15.3183487  46.7585635  19.2340590  29.9753311
  47.3449730  19.9486376  29.7268704  47.2034287  18.8016011  30.7042435
  64.4422057  62.0852180  28.7684468  64.9108079  61.7666288  27.9969910
  64.1124204  61.2929650  29.1924885  10.3296777  34.2548211   2.7813318
  11.1695978  34.1444953   3.2269695   9.8725530  33.4258880   2.9232338
  67.3359105  59.2811722  58.0941057  67.5304124  59.7849435  57.3037767
  66.7389009  59.8389477  58.5928011  73.5490802  59.6747692  11.4829949
  72.8113749  59.3992205  12.0271424  73.6805632  60.5961724  11.7065170
   6.7010662  75.8310314  11.8534687   6.4630243  75.8981057  12.7781704
   7.5048277  76.3449021  11.7751721  30.4071307   6.6672398  15.1466397
  30.4791665   6.2700774  14.2787102  29.5109057   7.0013977  15.1834992
  76.9340086  25.5418015  59.9872780  76.9963026  26.4088106  59.5864677
  76.0214090  25.2833748  59.8584270  75.5487442   1.0086205  55.9290600
  76.1851883   0.3116939  55.7694960  74.7986460   0.5625515  56.3222647
  58.8716912   9.0573431  22.6156834  58.7783265   9.6942736  21.9072846
  59.7209763   8.6453368  22.4569443   2.8855869  62.2268029   3.7164715
   2.8162405  61.3208648   3.4153107   3.2295486  62.7044626   2.9616478
  78.6116460  75.1544400  17.3076561  77.8287604  74.6069856  17.3677853
  78.3229735  76.0183473  17.6018742   8.5224792  77.0799490   5.2098253
   8.7888071  77.0082899   4.2932203   7.6027700  77.3425265   5.1721838
  40.3290787  62.2402831  13.9194897  40.1144090  62.8681870  14.6093300
  40.3807416  62.7682062  13.1227043   3.3963367  53.5465463  18.3580902
   2.6068470  53.9130517  17.9598358   3.4465620  53.9637478  19.2181233
   6.2970084  68.0284834  58.0547857   6.1629409  68.6103249  57.3066378
   7.2435969  68.0351448  58.1967688  83.2361126  24.2485118  60.2841997
  84.1551495  23.9900708  60.3535938  82.9092789  24.2147470  61.1832380
  51.3923073  69.7883129  59.7275972  50.9204054  70.4046202  60.2876902
  50.7057524  69.2566824  59.3248034  42.5993561  18.5444619  36.3018254
  42.8330922  17.6539017  36.5635422  41.7242407  18.4609152  35.9231022
  64.7058058  31.4725447  65.6710577  64.7447872  31.4280033  64.7156858
  63.7926674  31.2786984  65.8828020  31.2553617   4.3967014  57.9945755
  31.6552278   4.4221931  58.8638830  30.3494951   4.1324859  58.1552744
  16.7838928  62.8493758  31.7527607  16.4038726  63.0210872  32.6143482
  16.1438295  62.2870990  31.3164166  10.3834173  67.8789731  14.0114525
   9.9657127  68.4415408  13.3593300  10.6943390  67.1237083  13.5123184
  84.5096111  72.2475338  51.4917850  84.6407127  73.0635214  51.0088634
  83.5941124  72.2780657  51.7695713   3.2242939  79.9801036  19.3851307
   3.2271454  79.1441317  18.9188984   2.3044988  80.2448364  19.3965653
  84.2989159   2.7203691  31.2689972  83.9098835   2.5286409  30.4156923
  84.5728588   3.6354449  31.2071705   0.8386344  28.0482173  53.5909605
   0.7090110  27.1099734  53.4526539   0.6721515  28.1779456  54.5245981
  44.6308398  32.3696066   3.9784744  45.4281640  32.3335530   4.5068768
  44.4262528  31.4535548   3.7908056  24.5625281  31.7613055   7.0644358
  24.2140030  32.3693634   7.7163771  23.8743376  31.7001034   6.4019564
  42.6413702  36.7952372  13.5967568  42.1753191  37.5333573  13.9894512
  42.8645110  37.0944573  12.7153328   0.3697273  80.1711317  19.0819672
   0.0077507  80.8925267  19.5965412  -0.2455500  80.0617905  18.3569077
   5.3029078  15.8868086  66.5823698   4.3781871  15.9201610  66.8273306
   5.6079215  15.0418627  66.9129229  11.5771171   0.7339626  48.4311199
  10.8457205   0.1172882  48.4626961  11.2129518   1.5546375  48.7629509
  72.2187138  39.7325110  55.1782990  72.5352573  40.6346989  55.2240610
  72.6328278  39.3728900  54.3938160  33.1296846  48.3166446   0.5593041
  33.3927175  48.8280084  -0.2059099  33.4087679  47.4234482   0.3579500
  73.4557819  34.4679523  68.6997271  73.7014914  35.1654124  68.0919361
  72.6390553  34.1173291  68.3443975   1.3210601  51.4769220  55.0097704
   0.8135241  52.2706699  54.8406410   1.5400237  51.1427546  54.1399336
  19.2714524  19.4721199   8.8267401  18.3163189  19.4346739   8.7762097
  19.4737410  19.2192198   9.7274903   5.3809089   6.3124603  57.5963545
   6.1168879   6.8495154  57.8898525   5.0468558   5.9062761  58.3961391
   1.6424197  16.1723363  64.9110413   1.1284560  16.9024491  64.5660543
   0.9948748  15.5906665  65.3092670  42.2996497  11.4095665  28.3115318
  42.9050421  10.8434321  28.7903050  41.7559266  10.8054854  27.8058842
  26.7079660   0.8353763  41.4347029  27.6208135   1.1096054  41.5227032
  26.5764257   0.7398945  40.4914045  15.9948036  58.0499824  27.8711632
  16.8263170  57.5841864  27.9597786  15.6804535  58.1519266  28.7695053
  48.8567709  65.9463431   0.4295376  49.4678282  66.5272356  -0.0236818
  48.0031180  66.3658167   0.3220823  37.8415319  61.3174887  26.2122086
  36.9885561  60.9344645  26.4170578  37.8608343  61.3617893  25.2562264
  25.9003949  18.8588025   6.1716917  25.5361342  18.8277937   5.2870491
  25.5616116  18.0715443   6.5979365  44.4557783  46.6570111  15.2202919
  43.8727209  47.1470036  14.6404865  44.9190065  47.3301895  15.7187775
  71.6959906  54.5979977  55.9974957  72.5374460  54.3772507  55.5981731
  71.8027449  54.3720341  56.9214916  83.7116074  24.2229678  23.6125115
  83.4118390  25.0956227  23.8671616  83.0548787  23.6287142  23.9755562
  51.5036129  24.0099551   6.7446402  51.2160992  23.7987114   5.8564118
  52.3496079  24.4418169   6.6262034  59.0838837   1.5414883   1.2427405
  59.3296933   1.3285567   2.1429995  58.3270001   0.9838273   1.0628346
  45.2858353  26.1386323  47.1344566  45.2070475  25.2096581  47.3513222
  45.4156542  26.5714073  47.9783106  75.9409618  59.4204378  49.6554470
  75.7488489  58.9047623  48.8722467  75.2137327  59.2340565  50.2492714
  67.7213240  63.7443876  62.0445442  67.7457428  63.6574936  61.0916090
  67.6777649  64.6882105  62.1979475  84.3878269  56.2626505  53.1325865
  84.7596741  56.4902258  53.9847469  84.2026806  55.3255749  53.1945848
  38.7167665  47.1644320   6.0126188  37.8895590  47.0190253   6.4717797
  39.1814634  46.3308748   6.0865286  82.3042583  47.4990702  48.5301065
  81.3748264  47.2851801  48.4486914  82.6486778  47.4126530  47.6412058
  21.8793749  12.3729397  10.3296402  21.5305542  11.5848423   9.9131516
  21.8906664  12.1651055  11.2639359  74.5313263  21.5603399  50.3858757
  73.7510157  21.5544987  50.9402323  75.0061703  20.7666087  50.6323433
  13.9971179  29.1392708  48.1997585  14.5310801  29.6101880  48.8395643
  13.0945700  29.3100548  48.4689569   0.4380053  78.6776924  47.3842430
   0.3224582  77.8303719  46.9542074   0.2898520  78.4973335  48.3125496
  38.8168830  33.9029646  65.7911396  39.5585460  34.5080304  65.7989645
  38.8234729  33.5047221  66.6615343  40.8108401  25.8806540  14.0293530
  40.6500840  25.2493693  14.7306851  41.7625451  25.9815194  14.0113953
  27.5955316  76.9939681  19.3219307  26.7116090  77.3351999  19.4578770
  28.0924055  77.7415796  18.9896229  55.9645891  62.0564699  54.8105526
  56.8935394  62.1072817  54.5853758  55.8580399  62.6792002  55.5296421
  41.7119408  34.7766042  44.3084955  41.7005157  34.6267223  45.2538204
  42.6222992  34.9976873  44.1120338  65.7163668  22.9850197  58.0301523
  64.9548817  23.4449267  57.6768064  65.6806278  23.1510949  58.9721584
   8.4064886   3.4800406  10.4715660   8.9353010   4.2101665  10.7932881
   7.5919840   3.5357686  10.9712723  80.7258797   2.1579230  41.7314959
  80.3375721   2.9966679  41.4825869  79.9880171   1.6370673  42.0485210
  13.0094621  78.4401641  62.0015860  12.6342389  78.5494498  62.8753662
  13.8032481  77.9247016  62.1445465  38.3394859  73.1040109  25.0651145
  38.0997417  73.7862975  24.4380260  39.2958877  73.1304718  25.0938511
   8.0225965  72.5853582  10.0970200   8.7365457  73.2017108  10.2601650
   7.2532865  73.1394335   9.9651268  56.0293558  54.8491712  14.7091511
  56.1461904  55.6481882  14.1951969  55.6871751  55.1530572  15.5498627
  68.5393980  50.1519736  22.1141937  68.8075641  49.7419866  21.2918595
  67.7028945  49.7379943  22.3265866  50.6669331  21.5496159  46.7799139
  50.9877110  20.6500077  46.8434620  49.7356653  21.4873934  46.9922876
  51.3020086  28.9724541  66.8908548  51.1566019  29.8830986  67.1473980
  50.4850340  28.7096858  66.4668989  59.4659948  36.3952327  45.5549431
  59.3766832  37.2201371  45.0776720  58.5932207  36.2288499  45.9110498
  65.7654550  44.9449577  10.9397057  66.5633490  44.5200100  10.6250408
  65.7020572  45.7481362  10.4228714  59.7050378  80.2375084  40.8715248
  59.1205976  80.9647605  40.6575871  60.5222318  80.6577981  41.1394596
   2.0254172   5.0724339  54.4923067   2.2581436   5.6950814  55.1810598
   1.3472739   5.5186963  53.9851570  41.9052649   0.3447345  61.6227055
  41.6709566  -0.5735712  61.7570400  42.7572966   0.3133471  61.1876297
  72.0541671  38.0349587  32.7821949  71.3484433  38.3112437  33.3668831
  72.6297047  37.5060626  33.3346966  52.1492386   8.2188010  34.8945308
  51.1969995   8.1914419  34.8011112  52.2944641   8.6230803  35.7499266
  41.4475391  77.4368862  25.6651711  42.3443553  77.1125845  25.5828142
  41.1444375  77.5348616  24.7625303   2.4891278  54.4637842  56.5280485
   2.8467009  54.4740695  55.6402063   1.8428847  53.7577385  56.5178204
  50.3378487   8.4497714  68.7795162  50.5949211   8.3458292  67.8633595
  50.0061703   9.3459523  68.8350153  46.7240068  52.1692761   1.5210703
  46.3344499  53.0415293   1.5814665  46.0950967  51.5952774   1.9583586
  81.3109589   4.9286065  40.7704830  80.5692768   5.4259235  41.1151791
  81.3190460   5.1284766  39.8344183   8.9559743  76.8207232  37.4534011
   9.6910140  76.5514526  38.0042553   9.2833564  76.7342544  36.5580940
  54.0301275  17.8052962  51.0844231  54.6929693  18.4956193  51.0662746
  54.2777061  17.2550046  51.8274689  48.7751150   9.7389865  58.2116461
  48.7524700   8.8385832  58.5356712  48.7972832   9.6501642  57.2588348
   1.8543407  36.8842204  14.3749836   2.3510667  36.7828726  15.1869038
   2.5207445  37.0255845  13.7025574  45.9378910  11.6902149  69.5383596
  45.6889868  12.5018656  69.9805117  45.6839895  10.9976053  70.1483250
  71.8590691  47.7556266  11.0357788  71.0484460  48.2610651  11.0961941
  72.4753907  48.3428206  10.5980709  43.7067080  26.2638474  67.8246975
  43.5570812  25.3313708  67.6687098  43.7935352  26.6421461  66.9497204
  26.5880868  60.3921527  68.5960102  25.9775874  60.5623645  67.8786898
  26.9324777  61.2548060  68.8272142  63.0170968  38.7116048  13.0861881
  63.2780674  39.2965888  13.7974671  63.8290670  38.2793260  12.8214768
  39.2919254   4.6843123  39.1874981  39.2422986   5.3939819  38.5470796
  38.5099673   4.7947070  39.7284102  16.4846727  42.4838187  12.7000454
  16.1836406  43.2906940  12.2822407  17.1946260  42.7637418  13.2778385
   0.9924552  50.6098241  49.9274063   0.2950666  51.2585611  49.8324394
   1.0669324  50.2096719  49.0610552  19.9924490  49.1910030  26.4886120
  20.6889459  49.5921101  25.9687737  19.1833946  49.4621052  26.0548237
  59.9225524  56.7575415  17.6082733  60.7522443  56.4982339  18.0090264
  59.8007300  57.6679822  17.8775147   0.5753824  57.4197144  50.6121969
   0.1671598  56.7479963  51.1584425   1.5049693  57.1915264  50.6065941
  58.6479690  17.0993729  21.2770870  58.2566622  17.8452822  21.7317608
  57.9275611  16.7216345  20.7725552  70.7313540  25.5319937  32.5575760
  71.0023883  25.9418257  31.7361096  69.8145917  25.2957304  32.4163178
  27.7732298  46.6376223  11.2748364  28.5791608  46.7117371  10.7637528
  27.2433111  46.0007580  10.7954338  63.8983896  29.2997547   6.2484577
  64.0783289  28.6983259   6.9710472  63.5077217  28.7489732   5.5700377
  75.3770354  55.2724000   2.7568081  76.0404828  55.2854021   3.4466627
  74.5435336  55.2442320   3.2266072  70.3786137  37.4626746  16.8634632
  70.2152732  37.2661020  15.9410122  70.3481725  38.4180655  16.9137982
  58.4740305  31.1913228  55.4026127  58.5018635  30.4227042  55.9724236
  58.5335922  31.9356942  56.0014439  72.0187140   8.8268441  41.4561176
  72.8715515   8.5741884  41.8097639  71.5327501   9.1536570  42.2132587
   2.7463695  75.4731365  15.3689411   2.0887872  75.9062763  14.8246983
   2.3609802  75.4595609  16.2450245  79.0386489  68.2312604  23.1248596
  78.7820723  67.3092123  23.1098870  78.3392670  68.6666008  23.6122826
   6.0701388   4.8936108   7.5919563   6.2955684   3.9846197   7.3940945
   5.1726645   4.8513922   7.9220933  37.8348109  73.5281671  58.7997913
  38.4222743  72.9112608  59.2363071  37.5389859  74.1122008  59.4980907
  86.0096550  40.7085466  26.1558366  86.4164734  41.5081120  26.4896393
  85.1361179  40.7029009  26.5471625  39.6636081  16.4440453  41.6122293
  40.1234770  16.6948867  42.4133730  39.2728209  15.5944371  41.8163967
  82.1000197  66.0808297  24.4654110  82.0518258  66.2775203  23.5298851
  82.2560218  66.9289966  24.8807553  35.8659789  66.7722613  61.6237307
  36.5335986  66.8904287  60.9480476  35.8574578  67.6026160  62.0998335
  30.1427671  68.2341429   6.3125017  30.3367159  67.4712082   6.8570593
  29.2252847  68.1234093   6.0631207  69.2363548   7.5056803  65.8540773
  68.7862444   7.0408839  65.1486778  68.6480188   7.4287450  66.6051912
  29.9911830  76.1655883  50.8133173  29.1994188  76.4279426  51.2828970
  29.8185584  76.4019684  49.9019670  41.6866443  67.1907181  20.7542396
  41.5755031  67.7305395  19.9716330  41.1234376  66.4315659  20.6035256
   8.7644309  32.3971915  23.2800007   9.4015044  32.8694582  22.7439642
   8.2672042  31.8713808  22.6534891  16.0527152  34.2114711  36.3696170
  16.9841021  34.1763425  36.5875673  15.9537238  33.5976911  35.6418061
  73.8317871  16.1626196  50.8242369  74.7344589  15.8672094  50.9431934
  73.2980061  15.4448855  51.1650610  80.1031494  48.5860395  42.9548550
  81.0295391  48.4194803  42.7808094  79.8576307  49.2596579  42.3206711
  46.4559480  59.2288299  10.0180367  46.4041826  59.9315818   9.3702009
  46.1570093  58.4491714   9.5500639  54.9697304  25.7863975  55.2762318
  54.5565081  25.8939576  56.1329174  54.7048950  24.9120164  54.9906588
  25.4724881  66.2265760  58.9535904  25.7706306  67.1110136  59.1659927
  26.2707421  65.6983454  58.9532852   3.6277598  11.4093828  52.6818848
   4.1610068  12.0988250  53.0775452   2.7517051  11.5478611  53.0418444
  33.0486009  58.8537402  68.2604933  33.4488628  59.1157717  67.4314213
  33.7383983  58.3731551  68.7181520  39.8295137  66.9786568   6.9822863
  40.3152010  66.1964460   6.7205837  38.9871999  66.8984886   6.5347222
  64.2956305  32.8443670  55.5255508  64.4785213  31.9766402  55.1652288
  63.4967756  32.7267528  56.0395861   4.6445102  30.6529260  49.7975445
   4.9068183  31.4226151  49.2925644   3.7106055  30.5524302  49.6132517
   2.4924966  24.8831721  34.2280415   2.8981039  24.9055155  33.3613136
   1.7941353  24.2333504  34.1489914  67.3373127  41.9938946  53.8737726
  68.2511139  41.7328072  53.7596273  67.1117687  42.4395800  53.0572414
  53.6244297  25.2974820  57.5885153  53.3445835  24.3975377  57.4211168
  52.8318214  25.8208108  57.4696350  24.5395395  67.1238824  20.1031998
  24.0994093  67.0120879  19.2605713  24.2560598  66.3718530  20.6231240
  73.7222290  69.2714643  53.1330299  73.5746813  69.7596312  52.3229933
  72.8524685  69.1872692  53.5237408   5.4365728  45.2652306  24.5649672
   4.5016095  45.4612774  24.6252894   5.5901930  44.6169633  25.2522683
  52.5038838   9.3907668  13.6145428  52.3224568   9.7898270  14.4654682
  51.9494080   9.8726632  13.0009011  28.5181281  73.2178105  66.6956615
  28.4336087  73.6051852  65.8244419  28.4815213  72.2736443  66.5425539
  57.2489834   4.0666056  60.8235693  57.6379442   4.1189942  59.9505329
  57.7902699   4.6439841  61.3619757  66.4876654  59.5625575   9.8611334
  67.2690442  60.0368639  10.1452378  66.4662531  59.6831127   8.9117935
  41.5214514   8.3972956  16.6804627  40.8324360   8.3982922  16.0160187
  42.1888375   8.9897658  16.3343266  73.2552913  77.6151439   0.0659636
  72.6745942  77.0345326   0.5578163  74.0925982  77.1519395   0.0416067
  70.5421019  20.8914161  54.5075512  70.2761364  21.7177272  54.1041851
  70.2341080  20.2184868  53.9004755  82.9909992  21.7212844  52.2755718
  82.2154617  22.2393560  52.0602274  82.6933765  21.1152506  52.9540777
  63.7001944  20.3286815  61.0465384  63.6106014  21.0628057  61.6542101
  64.1729498  20.6933737  60.2983856  73.3435011  27.6953578  50.0663280
  73.3159018  27.6806688  49.1096401  73.1640911  28.6068201  50.2971506
  73.1515837  17.9675996  19.4507146  73.2246208  18.8970256  19.2337656
  72.5766230  17.9446650  20.2156472  63.7214899  13.0386293  51.5272331
  63.5877323  12.1329534  51.8066788  63.4482670  13.0490792  50.6099129
  54.7817945  16.9102561  60.9203291  55.6674767  17.2085011  60.7133341
  54.8589182  16.5153158  61.7888403  11.1364669  28.7141657  60.6442451
  11.8958777  28.7862062  61.2224579  10.3840083  28.8583970  61.2180376
  14.2048809  53.0796679   3.5238341  14.1323778  52.2133537   3.1232384
  14.6432754  52.9210444   4.3598202  67.4873209   3.3079010  45.9505320
  68.2085943   3.2003188  46.5705538  67.8863621   3.7302166  45.1898432
  73.0645657   2.1230534  34.5754385  72.4593067   2.6942936  34.1026020
  73.6072969   1.7306827  33.8915372  31.6154430  74.4150109  40.9628439
  31.5489576  74.1246200  40.0531816  30.7101104  74.4417543  41.2725019
  14.1865989  48.0107369  12.1394852  15.1314899  47.8824349  12.0561054
  14.0337106  48.0583211  13.0832031  20.6701201  28.7086368  43.5863352
  21.3566703  29.3036366  43.8877535  20.0091666  29.2823339  43.1987190
  16.2214491  65.3983255  20.1571301  15.5170175  65.1303025  20.7471874
  16.8180677  65.9028741  20.7100418  50.7714486   2.3790528   4.5955733
  50.2320694   2.6869227   5.3239420  50.5830740   2.9899098   3.8831166
  49.6591759   0.2826437  43.8978291  48.8313437   0.7499444  44.0098810
  49.6914148   0.0729632  42.9644346  73.9372208  63.7102242   0.5363539
  73.4284356  64.3162771   1.0749319  74.3680671  63.1332298   1.1669710
  58.4216166  11.1896718  64.4629765  58.6493301  10.4987216  63.8409090
  58.5857821  10.8017421  65.3225040  81.4112186  25.6767893  55.7878447
  81.6028500  26.6115284  55.8638096  80.4576588  25.6219029  55.8507347
  71.2793115  59.8883375  -0.1296922  72.2075942  59.9701341  -0.3483888
  71.1702874  60.4238816   0.6561449  47.1841478  59.1661358  68.7290239
  46.5953493  58.6692667  69.2970657  47.2804976  60.0125027  69.1656113
  18.2453081  48.8104810   3.2325628  18.9593097  49.3800809   3.5189036
  17.9031107  49.2329671   2.4447611  56.9958782  11.3221097  44.1982698
  56.5693665  12.1539426  43.9924145  56.2784529  10.7414269  44.4519281
  12.9623720  80.0610967   9.7101191  12.0294115  79.8755570   9.8168400
  13.0841562  80.1401707   8.7639979  35.4673958   8.7394685  43.4354830
  34.7016931   8.1754237  43.3269310  35.8429623   8.4744966  44.2751074
  54.7801587  77.7425996  60.0724411  54.4009397  78.5678730  59.7701931
  54.4938275  77.6665819  60.9826422  44.4783282   3.1181218   1.7709139
  43.8064408   2.6458336   1.2792328  44.7670245   3.8110949   1.1770466
  79.0438128  25.6085372  50.4434013  79.4377661  25.8327270  49.6003246
  79.7311831  25.7892370  51.0845757  76.6769218  18.3858931  66.8554306
  77.0417261  19.0583706  66.2801695  76.2680101  17.7576232  66.2601995
  12.6573202  67.1959492  18.3283451  12.1150324  66.4412256  18.0991200
  13.5221788  66.9851681  17.9764679  71.2790012  25.2806616  23.6646199
  71.8913507  24.5962834  23.3946538  71.1178255  25.7858038  22.8676963
  56.1871576  23.3985233  61.7492199  55.3387594  23.8413715  61.7308044
  56.7406845  23.9636779  62.2881460  71.7495206  41.5103393   7.1007326
  71.7267039  40.6902975   7.5939301  71.1210826  42.0767117   7.5485256
  41.2002444  36.5196492   7.0830086  41.7369198  36.0547949   7.7249840
  41.0675072  35.8859517   6.3780001   3.2935831  41.7154494  10.6759098
   3.0735513  42.6370402  10.5399445   2.4567863  41.2966181  10.8773545
  62.2708559  55.6634951  46.0240173  62.1121645  55.7601786  46.9630098
  61.9821310  54.7733545  45.8227205  74.4269228  31.2615108  47.8858519
  75.0985098  31.7745233  47.4363852  73.6145687  31.7441559  47.7329969
  79.0805343  66.6926165   5.2379873  79.7826817  66.5285846   4.6084574
  79.2002442  66.0219928   5.9104231  21.9815272   9.1823173  54.1519833
  21.4880198   8.4437871  54.5087004  21.7940539   9.9064863  54.7491980
   7.6168224  43.4284880   3.8899544   7.8552219  42.5274431   4.1079357
   7.4605867  43.8464554   4.7367886  27.5029108  59.9955209   6.8235043
  27.1755811  59.2593284   6.3066748  28.4135553  59.7692772   7.0126274
  44.2914102  69.5802838  45.1610470  44.3850419  69.1558272  46.0138655
  44.8884532  69.0998144  44.5875311  63.3342099   2.5651385   0.5786493
  62.9152226   1.7163922   0.7211951  63.2594227   3.0136372   1.4209631
  10.4614827  74.4232017  61.7486286  10.6832502  73.4949202  61.8217325
  10.3513596  74.7151316  62.6535511   6.1562940  53.9854523  17.7130821
   5.4533741  53.3403333  17.7902630   6.6088411  53.7508102  16.9029167
  85.1353362  51.1243065  20.7382611  85.8614781  51.1878212  21.3586739
  85.2205804  50.2498140  20.3584889  38.1203341  19.9037039  56.0358286
  37.9568291  20.4222393  55.2480364  39.0091515  20.1420903  56.2992811
  57.0266079  10.2978541  18.2870320  56.3774514  10.0192667  18.9329651
  56.7723774  11.1929823  18.0626705  15.1055261  75.5522056   5.6011179
  15.2984211  75.7656070   6.5140751  14.6599981  76.3288279   5.2626017
  23.4683439  56.4517124   8.3711556  23.5199758  57.3929044   8.5376623
  22.7900240  56.3638039   7.7015379  12.4787161  21.4160093  27.1203259
  12.3403331  22.3616274  27.0665959  12.7410480  21.1616846  26.2356022
  45.3479692  40.3709514  15.1408222  44.9263403  41.0294832  14.5887402
  46.0860559  40.0572885  14.6182564   7.0927713  69.9337930  61.2838984
   7.5670716  70.4720623  60.6502247   7.4944827  69.0680332  61.2109566
  22.5965139  46.1835881   0.2018479  21.9825908  46.7905803   0.6152323
  22.4468443  45.3503205   0.6484965  53.9259624  21.8695688  22.4277544
  54.3402767  21.2506175  21.8265247  53.2837963  22.3326659  21.8898010
  76.2172055  15.3327824  18.1781414  76.1826157  16.1509062  18.6738327
  75.8655953  14.6745182  18.7775448  40.0612638  66.6111929  58.3147907
  40.3622052  66.2622971  57.4757814  40.7220647  66.3234717  58.9447117
   2.1512767  38.0843448  24.7082165   2.3738405  37.7725687  23.8310078
   2.2231504  39.0370171  24.6492127  68.5339668  68.0912991  10.7538059
  69.3300917  68.5347172  10.4609040  67.8616455  68.7724992  10.7403687
  78.9188623  42.3050213  67.1133518  78.7419081  43.2455587  67.0957661
  79.8629856  42.2415972  67.2577286   6.6467398  59.8067760  38.9839029
   6.0419768  60.4395342  39.3713474   7.1092910  60.3009510  38.3070946
  62.0937824  17.7301514  53.2130766  62.1018648  18.4914851  52.6329613
  62.7883911  17.9053891  53.8479328  31.2877369  15.0201225  47.9235220
  30.9449410  15.6648886  48.5423899  32.0938230  14.7025287  48.3304501
  51.2589455  56.4905691  47.5167465  50.4717541  56.8492126  47.9265499
  51.7592239  57.2600174  47.2449017  31.6962433   3.2431233  45.2277517
  32.0754719   2.4547973  44.8392153  31.6692519   3.0582649  46.1665440
  77.0250034   6.2017673  53.6502886  77.1590805   5.9087610  54.5516253
  77.6260614   5.6662416  53.1324339  25.8156988  76.5807553  31.9540909
  25.0809976  76.4553662  31.3534859  26.3808271  77.2144719  31.5122154
  35.1675054  38.4081972   3.6547306  34.7260973  38.7889785   4.4139412
  36.0666582  38.7311496   3.7135437  22.4517748  54.8578199  29.8402146
  22.7579710  54.2631539  30.5249432  21.5479299  55.0580915  30.0835064
  29.1373083  59.9931272  10.1774529  28.7951681  59.7030195  11.0230377
  29.8876115  59.4217058  10.0138691  54.8029613  15.9958589  52.7460384
  55.7354069  15.7818222  52.7149773  54.5122719  15.6766474  53.6003399
  38.5544727  80.0905949  29.3782783  38.3411023  79.3029197  28.8780046
  39.4637677  80.2815079  29.1481423  15.5115863  63.2348128   9.6656635
  15.4859564  63.8291903   8.9158037  15.8459303  63.7707873  10.3848198
  47.1988914  69.5501370  58.5652256  47.5894973  69.7754318  59.4095612
  47.8544709  69.8145825  57.9198503  58.7899828  11.8913507  58.6201620
  58.9609051  12.1571255  57.7166224  58.9944124  12.6679802  59.1410112
  83.1325391  62.5347610   2.9535273  83.4232667  61.6754766   3.2590321
  82.1888688  62.5392838   3.1138495  69.7067595  45.1777983  39.2117906
  69.8341894  46.1170053  39.3455434  68.7607527  45.0516129  39.2851043
  80.2662277  13.3691692  46.6663504  80.0724030  14.1780913  47.1399593
  81.1077785  13.0806029  47.0195389  35.8536339  10.6375778  39.7830510
  35.0182009  10.8517873  40.1982594  35.9083915   9.6832728  39.8334074
  83.6711314  20.1930638   2.3971346  83.6587909  19.4441410   2.9931143
  82.8326800  20.1473375   1.9376353  30.7701442  68.5652239  23.3948755
  30.8382842  68.1217415  22.5493526  31.3653466  68.0815989  23.9676547
  58.5746098   0.5613433  44.8006058  58.4639835   1.5033309  44.6715593
  59.3539143   0.4849021  45.3511238  69.6611264  75.8327909   3.3602455
  69.5646289  76.5761944   3.9554527  69.2615321  76.1276885   2.5419596
  42.9697037   4.0112716  66.3527441  42.9457712   4.9650523  66.2755346
  43.6115646   3.8428521  67.0425892  15.0497839  60.1630624   5.4375675
  14.9320051  59.2171319   5.5246142  15.0701543  60.3159555   4.4928768
  19.1262743  56.2431916  13.7531498  19.3147537  56.3390728  12.8195980
  18.9686748  57.1365317  14.0586594  65.9753799   0.8792900  66.9083881
  66.8799591   1.1910143  66.9366741  65.9761190   0.0922555  67.4531889
  64.8826787  64.8496205  61.9092798  65.7716367  65.0548214  62.1988964
  64.9832341  64.5888967  60.9937763  37.6781103  44.8934855  10.6673840
  37.0472356  44.5245161  10.0492504  38.1911775  45.5109324  10.1460865
  25.9791490  71.4838143  18.7159374  25.0489542  71.4885088  18.9416435
  26.3032362  70.6486626  19.0531662  73.3932686  28.8229465  47.4557257
  73.8035345  29.6873450  47.4827528  73.6521673  28.4613442  46.6081142
  45.7571411  21.7048669  39.6925402  45.0759363  21.1806154  39.2714095
  46.5620279  21.2046742  39.5576572  20.1265594  27.4966546  19.2690876
  20.5639145  27.6179846  20.1118401  19.2371198  27.2265609  19.4975117
  84.5347026  56.9453355   9.2066649  85.2799275  56.7801162   8.6291102
  84.2807105  57.8486236   9.0174893  54.7173237   0.6241156  19.3536785
  54.1711545   1.2212349  18.8424328  55.5872082   1.0232617  19.3389824
   3.7137812  69.6942806  51.8757391   3.5425872  70.1162148  51.0337830
   4.2696685  68.9455509  51.6597939  71.3732815  68.5059261  37.0718884
  71.7694616  68.9345837  36.3132548  70.8254433  67.8157568  36.6980219
  69.0121653  64.9025436   6.3628081  69.0391972  65.4928776   7.1158102
  68.9123395  65.4820987   5.6075743  30.8746740  75.0013157   4.1711357
  30.7896825  75.9456154   4.0395859  31.1744520  74.9115320   5.0757387
  66.7783165  33.2840157  56.8951702  66.1573553  32.9857588  56.2305737
  67.6349974  33.0242586  56.5562677  68.7501454   9.9439360  22.2654465
  69.1363167  10.3606583  21.4950970  69.4637417   9.4291521  22.6423004
  77.5804138  10.8913863  46.7413521  78.1965208  10.5794036  47.4041557
  77.7807856  11.8226671  46.6475534  73.2909679   5.4709834  56.8801403
  72.5120306   5.5850422  56.3356447  73.6596060   4.6337357  56.5984392
  81.7372036  28.3399558  61.7098475  81.1345577  27.6547551  61.4208031
  81.5051842  29.1023135  61.1795568   9.6744555  38.2744932  34.5818901
   9.2900485  37.4041009  34.6861839   8.9526957  38.8189983  34.2675710
  53.2334042  36.8146396  68.6106348  54.1701555  36.6311836  68.6818886
  53.1880283  37.7416039  68.3762980  82.8120899  21.6436696  45.4192400
  82.9988384  21.3011241  44.5451593  83.5400009  21.3342190  45.9583235
  27.7094862  70.5390545   8.2920149  28.4189340  71.0937329   7.9675797
  27.9554960  69.6539017   8.0232790   6.5274733  35.2161264  56.8391466
   6.3859767  34.9965405  57.7600145   6.7976970  36.1343193  56.8506527
  36.2729764   7.5241305  21.7497471  36.9999146   7.8274561  21.2058857
  35.6416153   7.1643235  21.1267212  60.5255747  42.7503204  36.2545657
  60.5064106  43.5863447  36.7203164  60.7255459  42.9854488  35.3484988
  33.3526301  39.3328883  16.1263207  32.5346493  39.2666747  16.6190174
  33.8894391  39.9414374  16.6339901  69.6943760   5.1023108  63.8559532
  70.5177975   4.7798726  63.4895611  69.0332460   4.4884422  63.5361004
   3.1942913  37.9512583   7.2165087   3.2837602  37.0011081   7.1427468
   3.7465593  38.1866749   7.9620341  31.2910575   2.0524928  35.7062626
  31.4301127   1.9303305  34.7671294  30.7796973   1.2889090  35.9739923
  55.2575639  17.2441812   7.2496727  54.6385053  16.5511652   7.0200470
  54.7064188  17.9720732   7.5371531  36.5370869   4.7144486  26.1594513
  35.6917452   5.1520373  26.2602070  36.5132927   4.3481041  25.2754524
  60.2288746  30.4586293  11.3099316  59.3927693  29.9930169  11.2908200
  60.4984116  30.4293229  12.2279289  12.1727294  25.5955458  67.7313232
  11.6427535  25.5536413  66.9353342  12.6161879  26.4422417  67.6795149
  72.8629303  38.9389825  67.1373940  72.4153233  38.3211923  67.7155066
  72.1784449  39.5492578  66.8630219  75.1438239  73.9519020  10.1312187
  75.5088904  73.0756470  10.0081948  75.5783370  74.4877311   9.4676569
  14.8748275   0.9246688  54.2053986  15.0106641   1.3574558  53.3625031
  15.6032154   1.2250000  54.7489786  65.3255367   8.5348487  33.6522317
  65.6056356   8.7128514  32.7544045  64.3819952   8.6958301  33.6451411
  27.8329012  57.1248313  14.2571858  27.3963567  57.8464790  13.8045529
  27.5906107  56.3461824  13.7559632  66.3335323  35.3687954  37.8054714
  66.5014172  36.1015344  37.2129011  66.5831709  35.6972265  38.6692095
   5.5957910  68.0681558  15.4002693   5.4868147  67.7260919  16.2875870
   6.3662407  67.6126524  15.0609139  62.1371222  16.3318443  35.9680724
  62.6165199  15.5150986  36.1071134  61.2199306  16.0642672  35.9098148
  20.0919032  17.3102595  20.7418373  20.7633900  16.6384007  20.8599404
  19.6487164  17.3574473  21.5889481  48.3688280  64.3647977  12.1235207
  47.8425714  65.0202676  11.6656521  49.0926191  64.8621436  12.5043228
   9.2467612  46.8847799  33.1894016   9.8135680  46.1298990  33.0309176
   9.5142764  47.5273085  32.5322700  81.3489532  32.5370002  29.2090535
  80.9021854  33.2310247  29.6937847  81.1522198  31.7382264  29.6984267
  47.8701615   3.9317872  28.1322697  48.4540438   4.2076708  28.8388184
  47.5549483   3.0700327  28.4047726  69.4794321  13.1325841  65.2062845
  69.2683411  12.5889492  65.9653187  70.1663256  12.6481533  64.7483158
  59.2166230  79.8170917  19.7964144  59.0182206  78.9601187  20.1738620
  58.4214112  80.0598088  19.3221045  48.6163828  73.1572219  37.0568112
  48.6628076  74.0473719  36.7079476  48.1659815  72.6565595  36.3765839
  23.0956289  54.5371993  17.5140694  23.0276415  54.1097160  16.6603306
  23.9052889  55.0452896  17.4637154  17.5498599  21.7796874  69.2603683
  17.5190753  22.5938678  69.7627544  18.0853003  21.1904693  69.7917366
  77.8816655  23.0485745  29.7303227  78.6083606  22.6054819  30.1682881
  77.6434234  22.4640187  29.0107659  22.0104381  56.1365219   5.7856205
  21.9857904  55.3451284   5.2477339  21.8049165  56.8462201   5.1770809
  28.8442156  78.0837580   9.7661331  28.0355283  78.5543748   9.9680832
  28.8462087  78.0095454   8.8118151  70.3941584  61.2988901  61.0101271
  69.8849583  61.4570522  61.8050718  70.7701540  62.1519184  60.7928562
  86.0709145  29.1021224  14.2774704  86.1937526  30.0309606  14.4734314
  85.1210931  28.9866336  14.2503384   3.1081885  18.2044649  62.3239183
   3.7946051  18.6822391  61.8582964   3.5584754  17.4523520  62.7083588
  15.9886760  27.5163984  60.2793884  16.0797042  27.4590158  59.3282557
  15.6167144  26.6725016  60.5357409  74.1958475   6.6989464  45.3457165
  74.7051287   6.2020361  45.9859848  73.5934019   6.0575360  44.9690437
  58.9521885  51.6286898  48.3099651  59.2246771  51.9521284  49.1686678
  59.3245792  52.2547531  47.6889992  36.4309999  67.9505821   0.5250529
  36.8162557  67.8849884  -0.3487369  37.0674345  67.5255152   1.0999468
  54.4997358  17.8846395  69.4608355  54.7126818  17.1404612  70.0239372
  53.8562870  18.3868909  69.9607897  12.6551169  38.6827397  62.8629971
  12.8713530  38.5847759  63.7902927  11.7137641  38.5153675  62.8175926
  78.6300659   9.7984284  34.7509289  79.0358353   9.8493212  33.8854861
  78.9175844   8.9552361  35.1010585  69.6052575  35.2389742   2.4168280
  70.2057290  34.5178868   2.2279146  68.7351632  34.8754240   2.2524718
  54.5035315   8.3273596  69.9501896  55.2633429   7.8029013  70.2029037
  54.8732805   9.0703452  69.4732285  54.1867733   6.0066837  55.1962805
  54.3532324   6.9313639  55.0132847  53.2633734   5.8816510  54.9773455
   5.3044146  33.3931994  48.8317537   4.9723643  33.9288163  48.1112719
   6.2490386  33.5478354  48.8295746  56.4781117   0.3532292   8.9227989
  56.0210728  -0.3049635   9.4463852  57.3659062   0.3694464   9.2802742
  82.4982262  46.3421392  58.8144255  82.2582817  47.1200752  58.3109665
  83.1120014  46.6640377  59.4746494  41.9183350  12.3288381  63.7645102
  41.7718649  12.2049785  64.7022963  42.3814106  13.1642854  63.7027121
  32.0263433  18.0625045  65.4093647  32.1005845  18.5815883  66.2101603
  32.9278326  17.8223789  65.1951504  12.8288862  66.7720242   2.7397087
  13.4189197  67.3960801   2.3170450  12.9642460  65.9534188   2.2624281
   4.5061344  18.1578375   9.2249325   4.6593231  17.3776270   9.7578791
   5.3822082  18.4909083   9.0305355  44.9206805  18.1589962   9.2156056
  45.3720545  17.3406722   9.0086201  45.6174635  18.7527873   9.4951323
  21.4306471  64.0326067  18.6821106  21.5802738  63.1549545  19.0336445
  20.8817121  64.4628282  19.3377045  78.3126595  58.4617384   5.6665877
  79.1577723  58.0310126   5.5381659  77.9234698  58.0075665   6.4139107
  71.5203190  80.5062866  62.8674984  72.1585464  80.6860542  62.1771479
  71.8936586  80.9114361  63.6502457  28.1031343  60.0982829  27.4334839
  28.5156080  59.4102355  26.9112900  28.3969042  59.9283369  28.3284882
  82.0771268  13.6493068  51.5368509  82.1029952  12.7099376  51.3547850
  81.1563971  13.8885646  51.4308119  78.6645555   8.1981450  63.0649185
  78.9867640   9.0969205  62.9969645  79.4543743   7.6679695  63.1713867
  58.3299112  29.9107170  69.7190619  57.8530741  30.7375860  69.6472836
  59.2269421  30.1691222  69.9306965  81.8332386  42.9344416  48.5819483
  82.2137928  43.3824682  47.8265142  81.1310959  43.5148001  48.8759136
  73.6916733  64.8322439  49.4529104  73.7856770  65.7844496  49.4263172
  74.5669317  64.4995213  49.2542982  66.5373135  27.2542667   8.4533644
  65.5942297  27.2037363   8.6091661  66.6673374  28.1110239   8.0468029
  23.0116004  32.2436357  34.9110341  23.6199969  31.7133927  35.4257464
  23.3547133  33.1347132  34.9780154  79.3409395  50.4179525  60.5175924
  79.8793697  49.6394539  60.6599283  78.5932827  50.3025675  61.1040497
  59.9627113  58.1191730  61.3403320  59.3954420  58.7895489  61.7211676
  60.0696945  57.4717999  62.0372534  38.2583570  29.2786241  50.1478004
  37.5154662  28.8784409  49.6959162  38.1530690  30.2178955  49.9964237
  59.7712040  43.3891106  41.4141417  59.3332434  43.2555246  40.5735588
  60.5849695  42.8902769  41.3421679  19.3835851  66.7666860  12.8965977
  18.5593769  66.6342135  13.3649567  19.9150345  67.2953244  13.4918621
   2.8686374  26.5199353  19.5540837   3.1248229  26.3461997  18.6483219
   2.0073741  26.1115958  19.6419266  66.8157696  26.6936709  12.9527405
  67.3279881  26.0888459  12.4160412  67.4266743  26.9922759  13.6264446
  24.9728751  16.3148095  34.8612049  24.1907238  16.7456795  34.5164993
  25.2646803  16.8828656  35.5742195  30.5351755  47.4208810   0.3069523
  31.4270708  47.7654870   0.3516176  30.4589483  46.8534483   1.0740545
  62.0140171  43.7725258  47.5262785  62.7651024  44.3510914  47.6580620
  62.4005270  42.9157639  47.3451662  53.6245632  24.2308426  60.4766846
  52.9210091  23.8032341  59.9884272  53.1772566  24.8711467  61.0300016
   7.3086184  12.7799761  53.9502478   7.1937674  12.2790611  54.7577858
   7.4960727  12.1194685  53.2832956   5.1160311  11.2085558  12.3444966
   4.5976591  11.2682749  11.5420273   5.2840852  10.2723719  12.4519661
  56.8263268   3.8875557  14.1213539  57.5371003   4.5285202  14.1074494
  56.9224858   3.4054257  13.3000591   0.9386653  31.8108845  59.3627310
   0.4701728  31.1998820  58.7940264   1.8592185  31.5648198  59.2718744
  77.2883940  44.1418743  41.7813635  77.2684860  45.0906563  41.9064665
  76.4636517  43.9412737  41.3388824   0.2152461  56.5894938  62.4299908
   0.7131118  56.7234802  63.2364702   0.8318156  56.8029499  61.7296267
  13.9033434  48.1039806  14.7283486  14.2626115  48.3191844  15.5890778
  13.3457872  47.3419144  14.8852566  17.5077268  55.6608387  20.4175785
  17.4986526  55.9275277  21.3368347  17.3665926  56.4730569  19.9311474
  55.3689003  25.4226327  67.1524525  54.4836760  25.3178358  66.8036985
  55.2431011  25.8447623  68.0022812  39.9596235  61.7224427   3.7683943
  40.9081384  61.7780753   3.8844135  39.6491357  61.2652489   4.5499304
   6.7263335  41.4433908  34.9234557   6.5670413  40.7217503  34.3151045
   6.7191714  42.2265673  34.3731642  72.1429253  18.2156169  52.9194117
  71.9312334  18.0400229  52.0025778  71.7880726  17.4646723  53.3952236
  74.5976632  37.8121783  12.2153595  74.8221749  38.2389094  11.3884762
  75.4339069  37.7193619  12.6717690  56.4447165  45.4615879  29.3627477
  56.4608622  44.5449638  29.0874839  56.5204096  45.4266787  30.3163099
  79.1843751  79.2553969  18.1450585  79.6781113  78.9357038  17.3899105
  79.8490432  79.6228381  18.7276676  83.9416218  18.1522512  68.2105684
  84.6098995  18.3781791  68.8575554  83.7328339  18.9823043  67.7820206
  65.8763027   5.3853804  47.0068741  66.2658215   4.7346014  46.4229250
  65.8675861   4.9621198  47.8653622  43.2874775  19.8444152  54.7214508
  43.6698198  20.5734372  55.2098846  44.0322685  19.2822802  54.5080805
  23.4247226   4.8639446  63.5698700  24.1304416   4.2918462  63.2683706
  22.9686469   4.3506330  64.2367554   0.2162143  56.9491931   2.5627640
   0.4931566  57.8621193   2.4846485   0.5835458  56.6580482   3.3973530
  64.3423653  17.5755584  60.4681778  64.1680765  18.5141122  60.5386972
  65.2767563  17.4905622  60.6576872  63.8262463  31.7060208  40.6641960
  64.0945721  32.4500036  40.1250076  64.5581150  31.0918331  40.6061316
  45.9779095  35.4983927   8.0682972  46.5274405  36.1374260   8.5220411
  46.2876963  34.6493603   8.3835915  77.6480484  37.8488541  57.7635670
  78.4950972  37.4586463  57.9791546  77.8098011  38.7922478  57.7721310
  11.4623565  25.8526206  60.8761024  11.1473292  26.7246461  60.6382704
  11.6857547  25.4425311  60.0405502  12.1601459  46.4042218   7.6794127
  12.7333996  47.0874651   7.3318651  11.2779733  46.7660709   7.5953367
  73.5624027  18.1784856  64.5288515  74.3123770  17.7878594  64.0803242
  73.0419827  17.4302876  64.8214245  60.7641268  53.3473969  43.3347893
  60.3561449  53.2946301  44.1990805  60.5825186  52.4982929  42.9319620
  71.2926767  78.7550672  34.4429374  71.2546727  77.8537515  34.7629666
  71.3493917  78.6691401  33.4912920  57.9512358   3.4252155  33.2540894
  58.5350180   2.9530862  33.8478255  57.0707178   3.1912136  33.5476327
  54.3003464  15.6590462  41.3594103  54.7535515  16.2707317  41.9396496
  54.5727968  15.9175575  40.4789734   3.8019294  24.8016238  47.6752090
   4.2478103  25.3554273  48.3160877   3.1441802  25.3740978  47.2804070
  53.6880895  57.2954365   1.4448813  52.9333421  57.8647311   1.2949160
  53.3300230  56.4084717   1.4086607  45.7200071  48.7706425   7.1318749
  46.5128252  48.5330238   6.6510275  46.0361120  49.2798783   7.8781918
  15.8086988  37.9129692  11.6314533  15.0271198  37.8361406  11.0842159
  16.4699718  38.2923942  11.0526684  59.3783903  44.4753933  60.0726986
  59.2299223  45.1665592  59.4273472  58.5866404  44.4758844  60.6106234
  77.4802732  58.2239485  41.1473608  77.3836231  58.5682869  42.0352364
  77.8073597  57.3328114  41.2703562  58.2335377   8.3224851  33.2628036
  58.0789042   8.1120217  34.1836858  58.6943007   7.5582606  32.9165578
  84.5086575  25.9704113  63.5056543  85.3818607  25.6148338  63.3403921
  84.4720650  26.0838842  64.4554043  36.2079069  48.5312935   4.9742344
  36.4228365  47.6880987   4.5754126  35.5817339  48.3165540   5.6656340
  21.8964213  33.6415100  69.8475122  21.5663070  33.2317710  69.0479040
  22.4711627  34.3416548  69.5381737  39.8016095   5.9604234  66.9431973
  40.3962183   6.1230487  66.2109232  39.5371532   6.8327695  67.2352695
  18.7531489   0.0294946  63.8583851  18.4771746  -0.2850762  64.7192669
  19.3804663   0.7271430  64.0480947  10.2958983   8.6273909  50.0798368
  10.4065436   8.0535626  50.8379364  10.8859462   8.2665044  49.4181442
  82.5239086  77.9058886  69.9199915  83.3763409  78.2678270  69.6779251
  82.2277546  78.4553194  70.6456947  78.4462929  27.1952176  27.3637176
  78.8142490  28.0755186  27.2868371  78.0616999  27.1720648  28.2399487
  14.7629091  57.7380689   8.8979462  15.4434940  57.4417682   9.5022944
  14.0439150  58.0168935   9.4649914  31.6052460   5.9740712   9.2788246
  31.9913029   6.4249875   8.5279158  31.4828276   5.0729586   8.9800862
  53.2772374   3.7596775   0.5022219  52.3923039   4.0266634   0.7509258
  53.5886979   4.4634701  -0.0669023  62.9225638  66.9807478  11.3350228
  62.6238754  66.8528624  10.4346493  62.1866372  67.4082514  11.7730644
  64.9646902  31.1960125  49.0989733  65.8837318  31.0268784  49.3063021
  64.8830366  32.1491289  49.1326809  75.9863209   5.0927855   8.5858801
  75.1992154   5.6218554   8.7154082  75.6632542   4.1938425   8.5245350
   4.0119857  77.2380924  40.6573439   4.9099749  77.1584845  40.3356075
   4.0415973  76.8748426  41.5424442  51.8047928  47.7788283   0.3988865
  52.3183083  47.9421164  -0.3922340  51.6563153  46.8332125   0.3971270
  35.4429647   2.5788265  61.6081810  35.9188673   2.8051620  60.8091068
  34.5731088   2.9587227  61.4846230   3.3401793  38.1977773  69.4843912
   2.4674815  38.3655310  69.8400593   3.1778163  37.8019166  68.6281395
   0.4316729  39.6445775  55.3665543   0.5365294  39.9549437  54.4671631
   1.3211364  39.4387245  55.6541252  47.4881434   3.7843205  18.1286839
  47.9645133   3.7493493  18.9581898  46.5706372   3.6654211  18.3741883
  41.8960785  26.5073849   2.5651768  41.9307971  27.1258522   3.2949188
  41.8680596  27.0599247   1.7840555  80.8899879  51.0601139  50.1070642
  80.2023792  51.7255020  50.0808716  80.4301929  50.2489328  50.3234100
  36.9658777  69.4621177   4.2807272  37.6485941  68.8063975   4.1387394
  36.9875642  70.0049778   3.4926537  22.8122541  48.0585500  20.6037834
  23.0590173  47.8843816  21.5120819  22.4882385  48.9592024  20.6121090
  79.2078114  50.7963467  65.6075001  79.7909021  51.4815474  65.2807951
  79.7770309  50.2210903  66.1186695  77.2622252  63.3118916  53.6743784
  76.4709949  63.7476826  53.3577204  77.9234266  64.0036106  53.6982059
  32.8826162  47.3962428  13.8588360  33.2538339  47.6649304  13.0184582
  33.6439439  47.2202941  14.4116905  85.6188968  74.6641775   8.9314297
  85.3512957  74.9128457   9.8161820  84.7986462  74.5999738   8.4422568
  11.7626590  57.9686403  58.0445433  11.3887233  58.8315916  57.8664494
  12.6844329  58.1418467  58.2357264  62.7139496   0.3727509  30.6503990
  61.7878747   0.1326586  30.6192044  62.7486443   1.2448765  30.2574375
  84.9374485  43.2546854  51.1291695  84.6078205  43.8474703  50.4537582
  84.3029499  43.3274698  51.8421507  77.8209352  41.0736370  52.1649790
  78.5309172  40.6816339  52.6734018  77.1813536  41.3508797  52.8209543
  50.5655405  72.7220746   7.7822569  50.1142809  73.5607954   7.8778532
  51.3433000  72.9263755   7.2630385  43.2094121  27.4802662  20.5183438
  42.8230357  28.3319975  20.7220581  42.4607777  26.8876244  20.4508999
  83.4016323  50.0246763  43.4144258  83.5055447  49.7876120  44.3359661
  83.8014317  50.8914852  43.3435488  20.5265212  33.9549996   4.6458605
  19.9607825  33.2108141   4.8516730  21.2182593  33.5854317   4.0970877
  59.0738606  44.5963694   8.9609268  58.4191536  44.3615366   9.6185282
  58.6620354  45.2943255   8.4515265   2.6452037  60.0910910   5.9892920
   1.8426820  59.6450539   6.2599209   2.3431036  60.9089919   5.5943182
  30.8520340  19.1893269   4.0736750  29.9731946  19.5413710   3.9324692
  31.3670468  19.5304944   3.3425120  14.5997926  18.0920463  67.2480106
  13.7137434  17.8261524  67.4938726  14.4709369  18.7766796  66.5915728
  15.5224818  51.8751049  67.3779202  15.1414698  51.3954067  66.6424227
  15.4613799  52.7952051  67.1211863  40.5227873  63.5877629  30.1466492
  40.1920339  64.3158217  29.6205643  39.9682256  62.8460618  29.9046353
  22.5973433  29.0827894  67.4121094  22.1578425  29.8675752  67.7394867
  22.0276374  28.7635398  66.7122889  78.0099010   3.4040296  45.7562160
  77.4269104   3.4194919  44.9971962  78.4946680   2.5832593  45.6692076
  27.2572061  66.3004013  21.4097431  26.9104025  66.6150924  22.2445610
  26.4807340  66.1338373  20.8753422   4.2691728   7.1647030  33.4509683
   3.7650654   7.9745632  33.5298705   4.2375013   6.7767006  34.3254328
  10.6690234  40.2069187  69.1608143  10.9640330  40.5206442  70.0156689
  11.2771052  39.5008445  68.9419031  37.6090070  76.8307277   2.7489641
  38.4753820  77.2338935   2.6934174  37.1114084  77.2333308   2.0372513
  20.7478350  74.1149569  34.9594045  20.6979770  73.1984091  34.6879578
  21.6798896  74.2686033  35.1140022  53.9577311  52.7818346  68.2646370
  53.5453433  51.9217110  68.1849337  54.5983428  52.8071022  67.5538588
   6.7727012  36.4825964  48.5680294   6.1107653  37.1711564  48.6309624
   6.7082423  36.0117316  49.3989086  70.6341001  32.8812738   1.6600111
  69.7053835  33.0693640   1.5245608  70.6890508  31.9257172   1.6489008
  20.3340358  22.9634595  69.5866966  20.2147502  23.8667917  69.8799372
  21.0416240  22.6250052  70.1353312  39.1307971  78.7293329  56.3547659
  39.5157954  77.8530014  56.3618851  38.6194036  78.7728401  57.1627331
  61.2490082   0.5443189  45.6221819  61.7266655   0.9607035  44.9047565
  61.1582994   1.2328192  46.2809467  10.5868357  23.0075884  54.6300888
  10.1093596  22.2102118  54.8590660  10.1058215  23.3694196  53.8858223
  28.2868501  32.4623426   9.1128519  28.2029745  31.7048689   8.5336903
  28.7853738  33.1002541   8.6021927  64.3131351  32.9864407  43.7029457
  64.8366022  33.4244609  44.3740273  64.1723776  33.6563349  43.0338717
  72.9036093  50.4219007  49.1251135  72.6226234  51.0664320  48.4756041
  72.7627659  50.8538246  49.9676323  83.7493992  23.0062127  29.8447776
  82.9125786  22.9993820  29.3801117  84.3241978  22.4575782  29.3110728
   9.3994826  37.3347759  23.6914277   8.5898894  37.8193974  23.8524604
   9.5647734  37.4488115  22.7555275  26.4524957  35.0990130  21.4537171
  25.6554338  34.7661259  21.8661526  26.6714307  34.4432648  20.7916764
  29.9295496   9.8267104   8.9500406  29.7349953   9.0069510   9.4043234
  29.9894690  10.4789664   9.6480349  61.2468908  77.9118664  64.2417288
  61.7125508  77.1265066  63.9543200  61.9349477  78.5648427  64.3699121
  71.3608408   5.5362868  51.1047840  71.2755299   5.2990842  52.0281982
  72.2360039   5.2355313  50.8601046  65.9523058   4.9106556  43.9794683
  66.8652058   5.0714576  43.7407446  65.4611826   5.5924278  43.5209703
  37.2250387  41.5589323   1.0076454  37.2095796  41.5258597   1.9641522
  38.1431696  41.7175480   0.7882908   4.0241024  28.0152746  31.0079888
   3.8015339  27.1050211  31.2032631   3.4420320  28.2547494  30.2868202
  30.0407526  33.4735705  19.7538689  30.2560064  34.3918534  19.5906189
  30.2380201  33.3425446  20.6813172  64.6872902  34.0658689  48.5791636
  63.8474226  34.4918418  48.7506485  65.3197002  34.7840166  48.5556412
  46.7921925  25.8834410  55.3482294  46.3956308  25.1132321  54.9411106
  47.3297215  26.2698007  54.6568346  39.8747969  13.8424468  67.0243788
  40.0063086  12.9280341  66.7738056  39.5316267  14.2602563  66.2345076
   5.2270624  57.6456304   2.7844456   5.0411579  57.9044684   3.6870363
   5.5634090  58.4410401   2.3716191  45.5418223  15.1628792  55.8816147
  46.2143439  14.8474407  55.2779198  46.0224360  15.3919601  56.6770792
  13.0826488  65.2090556  49.3317938  13.4204117  64.9307269  48.4805107
  12.7635208  64.4031925  49.7379637  71.9089842   7.1666336  62.7691841
  71.5890741   6.2903607  62.9837418  71.8083858   7.6637554  63.5809612
  54.5010590  10.8639456   2.4720600  54.5172333  10.7498766   1.5218189
  54.1332459  11.7380310   2.6021412   9.6401423  52.0845556  55.5434608
  10.5339927  52.3331451  55.7789660   9.6624297  51.1288881  55.4941273
  22.3090288  71.8148752  11.6536072  22.5597068  72.7255364  11.4984062
  22.3319313  71.4091178  10.7869652  72.4566364  32.7892852  46.9290876
  72.1205711  32.5314760  46.0706997  71.9500637  32.2672796  47.5512791
   1.5903875  56.0891219   4.6881560   1.8286201  55.6234833   5.4898146
   2.2933742  55.8814116   4.0726164   4.6348113   5.2880996  69.3913841
   4.0837973   4.8728117  68.7279415   4.3455809   4.9026573  70.2184343
  68.0626943  48.5568680   1.1207083  67.4833420  48.1448581   1.7616728
  68.5752037  47.8329112   0.7609156  46.5084073  71.6568858  46.4931870
  46.2434861  71.9006193  47.3801136  47.0774457  70.8966655  46.6135836
  27.0542544  25.3399611  22.2673821  26.3413161  24.7975135  22.6045704
  27.3982161  25.7901359  23.0389190  75.7230616  17.7288401  56.9937372
  76.0840464  16.8645549  57.1910572  75.1369286  17.9166543  57.7268171
  47.1835279  13.9300489  66.0162354  48.1373739  13.8835132  66.0814095
  46.9026709  14.2825520  66.8606806  81.1943650  17.1698309  12.2395542
  80.3811097  17.0499731  12.7299336  80.9806561  16.8904139  11.3493374
  46.9328162  65.0678284  43.6392879  46.4595029  65.7991666  44.0359640
  47.4700114  64.7167892  44.3495178  51.4176962  45.1149150   0.6209067
  51.8279764  45.0811799   1.4850596  50.5951234  44.6371617   0.7274941
  41.7957780  75.4157240  19.5888209  41.7619893  74.4669587  19.4666171
  42.2437951  75.7419336  18.8083696   3.8269302  42.6276254  18.5860089
   4.2159673  41.8953963  18.1077603   2.9221222  42.3575403  18.7428787
  71.6710377  18.7124550  57.6820850  72.3035192  18.9041376  56.9896603
  70.8637810  18.4954453  57.2157383  15.0712892  66.2182995  17.7824143
  15.0122854  65.4518195  17.2121075  15.4530784  65.8840915  18.5940674
  16.7949504  27.2144890  57.5138283  17.4590987  26.6205573  57.8636694
  17.2461337  27.6969719  56.8210936  59.2503926  78.1215317  66.2865496
  59.4550416  77.1933014  66.1736870  59.1780374  78.4610290  65.3945112
  70.0578070  22.4373865  15.1384795  70.0570154  23.3326221  15.4772770
  70.4593897  21.9180322  15.8350658  13.2992813  37.9557150  15.1844147
  13.0297491  37.0698177  14.9419907  14.2156383  38.0099373  14.9131516
  24.6879214  21.2487960  44.7071981  23.9397734  21.2569022  45.3042316
  25.4041785  21.6292453  45.2155828  56.6843176  47.6893044  54.6666431
  57.3869276  47.9279184  54.0619612  56.7505455  48.3293343  55.3753042
  25.7217425  10.6889272  67.2657013  24.9325293  11.1310101  66.9527483
  26.0942859  10.2817643  66.4836168  73.8113025  34.4667228  13.4885624
  74.6905663  34.1528227  13.2773808  73.9562371  35.2933039  13.9489868
  11.6973800  10.0977004  42.3840332  12.5816268  10.4604709  42.3316050
  11.8310088   9.1597664  42.5206232  20.4549712  32.2234845  24.6657085
  20.1105326  32.7329612  23.9322019  21.3996905  32.1943712  24.5144272
  66.5550327  17.5444794  48.4050989  66.8451643  16.6720593  48.1387615
  66.7064905  18.0926812  47.6351881  68.5542511  11.0304095   1.1804417
  68.8586163  10.2500702   0.7171181  69.2741227  11.6555287   1.0953215
  47.6504251  47.3292883   5.8544615  46.8421957  46.8829217   5.6019619
  48.3096525  46.9925012   5.2476528  42.8576371  79.2113489  66.7548084
  43.6241862  79.1473407  66.1851263  43.0290029  78.5851491  67.4581861
  16.0978907  21.1479998  47.9873419  15.1509303  21.2411809  47.8833342
  16.4221495  20.9927249  47.1002245  76.5821266  21.6976953  27.6504970
  75.7550573  22.1458387  27.4734306  76.3241959  20.8148718  27.9156876
  61.8688059  41.9074297  40.6008768  61.8988037  41.7517614  39.6568966
  62.6963854  41.5549707  40.9281635  85.2360249   2.1046998  66.1932516
  84.4064426   1.6739564  66.3993645  85.6207943   1.5653257  65.5024147
  49.5058557  25.8924158   1.1033991  49.8209879  25.1387282   0.6045178
  48.5699770  25.9352167   0.9071186  15.0609416  33.8855648  59.1741371
  15.2642459  32.9526520  59.2417479  15.9105891  34.3213105  59.2408609
  25.4308721  56.4894601  15.7616356  26.0851309  56.9565447  15.2420071
  24.6390936  57.0217605  15.6843975  30.7189557  65.1029438  56.8535376
  31.0338685  64.4981832  57.5253439  30.7837627  65.9671838  57.2598886
  29.0725276  75.3143317  54.1890240  29.6580503  75.0720519  53.4716034
  29.3925140  76.1677206  54.4815445   2.3452064  26.8220182   3.2414940
   2.6244280  27.7046581   3.4848335   3.0480882  26.4946552   2.6802233
  11.5520591  14.8906529  36.4993429  12.2633094  15.3022015  36.9902468
  11.9793624  14.2009616  35.9914351  53.1195256  66.6172869  41.7105961
  53.3598420  67.1814401  42.4455881  53.3947179  67.1050352  40.9343195
  35.6466311  26.0903049  68.0091286  35.4422587  26.9555378  67.6543903
  35.2911681  25.4774714  67.3654509   2.2732848  27.8641105  49.8216391
   2.1624869  27.7197027  48.8819075   1.6370219  27.2775817  50.2307606
   3.4866542  29.0055943  42.5096750   3.5414904  28.5086298  43.3259153
   2.9487819  28.4620023  41.9339752  26.4926550  40.8938385   3.2954958
  25.8424780  40.3558379   2.8437689  26.9917890  41.3078946   2.5914648
   0.5160445  38.1538105  51.8073225   0.9869880  37.7084494  52.5116587
   0.2038974  38.9668083  52.2046041   4.7344371   1.4722782  26.6582227
   3.9155838   1.3986164  27.1484089   4.5208666   1.1447292  25.7845306
   9.9852389   3.9026913  19.1821635  10.1436061   4.4579899  19.9455750
   9.1494864   3.4741816  19.3669152   0.6702346  18.3126867  63.1742525
   1.5377826  18.4161365  62.7832508   0.6685370  18.9168692  63.9166737
   4.2507762  10.7081425  60.5460405   3.6292285  11.4095795  60.7406855
   5.0975055  11.1497450  60.4806328  61.5935877  62.4237819  18.4348229
  61.9065669  62.8247019  17.6239327  61.4348796  61.5085407  18.2037762
  15.6766724  25.2743842   0.9187201  15.5123782  24.4309308   0.4970291
  14.8811602  25.7817437   0.7575157  51.3008883  80.8135863  12.5054100
  51.7245915  81.5656968  12.9189804  51.6745808  80.0532599  12.9509285
  74.9315458  41.0513592  49.7032881  75.1331633  40.2032185  49.3080235
  75.4601425  41.0755968  50.5009270   3.6827254  17.7779175  41.3731602
   4.6275591  17.8856350  41.2640026   3.4499263  18.3947541  42.0671013
   5.5422949  13.9199091   1.4018706   5.6288886  13.8725592   0.4497698
   6.4190769  14.1476561   1.7110851  19.8671507  12.7150132  17.5484780
  19.6428036  13.3439566  18.2342747  19.1613984  12.7980114  16.9071797
  82.4119621  16.3494040  68.9453724  82.9301840  15.5824162  69.1891030
  83.0555230  16.9812228  68.6246422   7.9567551  23.6517788  29.7941712
   7.4319386  23.1832053  29.1451386   8.8627743  23.4938408  29.5288113
  72.4019044   9.7050263  15.0856045  71.8746215  10.4789330  14.8874214
  71.9185358   8.9786507  14.6919563  83.1899481  25.7040812  52.0863369
  83.0436998  26.5706183  51.7069081  84.0349894  25.7764317  52.5300720
  60.0967338  67.6404138  30.3019264  60.1420048  68.5902925  30.1927689
  61.0105875  67.3628064  30.3654698  78.4407430   0.8164193  42.4565724
  77.5813132   0.9328200  42.8616169  78.4880381  -0.1191352  42.2597721
  67.9601720   3.4103542  62.4346447  67.7764538   2.9792171  63.2692671
  67.5817182   2.8280883  61.7758751   2.1260237  17.4588419  21.7368916
   1.2334442  17.7395131  21.5350178   2.3053884  17.8328778  22.5995377
  11.4227915  14.3044972  62.7014399  11.7849708  14.6147203  63.5313940
  11.7467403  14.9275255  62.0509624   4.5944476  49.5571448  11.4434269
   4.3549680  49.0538145  10.6652668   3.7583518  49.8500182  11.8059185
  47.4287465  74.0368577  31.9349411  46.6781893  73.8398286  32.4953678
  47.0970550  74.6790620  31.3074234  20.2886891   1.7644097  43.0187920
  20.1228547   1.9987227  43.9319351  20.7828640   0.9460856  43.0674580
  38.2721457  74.8329016  23.0326870  38.2907191  74.9109217  22.0788506
  39.1837063  74.9497171  23.3003452  53.0238417  61.8297573   2.3161963
  53.7711146  61.2673493   2.1124533  53.2022407  62.6445528   1.8466070
  12.0053864  53.5207748  56.6070652  11.9064415  52.7814388  57.2069216
  12.2642863  54.2516232  57.1683693  12.4996256  23.8243271  17.5252655
  13.1460642  23.1323601  17.6649979  11.9789433  23.8313986  18.3284310
  13.9666056  13.0635907  39.2675236  14.7802233  12.5871970  39.4327763
  13.4077429  12.4328829  38.8135269  69.1907122  34.2251529  24.5358780
  68.7017682  33.4295328  24.3257454  68.7351563  34.9191274  24.0593270
  71.0030317   4.4225499  66.4318275  70.4252481   4.5067793  67.1903133
  70.4809093   4.7428364  65.6962729  23.3774685  26.8666626   3.4696177
  22.5283265  26.7526223   3.8964537  23.9805388  26.3364340   3.9905718
  83.0356929  12.3611844  56.5983677  83.0278051  12.0084834  55.7085514
  82.6056185  13.2129300  56.5222168  60.1016453  77.5526758  42.1728924
  59.8045948  78.1308027  41.4702156  60.1262191  78.1122132  42.9491356
  24.2411971   3.5820748  26.5612152  23.5013890   3.1181027  26.1692455
  24.2014527   3.3547665  27.4901798  66.9285395  72.5125070  45.2148083
  67.3298123  73.1897136  44.6701935  66.7730596  72.9424091  46.0557869
  81.4144998   7.0630146  30.5874756  81.8657070   7.4124838  31.3559178
  81.9778209   7.2997786  29.8506954  30.4947066   3.0990817  26.7233494
  30.7190823   2.2043349  26.9789246  29.5554709   3.1686140  26.8943146
  70.3576308   1.5011717  30.0734451  71.2052839   1.9034363  30.2629116
  70.5539590   0.8209826  29.4292095  46.5958968  69.8669430   8.9294222
  45.8732500  69.7607179   8.3107689  46.1980417  69.7272034   9.7887352
  84.5142992   3.7577310  47.6893663  84.6776402   4.3794227  48.3986235
  83.6160408   3.9398700  47.4133396   3.8915887  50.8149767  42.1427822
   4.8286319  50.9382963  41.9912100   3.5735607  51.6819668  42.3946142
  64.5902779  80.8646651  25.3881767  64.9165490  80.7404013  26.2794331
  65.2506545  80.4518696  24.8316410  69.5675090  63.8799878  56.0507611
  69.4919064  64.5410629  55.3626469  69.7202256  63.0606552  55.5800179
  25.8016514   9.4393994   2.5079659  24.9397349   9.5660998   2.9045466
  25.9903931  10.2715517   2.0742205  50.6382706  59.4593652  45.4122284
  51.3996222  59.0257271  45.7976368  50.2494028  59.9492796  46.1368015
  27.8352665  15.9633709  12.0160034  27.1705031  16.6020037  11.7581871
  28.6037802  16.4915396  12.2319916  71.6199904  19.5136143  27.8085831
  71.9283848  19.6392991  26.9111851  70.9178215  18.8675763  27.7322701
  83.4243494  17.9218699   4.0399435  83.0808788  17.8346087   4.9291256
  83.0991321  17.1476675   3.5805109   8.0003666  15.2621294   6.1211374
   7.2943544  15.1218726   5.4901818   8.7245154  14.7292735   5.7926491
  84.6471697  12.4308182  17.7586487  84.0140253  11.9103838  18.2531288
  85.1081639  12.9422738  18.4235790  38.3074570  23.4142709  64.4283438
  38.9857459  24.0764332  64.2953253  38.7407494  22.5842452  64.2294788
  31.9218230  32.2016694   9.0640906  32.1464753  31.4138724   9.5592049
  32.2751975  32.9217459   9.5864418   4.6224951  21.2008883  28.6458042
   4.1948461  21.6673590  29.3639687   5.2952933  21.8061854  28.3340481
  60.8403590  56.5694924  57.4532059  60.3467253  56.4524492  56.6415051
  60.5666187  55.8387025  58.0075005  60.9215924  38.6956335  42.1814850
  61.2433022  37.8071619  42.3342922  61.6923487  39.1826083  41.8898991
  68.0829197   5.7944657  13.5245445  68.7861591   5.8628060  12.8787735
  67.4109011   5.2676655  13.0919865   6.3389396  18.3632065  23.0057362
   6.7409014  18.2178952  22.1492604   5.4823279  18.7414147  22.8072193
   1.9010901  43.0215193  38.4532574   1.9154548  42.1268870  38.1131771
   2.6873707  43.4286429  38.0896118  14.0650200  25.3837515   8.2012537
  13.4880423  24.8018195   7.7066019  14.4497609  24.8233916   8.8751963
   4.3352937   5.1147295   1.3544872   4.9607419   4.6491457   0.7992533
   3.4810495   4.7703721   1.0938767   1.5202306  45.6596613  54.8425865
   1.1556959  46.5089512  54.5934916   0.9743974  45.3698206  55.5735397
  39.5651316  12.0532109  32.8215912  39.9338459  12.1296622  31.9415692
  40.2892375  12.2797753  33.4051731  83.6513570  79.6125360  20.4439572
  83.6032298  80.1243707  19.6365288  83.6324075  80.2659198  21.1432102
  49.3458080  62.6462030  38.5082960  50.2131557  62.6194572  38.1042814
  49.5202160  62.7587128  39.4427228   0.6003544  78.4642955  21.2675122
   0.6094619  79.1338249  20.5834988   0.7623169  77.6438685  20.8017853
  38.9854174  33.3604647  13.9456585  39.9360996  33.3443047  13.8353184
  38.8030129  34.2197205  14.3259743  60.3962564  74.5101690  69.0289545
  61.0305786  74.9285507  69.6110439  59.8457432  73.9866638  69.6112776
  32.6889801  29.3499470  69.0286493  33.5606956  29.3716931  69.4234562
  32.3948359  30.2606416  69.0472507  12.0142149   0.0651862  17.4154213
  12.5869441   0.8307721  17.3696831  12.3731684  -0.4600690  18.1306103
  26.2051510  24.8220707  10.8502129  25.4071974  24.4558217  10.4689530
  26.7469429  25.0530888  10.0956753  49.7708204  73.0564662  32.7821568
  49.6736958  72.1197005  32.6110676  48.9150360  73.4287806  32.5694397
  42.9607203  14.5796638  69.2559099  43.4375289  15.1834350  68.6863947
  43.6347285  14.1984230  69.8185778   6.2598514  48.5461260  29.8994187
   5.7418990  48.5511233  30.7043579   6.2332940  49.4521929  29.5918873
  73.9203232   1.5907408  45.8622292  74.0993803   1.6153265  44.9222401
  73.6993271   2.4943854  46.0876587  65.9561276  16.9466902  18.0058220
  65.1894497  16.7413260  17.4707916  66.1411118  17.8665043  17.8161934
  76.4607098  66.5131017  17.5066021  77.2142794  67.0805093  17.6691178
  75.8560899  67.0567199  17.0014790  28.5615325  73.4676170  50.6284857
  29.2124748  74.1611147  50.5209255  29.0774417  72.6782417  50.7926559
  81.1198550  28.3749653  56.4494541  80.7675605  28.7771965  57.2433880
  80.3932434  28.3976771  55.8267620  66.8137005  63.5052510   5.4363230
  65.9640076  63.9459940   5.4356363  67.4141434  64.1432544   5.8218744
  79.6088248  61.8515421  33.2634762  80.3135019  62.3544432  33.6718300
  79.1748148  62.4759127  32.6820782  59.4988897  75.0067755  23.8342503
  60.4274538  75.2355572  23.8750008  59.2253187  75.2714558  22.9560021
   1.7665931  64.0948530  42.8347710   2.0598766  64.7153278  43.5020283
   2.2087356  64.3773266  42.0341805  13.5803675  19.2269494   3.5085562
  13.7259411  19.6364809   4.3613890  13.4642720  18.2975270   3.7058619
   8.2178115  37.5814129  27.2886780   8.9553523  37.0400359  27.5700691
   8.5992765  38.4463049  27.1380928   2.7116176  78.0869265  32.4506882
   3.2189485  77.3469182  32.7842167   1.8707058  77.7061292  32.1975258
   5.8983013  76.5688749  19.5028332   6.4516708  77.2414060  19.8999718
   5.0602981  77.0063206  19.3524197  79.5606857  14.6970107  35.6090096
  80.3960806  15.1610352  35.6640652  78.8994890  15.3872754  35.6598881
  78.1650549  28.1044842  16.5149620  77.9202419  27.1879221  16.3876179
  77.8825741  28.3061196  17.4070290  82.8091812  53.6182165  52.8816223
  82.0240879  53.9227629  52.4265337  82.6222134  53.7682056  53.8083220
  79.8140144  35.7900357  63.5617352  79.6753216  36.6937399  63.2783413
  80.2959347  35.8684874  64.3850374  53.2209056   5.2195431  29.9008682
  53.7622344   4.7270180  30.5178097  52.9700347   4.5774533  29.2367867
  62.0110395  72.7570458  41.5623215  62.8623631  72.8179880  41.9956425
  61.9272902  73.5807296  41.0819462  52.9692962  74.0666862   4.4512585
  53.8128951  73.8833972   4.0377644  52.5225237  73.2203408   4.4693688
  50.5651048  79.1702052  16.3485459  50.2552464  78.8431545  15.5040005
  50.7503083  78.3810659  16.8576554  51.4880657  18.7548172  43.5424757
  51.3019800  17.8828800  43.1941509  51.5743303  19.3091631  42.7669144
  63.1265357  67.3205825   8.4291628  62.5725129  66.6321870   8.0611923
  64.0177229  67.0618053   8.1945303   2.5928137  80.5590077  33.3149937
   3.3485910  81.0517855  32.9953030   2.6943084  79.6884604  32.9301861
  14.2093059  64.1685911   1.7423180  14.4606468  63.2695766   1.9540480
  15.0195429  64.5789381   1.4400509  53.3231070  77.7744957   7.8353193
  53.3333447  78.5535403   8.3913925  54.0326646  77.2288247   8.1744412
  11.9272732   1.8663289  20.4825142  11.3669466   2.4721457  19.9974945
  12.3507046   2.4108578  21.1461666  71.8102616   3.1791188  26.3181618
  70.9103137   3.0011012  26.0449722  72.3355716   2.5305487  25.8495072
  84.0629199  54.8078867  44.8082760  83.3635857  55.2870496  44.3637875
  84.5315078  55.4766258  45.3077152  47.3380032  50.1922574   9.0779570
  46.8753758  50.9348150   9.4663075  48.0260971  50.5908569   8.5451534
  83.5600811  24.8557259  20.8077267  83.5651498  24.6333529  21.7387226
  82.6420742  24.7781922  20.5479458  63.2178738  23.1217702   3.6637381
  62.3217943  23.3485754   3.9124039  63.7106755  23.9346202   3.7762192
  22.2933030  71.8635130  46.4234877  22.4442101  71.2972355  45.6666613
  23.0312014  71.6856146  47.0066547  57.7167061  72.5948902  19.4340065
  56.9849875  73.1882401  19.6035698  57.3497918  71.7198940  19.5604542
   0.6502463   1.1132855  32.2912145  -0.2043258   1.5334240  32.1941471
   1.0523243   1.5578595  33.0374861  10.4752970  62.9887867  61.9703341
  11.2144876  62.6354170  61.4754009  10.8045590  63.8077831  62.3405647
  60.8393338  37.8404303   2.0433214  60.6596997  38.7161629   1.7011860
  60.7608011  37.2652035   1.2822846  21.7406487  23.4907556  58.9012766
  20.8414078  23.1733799  58.8183880  21.8370628  23.6971331  59.8309755
   8.2683584  65.6648298   1.0508087   8.5160228  66.4414044   1.5526274
   8.2459280  64.9591251   1.6971138  51.9178632  78.6707588  35.1690796
  52.7687624  78.5413285  35.5879524  52.0561555  78.4071155  34.2593506
   5.3658601  65.6263753   7.2161415   5.3512451  65.4825660   6.2699154
   6.0702440  65.0612255   7.5334433  84.3454295  10.0606991  30.7704285
  85.0993114   9.9133755  31.3415554  84.4822770  10.9388186  30.4148796
  22.4736452  11.6801620  60.6113815  22.8464627  11.3664937  61.4353037
  23.2036734  11.6539836  59.9928284  23.9283949  62.0556160   5.9856203
  24.1945579  61.3058015   5.4534844  24.4950476  62.0157572   6.7560414
  78.9927583  54.0140463   9.9044922  79.6637970  54.4134261  10.4580620
  79.4352155  53.8512446   9.0714529  46.6675058  62.7895542  26.6265133
  46.5234270  62.3709961  25.7778195  45.9142902  63.3695169  26.7384842
   2.9722577  48.3194399  43.2950592   2.0560402  48.4882212  43.5148096
   3.2206771  49.0489101  42.7272654  81.3913825  38.9106101   4.7402838
  82.2994473  39.2054657   4.6716526  81.0095885  39.1099081   3.8854483
  35.5889773  41.4138174  65.0588989  35.8311057  42.1366930  64.4800568
  35.6660128  40.6324482  64.5113945  82.3243430  48.8670440  11.6394547
  82.2053197  49.3288501  10.8095101  82.4388507  49.5630314  12.2865322
  44.6140814  30.6889963  50.6857681  44.8822212  31.1414051  49.8859787
  43.7939644  30.2544451  50.4516554  66.4530116  35.0627972   3.6904600
  65.5214405  34.8431517   3.6777046  66.8989676  34.2201020   3.6054972
  14.1272232  27.8046783  18.4154061  13.2891199  27.4343189  18.1385544
  13.9997932  28.7518628  18.3621720   9.1624969  45.5395985  66.9635344
   9.2707515  45.8462238  66.0632610   8.2392651  45.2940989  67.0235634
  22.0276138  76.9377943   3.7806109  21.4619610  77.2250243   4.4973829
  22.0790788  77.6953598   3.1977967  81.1253836  49.2758818  14.3840149
  81.1118272  49.7579433  15.2108505  81.1767581  48.3560582  14.6438530
  13.9240408  29.3043423  69.6721506  13.6176503  28.8011122  70.4265499
  13.6011040  30.1916671  69.8289967  84.2704514  77.5557370  56.6796875
  83.6080173  77.8214774  57.3174906  83.9403847  77.8807080  55.8420229
  21.9217563  11.8769360  36.9457102  22.5081468  12.5240099  36.5537000
  21.2303448  12.3971713  37.3550200  68.9604333  76.8816539  31.0630635
  69.3672517  77.6189180  31.5182236  68.6562970  77.2504779  30.2337864
   9.5987418  73.6919542  18.8486031   9.2905310  73.3427521  18.0123642
  10.5510822  73.7248035  18.7580422  83.7175753  75.3088518  17.9171875
  83.1804660  74.5302411  18.0638436  83.1170132  75.9441658  17.5273922
  60.0819829  80.6206103   1.8532065  59.8447707  80.2750631   2.7137640
  59.5334533  80.1321050   1.2394407  43.7035370  25.9215546  52.0164919
  43.2944870  25.1357985  51.6538620  43.5802031  25.8410382  52.9622889
  79.7521382  30.4018380  39.0085247  80.4494410  30.1992728  39.6321991
  80.2030712  30.8096053  38.2691887   1.1079666  68.7106807  69.2385721
   0.4742167  69.3874091  69.4765377   0.6057403  67.8959746  69.2544842
  70.1150706  63.2224532  31.0934666  70.9599355  63.3498784  30.6619576
  69.9464991  62.2832914  31.0173825  38.6329389  14.4003677  43.0258036
  38.6516929  14.2367637  43.9687347  38.0256462  13.7456608  42.6811504
  43.4532347  41.1244780  12.9710320  44.3069008  40.8486044  12.6372936
  43.0023649  41.4843659  12.2072056   4.7099256   1.4737107  16.1438969
   5.5955386   1.7826010  15.9528378   4.4384527   1.9824101  16.9079331
   8.3101085  61.5315505  23.4661129   8.9780238  61.0629316  22.9655960
   7.7551058  60.8415480  23.8295677  61.9893458  70.2038284  40.8235291
  62.4907449  69.8833915  41.5732983  61.7565158  71.1023255  41.0574654
  66.5008354  17.2597980  64.2541075  66.7529964  17.1969104  65.1753521
  67.1580362  16.7412543  63.7899637  14.3551466  10.9910651  18.8500431
  13.8443157  11.1445089  18.0552223  14.7706958  10.1406785  18.7072399
  15.3802502  31.9794393  61.8349314  15.2901196  31.4271140  62.6114941
  14.4957829  32.0290184  61.4723158  18.3034727  75.5801101  38.0401924
  17.5295850  76.1090871  38.2338646  18.7729808  76.0784908  37.3713043
  66.1524585  61.4133545  15.9364441  66.4364031  60.7232781  16.5359429
  65.9146741  62.1438332  16.5074852  82.9143527  73.2359286  45.6925610
  82.0149424  73.5014435  45.5007294  82.8912595  72.9551645  46.6073635
  11.0129833   8.3238675   4.7330406  10.3403162   8.1472231   4.0753582
  11.3726449   7.4625327   4.9451187   3.3781120  38.1407783  22.1563652
   4.1167947  38.6287116  22.5203732   3.2595512  38.5048752  21.2790898
  74.3513029  30.7265021  39.5090607  73.8963657  30.6374814  38.6716011
  73.8301318  30.2069403  40.1211575  51.8302634  73.5880848  28.4983280
  51.4951613  73.8307734  29.3614891  52.5800612  74.1670342  28.3610371
  72.2631600  60.7436295  13.8724831  72.2176984  61.5325280  13.3322933
  72.9329446  60.9401174  14.5274761   4.8285457  47.0428785   6.8777207
   5.5008575  47.0499845   7.5590208   5.0828048  47.7484490   6.2829474
  85.5735209  75.3709098   1.0487345  86.2261489  74.7088500   1.2767294
  85.0779488  75.5067893   1.8563107  74.1050511  23.8240839   7.2025469
  73.7147074  24.6273734   6.8581751  75.0133532  24.0605809   7.3903921
  80.9200051  66.7260500   0.1826838  81.6456559  67.0369645  -0.3586122
  80.3160956  67.4676247   0.2225855  44.1817718  47.7825190   3.7855414
  44.4133466  46.9530512   4.2033795  43.2712966  47.9328276   4.0398529
   5.7943126  78.2629486  58.1755856   6.2973377  78.1319328  57.3718289
   6.3638708  77.9338046  58.8709286  39.5828986   0.6278826   7.5103024
  39.4128632  -0.3016399   7.3576382  39.9172568   0.9507920   6.6735438
  85.9362059   3.8987042   1.1229685  86.2113648   3.1576134   0.5832413
  84.9834138   3.8199879   1.1700848  58.4774017  30.6847930  63.1260109
  59.1984892  30.1969194  62.7282190  58.7701178  31.5960741  63.1153202
  27.8495097  21.7502928  66.8905258  28.3543205  22.4082947  66.4125872
  27.0288444  21.6775370  66.4032412  58.6985400  62.0800706  45.5175427
  58.7608412  62.8475114  44.9488667  58.0796030  62.3378082  46.2007073
  50.7100719  41.4663435  10.1317433  51.1756181  41.4135863  10.9664372
  51.1275410  42.1936156   9.6702030  41.4470076   1.1438204  32.8965882
  42.1653533   1.7706133  32.8109005  40.9372019   1.2525727  32.0937756
  64.5090225  75.1806064  16.8971947  65.3725770  74.7868462  17.0215443
  64.4120457  75.2502485  15.9474781  58.9759541  51.2333107  65.6311274
  58.9534426  50.3950930  65.1694822  58.9425325  51.8905449  64.9360275
  37.5654959  13.8130881  29.4794300  37.7975440  14.3160893  28.6988095
  38.3704638  13.3519675  29.7152737  54.5080712  46.3993408   7.2398737
  54.3078688  47.3334654   7.2995547  54.6269896  46.2392106   6.3036850
  30.9684538  24.4618250  25.4853275  30.4936623  23.6677863  25.2397469
  31.8709540  24.1706444  25.6154946  68.5228517  58.2856973  45.6672886
  68.2308009  59.0605040  45.1870659  67.7136734  57.8387650  45.9157112
  25.4583693   5.0014973  69.9834108  24.7029614   4.6059129  70.4182768
  25.2547956   4.9435905  69.0499067  17.4326324   0.3981715  59.4464970
  18.3024418   0.7209215  59.2109203  17.2962165  -0.3596046  58.8778162
  25.4049969  34.4143438  67.1706247  26.3475132  34.4874954  67.0204830
  25.1176143  33.7337828  66.5619564  77.3421815  29.9276419  34.0511254
  76.9387200  30.7956549  34.0532902  77.0213416  29.5123967  34.8516682
  75.6939223  67.6554747  13.4549168  75.7305196  66.7385121  13.1827572
  75.1765111  68.0867072  12.7747944   8.2277131   5.5077673   3.6557224
   7.5228118   5.3150059   3.0375078   7.7894377   5.5806710   4.5035628
   5.6775403  31.0077597   9.0004471   6.2530398  31.7695404   9.0691498
   5.8382034  30.6647040   8.1213978  23.3404574  70.3154107  16.8101147
  24.0614432  69.6862264  16.7868927  23.5470828  70.9421464  16.1167553
   1.4171457   5.6831671  31.6643646   1.8074321   5.2069498  30.9314755
   1.7288756   6.5820433  31.5591171  64.6347215  71.2658687  22.6076058
  63.8477805  70.7905145  22.3411587  65.2525738  70.5813714  22.8644112
  17.4267601   6.6735293  11.8707302  17.3999953   6.4307190  10.9452275
  16.5106177   6.8192269  12.1067169  33.0994391  18.0323531  47.9445961
  33.9045166  18.2083298  48.4315327  32.4037718  18.3954121  48.4927395
  48.2468462  39.2415023  65.5643606  48.1034136  39.4904637  64.6513033
  47.4059582  38.8845325  65.8502150  83.0146458  60.8303304   5.9775665
  83.0092147  61.7860337   6.0307768  82.5872710  60.6344362   5.1437786
  52.2983864  44.3257182  11.9395188  52.3513153  43.4095057  12.2115162
  52.0188525  44.7934323  12.7264908  56.9325569  71.8344565  22.3247460
  57.8752210  71.9568415  22.2123268  56.5493372  72.6711865  22.0615795
  63.2765677  68.9663454   1.4264754  64.2082312  68.8226052   1.5925291
  62.9181912  68.0883332   1.2965086  55.0471189  67.1243234  22.0823506
  54.9371317  67.2697230  23.0220249  55.5578783  67.8760215  21.7818382
  42.1015120   1.4285637  55.6499863  42.0947886   0.7808140  56.3546896
  42.0608091   0.9092572  54.8469305  38.2950878  16.5377116  58.8174486
  38.4594893  17.4129748  59.1683292  39.1289973  16.2754679  58.4275007
  15.4765296  16.4632107   2.9200485  14.7774767  16.1935307   2.3243740
  15.5078864  17.4162556   2.8366593  52.5236085  68.0160399  20.0056389
  52.6401069  67.7996321  20.9307507  52.0613578  67.2619863  19.6396378
  55.3220909  18.6239411  35.1948384  56.1804706  18.6559273  34.7724751
  54.8173795  18.0067326  34.6651676  77.7662185  66.1764808   1.5462998
  78.3696130  66.6732188   2.0989302  78.1256249  66.2608763   0.6631592
  25.1779482  47.1895726  25.5104855  25.2125093  48.0936446  25.1979283
  24.5990869  47.2214373  26.2721470  62.5197294  75.3427931  24.0492371
  63.2857349  75.8292170  23.7445095  62.8017166  74.4280740  24.0502957
  40.0413179  17.9721403  67.7264118  40.1268339  17.1758044  68.2505941
  39.7440386  18.6369848  68.3475685  68.1627229  72.0966430  24.5532253
  68.3262828  73.0220600  24.3713310  68.4313348  71.6442605  23.7535790
  61.3825315  21.3534285  17.0642689  60.8928665  21.9038989  17.6753643
  62.1472284  21.8787409  16.8286446  28.6592436  42.8373909  66.3868713
  28.8844013  43.7426376  66.1722422  28.0407715  42.9103136  67.1137857
  55.0413158  78.8417669  27.4771050  55.6022265  78.1001206  27.2500160
  54.2257550  78.4416958  27.7788189   7.9210329  15.6687762  25.5400589
   8.2342577  15.2411915  24.7429970   7.1256423  16.1272551  25.2691677
   2.9675338  19.2892241  44.4436550   3.1816790  20.0673985  43.9290524
   3.7401807  19.1428852  44.9893999  36.9652009  18.8461043   0.6947640
  36.4241242  19.0134598   1.4664248  37.0491766  17.8931166   0.6632260
  14.6229696  35.3462672  61.2694120  15.3178310  35.1079679  61.8831015
  14.8191309  34.8438501  60.4786348  69.1786387  79.8880692   1.9210318
  69.0107110  80.2203294   2.8028706  68.6849835  80.4732986   1.3465431
  72.9043441   0.8280207   1.1702898  72.5516611   0.2830721   1.8737629
  73.8259619   0.9479548   1.3993481  61.6893652  55.4567726  28.2021740
  61.5077713  54.6627231  28.7049034  62.3364928  55.9291216  28.7259510
  77.3261407  45.9127202  18.9418915  76.6976598  46.4091357  19.4661167
  77.7794221  45.3560926  19.5750931  72.0873087  22.1049096   8.0619124
  71.4271479  22.5556637   7.5353745  72.9182761  22.4927498   7.7875021
  62.9465583  47.1940370   4.5521048  63.8750723  47.1827360   4.7844055
  62.5987437  47.9691239   4.9931219  68.3185556  65.6617113  15.3694657
  68.5634568  66.5030309  14.9841908  67.3655274  65.7029029  15.4486778
  72.6996186  32.8037771  26.4538315  73.1905082  32.9238727  27.2667530
  72.4877313  31.8704637  26.4376381  42.5785413  69.5315238  67.2922066
  43.2147029  69.7531339  67.9722241  42.5231710  70.3186436  66.7503479
  63.1579304  67.5553846  69.3470097  63.3475733  68.2836819  69.9384928
  63.7109375  66.8405342  69.6622944   4.2519450   8.5199858  22.0417431
   3.3980417   8.5761095  22.4706200   4.8732256   8.8210274  22.7047756
  10.4943296  79.4719692  10.5686691   9.6197960  79.6779962  10.8987835
  11.0387441  79.4122692  11.3537052   0.5215904  69.3564935   8.0488613
   1.0056135  68.6660071   7.5958946  -0.3357581  68.9702125   8.2276896
  47.6120472  72.4623156  68.4756660  47.5935125  71.6066742  68.9043427
  48.2646465  72.9619312  68.9663124  26.9221759  54.5286369  66.6010523
  26.4994597  55.1320410  65.9899473  27.3584151  53.8868093  66.0407114
  54.7533061  56.9437072  16.3961464  54.6978738  57.7214763  15.8409554
  55.3028848  57.2133777  17.1320015  29.4117856  31.2007594  55.8802652
  29.0376091  30.6825948  55.1677132  29.2913628  32.1094227  55.6044722
  66.2546587  57.3177290  64.6398258  66.8312693  57.2181368  63.8823080
  66.3274145  58.2424068  64.8762894   9.3662333   7.1324755   7.8464869
   9.7496032   7.9526831   7.5358132  10.1193451   6.5743281   8.0402163
  36.9518923   4.1793944   7.1517781  37.3061013   4.9304940   7.6278237
  37.6346993   3.9522101   6.5205887  73.2751709   2.6246954  16.1372116
  72.7791041   3.3468558  16.5227345  73.7676292   3.0273463  15.4219559
  19.2202258  36.9108416  13.6286762  19.7388911  36.3604094  14.2153862
  19.3297076  37.7973153  13.9727905  39.9507263  40.3179397   2.2345522
  39.4511512  39.9001136   2.9360369  40.8661988  40.1838060   2.4798086
   8.0620908  36.3576819  14.8324040   8.1333065  35.4320313  14.5993069
   7.1640706  36.5945984  14.6007660  57.7250841  61.7190953  26.2865856
  57.3334434  61.5227314  27.1376351  58.2937982  62.4709626  26.4523915
  50.9785011  72.9160615  42.0648411  51.8010190  73.1000992  41.6111687
  50.3018525  73.0681463  41.4051083  75.9421685  79.0606352  39.1468552
  75.9739592  79.5966717  39.9392441  75.0334075  79.1219254  38.8525227
  45.9115079  78.7362977  14.1238049  45.9679940  78.4660025  15.0403145
  45.2596166  79.4371959  14.1205433  45.3081169  64.0000315  18.2345989
  44.8936465  63.6327215  19.0153244  45.0799039  63.3902760  17.5329235
   5.3737473  27.1733262  46.4329460   6.1539006  26.8068530  46.0166672
   5.4611897  26.9363238  47.3562077  38.8558602  21.6646743  67.8672791
  39.6134424  22.2229481  67.6922607  39.2037344  20.9485364  68.3986616
  46.0449624  17.1556403  16.8043831  45.2457499  16.9342495  17.2823742
  45.7491803  17.7246119  16.0937336  62.3047808  61.1580058   9.9224213
  61.8116668  60.9296771  10.7104233  62.5746658  62.0654960  10.0633267
  58.2535791  19.5682490  54.9748325  59.1511679  19.6912038  54.6658897
  58.2866144  19.7966707  55.9037924  50.1270437  70.9205294  61.7950487
  49.9265528  71.4839458  62.5424385  50.6641483  70.2182198  62.1618128
  66.9533136  74.1247698  15.2930287  67.4625256  74.9351521  15.3077534
  67.5938347  73.4361525  15.4712704  64.4542384  34.9178244  24.5993069
  64.7003573  35.0624730  23.6856678  64.1224294  34.0201832  24.6187428
  84.8397666   9.9934031  13.4269646  85.4634624   9.2676379  13.4045819
  84.5983678  10.1300980  12.5108460  16.7504191  47.7459621  60.1216841
  16.2646866  46.9471025  60.3269148  16.5816104  48.3262777  60.8639574
  22.9228711   1.3071133   3.9713219  23.7942194   1.6852738   3.8530949
  23.0073523   0.4074694   3.6555126   6.5289709  51.1065837  28.6016396
   7.0902321  51.8435665  28.8426235   6.7025444  50.9677513  27.6705960
   7.2882435  55.1933070  25.7993725   7.1648428  54.2461940  25.8624581
   7.0871851  55.5199858  26.6763428  67.1290210  59.4664260  17.8169182
  66.4150884  58.8617726  18.0192116  67.3737815  59.8398634  18.6635998
   4.4862461   9.0707756  30.3229645   4.3545627   9.1569163  29.3787792
   3.6115193   8.9001585  30.6722096  11.6576326   9.8132592  54.3609238
  12.5098050  10.0578010  54.0000486  11.0986376   9.6912652  53.5935450
  10.4213211  57.4416848  44.4362763  11.0053417  56.9528743  45.0161198
   9.5967600  56.9562372  44.4621590  57.5024941  70.9595152   0.6676224
  57.2460201  70.9475632  -0.2544996  57.9061964  71.8183394   0.7928303
  78.1205466  71.4668842  15.9609631  77.9993108  70.9800955  15.1457527
  78.3226254  72.3591252  15.6793526  10.0042221  45.6381812  25.2138928
   9.6245500  44.8607623  24.8043755   9.9340603  46.3195481  24.5452717
  72.4301961  41.9404282  44.1764572  72.5529530  41.4543182  43.3610752
  73.2941249  41.9389207  44.5885971  77.6908570   0.7590271   8.6728790
  77.3839575   0.0012948   8.1749991  78.5709530   0.9265782   8.3358505
  77.2229388  73.0274459  27.2339276  76.5445426  72.6808782  27.8135040
  76.8560031  73.8451358  26.8978146  49.6519568  78.4825726  11.0131958
  48.7679460  78.8325067  10.9022930  50.0484612  79.0410205  11.6818932
  30.7856107  27.0762300  50.9209108  31.0909605  26.2446570  51.2835121
  30.2919126  26.8296123  50.1388121  47.6323488  35.4596766   2.7276877
  46.7147699  35.2692272   2.9226521  47.7226224  36.3981028   2.8933314
  63.7212327  51.8254002   4.0002421  64.2788389  52.4704452   3.5652474
  62.8345063  52.0423730   3.7123659   3.6500930   1.8784167  10.0669506
   4.1178202   2.3555638  10.7523659   4.3415665   1.5101124   9.5170048
   7.1233630   6.9374539   6.1550692   6.6664099   6.2249638   6.6020373
   7.8130745   7.1994473   6.7648962  84.6219307  25.4085471  57.3984650
  84.0986591  26.0178496  57.9192093  85.4766017  25.3980233  57.8293541
  68.2995584  78.5593291   9.9061611  68.2206085  79.4488092   9.5614508
  68.1508401  78.6530252  10.8470848  31.5955615  34.7765064  67.4886274
  30.6418991  34.7977042  67.4091864  31.9047141  35.3973150  66.8288898
  34.5282864  44.2951037  18.6124161  35.3554940  44.5801474  18.2241944
  34.7819781  43.8711573  19.4322518  63.0478745  15.9220959  32.7926663
  63.2897305  16.7762734  33.1505993  62.0924025  15.9461190  32.7404335
  78.2658723  39.3989906  40.3603676  78.1337312  39.1184928  41.2659577
  78.6783507  38.6474438  39.9346092  26.4722752  32.6582886  30.3326538
  26.2254500  32.5982691  29.4097737  25.6387257  32.6754118  30.8029011
  60.3069019  34.7997975  69.7073936  60.4859495  34.0805626  69.1016960
  60.4856205  34.4336247  70.5735397  17.6804661  14.7252442  17.5810936
  18.3645272  15.3761746  17.7378872  17.4025940  14.4542910  18.4560803
  76.7728093  37.2914304  20.8131722  76.6054395  36.3907095  20.5358246
  77.0076373  37.7506201  20.0068024  52.6721123  75.0274344  36.8326500
  52.6703360  74.1276117  37.1590641  51.9265321  75.0663896  36.2336281
  71.6503575  66.0833259   9.3552139  72.4160865  66.1271544   8.7825278
  71.2481358  66.9489904   9.2839888  53.6060360  75.1652475  15.0025395
  53.5362318  74.5478388  15.7306698  52.8235319  75.0035115  14.4755104
  83.6041837  13.0104281  12.9506710  83.6507135  12.8125979  13.8860443
  84.2011839  13.7491919  12.8321198  19.3070674  22.4084067  57.7846050
  20.0123119  21.8209195  57.5130892  18.8700199  22.6512408  56.9683647
  59.5814469  64.5454856   3.5705116  59.2575219  63.6593314   3.4091547
  58.8562658  65.1157542   3.3152893  78.4249547  58.6177727  25.5258682
  77.9132798  59.4266923  25.5175331  77.9782918  58.0583711  26.1613205
  53.2955625  73.9074393   7.1058729  53.4139946  74.3522735   6.2666300
  53.9850929  73.2437917   7.1245936  38.2321882  18.0512094  49.7978067
  38.0223393  17.5754869  50.6014729  39.1883278  18.0384159  49.7546244
  83.7383893  61.3151737  16.5521267  83.2734731  61.8554803  17.1909931
  83.1779292  60.5482479  16.4340237  51.2221694   6.4648701  28.0657795
  50.5004572   6.1953856  28.6338833  51.6996121   7.1172930  28.5782459
  17.7635595  61.7777987   3.1822041  17.9969284  62.3843571   2.4794558
  18.2528564  62.0923253   3.9423969  68.2966211  52.8783580  30.2248409
  67.8438118  52.7215405  31.0534600  69.1302445  53.2744332  30.4786709
  31.9438290  12.0528199  47.2083405  31.2844967  11.6098858  47.7424935
  31.9167494  12.9637505  47.5010803  42.2936192  61.2683268  20.6200340
  41.9700661  60.8334013  21.4089516  41.8561581  60.8143826  19.8997620
  43.2399788  72.0047899  14.2208031  43.0107823  72.0493813  15.1490811
  43.0208340  72.8712555  13.8781002  32.4909091  24.1095711  38.7944535
  32.8896355  24.8750426  39.2083386  31.9380831  23.7290074  39.4769409
  38.8379410  71.4118954  40.5991390  39.5722297  71.9879075  40.8118847
  39.0868202  71.0027142  39.7703675  21.0940227  47.8387888  18.4841278
  20.3352979  48.3853670  18.6886242  21.6248980  47.8583493  19.2803791
   9.0687677  77.2640582  67.0817116   9.5171186  78.0960317  67.2334698
   9.0524313  76.8407269  67.9400566  13.2282519  23.4255244  21.3275173
  12.5283074  24.0473963  21.5264824  13.8630652  23.9331223  20.8219650
  50.0611165  52.6763614  22.6159981  49.1496137  52.4030252  22.7193287
  50.0916436  53.0865737  21.7516926  78.0861905  51.0251470  19.4310883
  78.9608720  50.6901665  19.6284607  77.5697711  50.8203610  20.2105835
  60.7871771  32.2194433  63.3147335  61.0769129  32.5668716  62.4711800
  60.7087135  32.9901266  63.8769817  85.0753644  80.8967324  46.3169602
  84.1420749  80.8547564  46.1085251  85.2799275  80.0328704  46.6749027
   3.9304018   9.8267485  55.3375271   3.2853937  10.0796153  55.9980229
   3.5235404  10.0610758  54.5033959  37.6354858  62.6218696  17.0233944
  36.8029764  62.5734039  16.5534905  37.7348885  61.7583438  17.4242333
  54.0175226  78.6422797  37.0747021  53.7342003  79.5463129  37.2113827
  53.5072782  78.1335016  37.7048042  36.0732269  23.9419007  65.8917618
  36.3025403  23.7620187  66.8035126  36.8020654  23.5823274  65.3860617
  65.5289104  47.8508510   4.8844698  65.7665875  48.1422134   4.0042141
  66.2596181  48.1318583   5.4352263  68.1376033  28.1136729  16.6826752
  67.3897916  28.4428431  16.1840275  68.7905949  27.8940035  16.0181645
  32.2113109  13.4042728  54.6725225  33.0591583  13.0250001  54.9039030
  31.9137645  13.8330936  55.4749012  38.3992251  73.9747902   0.9813097
  37.6169762  74.5154734   0.8718518  39.1288510  74.5763393   0.8329323
   8.1154701  80.4188534  11.8609360   7.3889991  80.6892653  11.2993839
   7.9340765  80.8343764  12.7039459   3.0338022  74.4288131   2.2221974
   3.9450285  74.2456289   2.4509695   2.5220510  73.9170976   2.8486899
  49.0797022  74.9166938   1.8687180  49.7598102  74.6599956   1.2459925
  48.5293498  75.5307813   1.3826779  16.6902947  12.2378804   5.2688769
  15.9903502  11.7916609   4.7922257  17.1267342  11.5420462   5.7603720
  10.1865804   4.7839221  66.0194874   9.8804057   5.3368235  66.7383671
   9.3921208   4.3737820  65.6776524   5.3307366   4.8009707  16.3498047
   4.9638056   5.5881764  16.7521790   5.0006580   4.0810801  16.8874291
   1.3575673  25.6690909  29.3623093   1.0607290  26.4548041  28.9032105
   0.5957841  25.3845383  29.8672322  20.9957620  72.7219244   6.7923287
  21.4379093  73.4876009   7.1590355  21.4268610  72.5769325   5.9500912
  75.9954503  57.7502795  37.6226071  76.7723277  57.3785361  38.0403355
  75.6174519  58.3250089  38.2882145  61.5792561  53.0884790  64.8955011
  61.9108629  53.0834675  63.9975929  60.7014132  53.4634304  64.8245382
   1.9588232  19.0594317   9.9148682   2.6399755  18.3989741  10.0415924
   2.4119019  19.7946192   9.5020083  60.4781711  17.8006674   0.3743056
  60.5540099  18.7178494   0.1111439  60.2694898  17.8358056   1.3078192
  22.6805090  11.1363770  34.2944840  23.0691504  11.8712927  33.8200501
  22.4668002  11.4938141  35.1563385  49.4403791  67.9139614  38.4077072
  49.4035959  68.8306522  38.6807537  48.9303017  67.8844976  37.5982738
  13.3316397  12.4109341  31.2216595  12.7772498  13.1570221  31.4502075
  12.8610253  11.6498448  31.5615109   0.4563283  34.0164067  11.9867066
   0.6817293  33.8647915  12.9045513   0.1260447  33.1724717  11.6786221
  85.8907130  60.9423538   4.5095089  85.0775197  60.8471628   5.0053814
  86.2044862  61.8193503   4.7300842   2.1158361  14.0810086  10.4159001
   2.9824090  14.3385626  10.7304600   2.2812199  13.3291317   9.8470762
   9.9327302  23.2869889  35.8909157  10.1487779  22.6460339  35.2136162
  10.5239725  24.0209032  35.7234696   1.8470931  24.9633814  26.3098267
   2.4033618  25.5800702  26.7857388   0.9603953  25.1564528  26.6143349
   8.5023042  71.8523498   7.5777415   8.6173460  72.7607199   7.2987059
   8.1419775  71.9172736   8.4621552  30.2038359  28.4493138  16.3227204
  30.4711651  29.1139533  15.6878784  31.0084319  27.9702593  16.5211228
  46.0988068  15.6313397  24.3951538  45.3584122  15.6070448  25.0013378
  46.0723710  14.7839905  23.9507035  68.0502372   0.9658791  12.6685551
  68.5510510   0.8776404  11.8576077  67.1796929   0.6334044  12.4498203
  14.2960238  10.9282662  42.0483044  14.1463255  10.2743651  41.3654831
  15.1526379  11.3008572  41.8394497  81.7220929  77.6038905  22.6942471
  82.3697236  77.7931329  22.0152786  81.5232947  78.4570308  23.0800751
   5.9199306  63.0626818  54.1315964   6.7288419  62.5933166  53.9276531
   5.8825037  63.7675472  53.4850624  73.5966065  78.1038948  26.8910053
  72.7683070  78.0075975  27.3609856  73.5226682  78.9480468  26.4458492
  21.1809683  50.7815695  66.7546129  22.0277524  51.1066055  66.4487696
  21.3697624  50.3843927  67.6048136  18.6443591   0.6873251   0.9506396
  17.7224898   0.5949522   1.1911753  18.7193036   0.2342965   0.1107720
  34.6950841  79.3835640  66.4078569  34.9607062  78.9375973  65.6036234
  34.6390533  80.3070450  66.1623335  35.9651729  69.3745728  62.5931099
  35.9078613  68.8773342  63.4090164  35.3245535  70.0783130  62.6960018
  71.6521218  55.6246360  38.8766125  70.7737544  55.6343063  39.2568806
  72.1922734  55.1839884  39.5325783  28.9105558  33.1633234  57.9804420
  29.0453601  32.2348833  57.7905512  29.1227269  33.2510018  58.9097023
  30.1645611  80.4599829  10.4304341  30.4756950  80.3827663  11.3323525
  29.7256958  79.6273228  10.2563503  37.2650054  77.5468107  20.6005696
  36.7748955  78.0820247  19.9764183  36.9609359  77.8412219  21.4591149
  41.0061359  35.2930999  66.3821030  41.3256741  34.5722198  66.9247437
  41.7997360  35.7252574  66.0663986   1.3038778  43.5447909  23.6606625
   2.0783901  43.2585837  23.1764630   1.3815212  44.4982268  23.6947563
  82.8869849  11.4516236  23.6515072  82.7487236  11.8927647  22.8133515
  82.5707369  12.0750882  24.3053559  65.0568607  73.3628364  28.9017800
  65.0198868  74.2067762  29.3519238  65.6517723  73.5094901  28.1663826
  15.2963659  75.5086108  25.9370259  15.9499046  74.8754187  26.2339905
  15.3558847  76.2273045  26.5664509  41.4406800  26.6381718  43.9034394
  40.5506968  26.4809300  43.5881069  41.5781426  25.9705330  44.5754460
  57.7846841  14.2760636  26.3752487  57.6288869  14.5311142  27.2845963
  58.0342838  15.0899531  25.9376267  50.4776886  80.7789012  38.3468559
  51.3804581  81.0046645  38.1226376  50.1719382  80.2524396  37.6082161
  28.3846402  17.5240017  32.9136112  28.6726498  17.4413754  33.8227013
  27.7895903  16.7857291  32.7828434  37.1750140   2.1187140   4.2985419
  36.7817044   1.7668415   3.4999684  37.2320580   1.3672282   4.8886660
  27.7865529  13.6869742  20.4578522  28.4804272  14.3426873  20.5272225
  28.2449030  12.8753401  20.2401570  60.1534369  70.4711815  30.1834133
  60.2955702  70.8981748  31.0282257  60.8564642  70.8039971  29.6255425
  16.1412013  50.1786804  61.8557978  16.4600968  50.2367449  62.7564478
  16.3918364  51.0127974  61.4587307  48.0480447  78.0631228  44.3386677
  48.5305288  77.8502079  43.5398510  48.3343675  77.4065443  44.9736145
   0.9863636  69.4158908  11.0810688   1.1087104  69.8128315  10.2186897
   0.4609319  70.0526806  11.5654782  19.7177529   7.3664786  25.8266857
  19.0944170   8.0189349  25.5073479  19.5763182   7.3431899  26.7730931
  51.1545205  15.2730442  15.9092644  51.7410588  15.9567572  15.5856350
  50.9269118  14.7645451  15.1309040  21.9282031  14.6015955  33.4999302
  22.3317694  14.1961886  34.2673901  22.3481059  14.1731192  32.7540615
  81.1048558  77.5483890   9.7294644  80.8110001  76.9751330  10.4374626
  81.9227841  77.9270383  10.0517109  85.5747204  14.5825650   3.9699009
  85.0501495  14.3578364   4.7383717  86.0399395  13.7746598   3.7528780
  34.7768998  53.8295078  68.9639091  35.2884650  54.2020464  68.2457542
  35.1858902  52.9810333  69.1343403  23.3970952  31.8676306   2.8551224
  23.5743689  31.0768057   3.3644322  23.8626694  32.5620629   3.3212021
  42.6688862  73.8005352  68.5703182  42.0749235  73.9113808  69.3127155
  42.1688175  73.2837486  67.9385805  71.5108531  10.1478316  33.5782746
  71.4274638   9.9493052  34.5109394  71.9809859  10.9812046  33.5518864
  85.0793889   7.8423648  34.9086857  85.0010875   8.0171161  33.9708376
  85.7207682   7.1342712  34.9676466  64.6544864  58.1791921  17.8634766
  64.0578058  57.7033134  18.4411839  64.9721411  57.5171932  17.2494057
  10.6482410  35.6633164  25.4489353  10.0392723  36.2046076  24.9465492
  10.1525735  34.8698117  25.6511429  28.5507607  24.5084645   9.0938643
  28.9594197  23.7361456   9.4847086  28.7544941  25.2201821   9.7006396
  11.9028541  33.2240488  11.0436848  12.0821354  34.1630693  11.0919502
  12.3024484  32.8629353  11.8349770  51.3772320  20.2315546  35.1119545
  50.9172129  20.6497075  34.3841007  51.8667244  19.5158984  34.7064141
   5.2303504  11.2294127  17.7876118   6.0266757  11.7564227  17.7216080
   5.4359936  10.5661799  18.4464482   8.5649132   5.2950407  23.8777378
   7.6804137   5.1942755  24.2295006   8.9317560   4.4110991  23.8951901
   6.1205548  58.1002569  68.7516594   5.9096742  57.1701765  68.6697483
   6.3009590  58.2237816  69.6835566  34.9702096   8.4390952  26.5980366
  35.3531765   7.7904917  27.1887043  34.1166377   8.6386897  26.9824913
  17.7479577  60.4697062  16.5898636  17.6189160  61.4036395  16.4244869
  16.9871306  60.2112223  17.1100167  39.6771740  13.7699391  20.2738598
  38.9139914  13.8288237  19.6991184  39.6629643  12.8699137  20.5994061
  62.8074744  43.1337382   4.3337467  63.3789041  43.6574479   3.7721184
  62.9053619  42.2392191   4.0074232  47.6347181  76.7013927  12.9748944
  47.1013281  76.5239926  12.2001293  47.2653314  77.5049182  13.3411244
  78.0082130  74.1205263  65.6516790  77.1525955  73.8634968  65.3080463
  77.9785585  75.0769234  65.6773281  12.5893569  16.5332486  24.8330906
  13.1187272  17.2253062  25.2293900  13.1113696  15.7387282  24.9447659
  70.2892163  73.3464285  15.3826550  70.4783061  74.2049928  15.7612637
  71.1341813  72.8967567  15.3748348  36.0669064   7.1087958  15.6693199
  35.4704260   7.2338129  14.9312046  35.8190321   7.7890469  16.2954548
  20.4320451  68.8116165  31.0463551  19.4837877  68.8092848  31.1768559
  20.7406255  69.5679637  31.5452984  16.6830754  41.1625887  17.5032833
  16.1339306  40.9756781  16.7418793  16.0946393  41.0672118  18.2522038
  21.1961672  51.9012996   5.7301262  22.1032688  52.0089658   6.0161427
  20.7834884  51.3932999   6.4285973  71.7430353  46.7153645  58.9108992
  71.9113779  46.6861296  59.8527241  71.9764137  45.8411503  58.5986280
  25.5510401  44.8364283   9.8394421  25.4763484  43.9357020  10.1546314
  25.8837294  44.7507311   8.9460209  29.9854871   5.1148372  66.2836981
  30.3922197   4.9829918  67.1400976  30.6890222   5.4620128  65.7353067
  29.5195937  19.3383385  47.7221516  30.3117680  19.0268589  48.1599549
  29.5828557  18.9869715  46.8340233  42.8866219  12.0708300   6.9432095
  42.8818345  11.2447812   6.4596251  42.0785403  12.0528819   7.4559572
  37.4684104  63.9290877  26.6412476  37.6588931  62.9935547  26.5724972
  36.7216781  63.9782425  27.2380760   4.5870942  37.8184223  48.8335085
   4.3415982  38.4102345  48.1223679   4.2313552  38.2299089  49.6211386
  78.9632850  29.2458273   1.6489819  79.5029717  29.8197485   1.1053017
  79.5714622  28.5815455   1.9731405  35.5023646   4.0406300  12.7878597
  35.0835490   3.5398985  13.4879235  35.2736687   3.5695435  11.9866112
  43.5147976   9.6181561  39.1433075  43.2390046   8.9093043  38.5621861
  43.8222813   9.1740967  39.9335507  22.4941659   7.1954228  25.5622223
  22.7501368   7.8087832  26.2510613  21.5373921   7.1895529  25.5901650
  32.1111986  73.2696458   2.2331169  31.9539758  73.7847563   3.0244330
  31.4994260  73.6267777   1.5893677  45.6206870  16.0670401  13.7007263
  45.6412243  16.0226609  14.6566704  44.9867415  15.3976036  13.4434441
  25.2713036   2.8820826  17.2263077  25.4899477   3.7783553  17.4815014
  24.3143534   2.8604056  17.2239617  29.2014527  18.0417372  24.9222878
  30.0703310  17.9944111  25.3210953  28.8860201  18.9191557  25.1387814
  37.7700972  14.8178030  18.1688050  37.3889374  14.8472620  17.2912625
  38.6489701  15.1812340  18.0605248   1.4438343   2.7323748  38.9827088
   1.3591957   2.6516606  38.0326775   2.1345424   3.3832623  39.1071919
  11.3776803   7.5263096  52.4604729  11.8152117   7.4757077  53.3103207
  12.0569968   7.2945954  51.8271664  10.9612345  54.4563319  25.9088257
  10.1778578  54.1656615  25.4418591  10.7507133  54.3268134  26.8335655
  25.9308359  64.0481087  24.0823200  26.1608526  63.4045049  23.4121636
  26.4802000  64.8066040  23.8845280  40.9939885  16.3135935   9.4173601
  41.2730336  16.8671633   8.6880282  40.4720568  16.8933608   9.9720600
  78.8781741  66.2573024  13.1851986  78.4923795  65.6792327  13.8434056
  79.2165282  65.6642457  12.5143555  11.7087578  16.4487673  22.3558453
  12.0022368  16.5378882  23.2625797  10.7721662  16.6438605  22.3869732
  30.2153134   1.1823822  17.3978260  29.7648644   0.4410960  17.8025749
  29.6609139   1.4233042  16.6556481  24.6846175  14.0946795  13.5398796
  24.6681332  14.8353220  12.9337338  25.0417876  14.4567324  14.3507889
  17.7841687   5.9455134   6.6769198  18.3550381   5.5493809   6.0185745
  17.1907401   6.5038659   6.1746147  28.9948582   7.5642897  25.7923821
  28.3857893   6.8617894  26.0198906  28.4353089   8.3247734  25.6349018
  48.0484536  79.0380116   7.7467564  48.2569983  78.6032458   8.5736302
  47.1057346  78.9107700   7.6403502  42.6420044   1.6784073  41.8033150
  42.6744723   2.4663092  41.2607411  41.7268872   1.4000775  41.7669037
  81.7268565  64.1680761  30.4578236  82.2023871  64.5311590  31.2049988
  81.7823365  63.2198759  30.5764511   4.7712111  35.9796740  41.8863133
   3.9059591  35.5705716  41.8719605   5.3169393  35.3685023  42.3811653
  56.6957617  58.2735300  46.9063663  56.8108511  57.3353148  46.7555761
  55.8704948  58.4866619  46.4707756  82.1309948   2.1073978  54.9256325
  81.8064880   1.6421625  54.1546059  82.5324631   2.9022005  54.5744276
  10.1851627  59.5105954  22.5247696  10.3254434  58.8676842  23.2199124
   9.5069048  59.1219290  21.9723824  82.3985987  29.5226265  25.2417114
  82.0627313  30.2752901  25.7284573  82.2581893  29.7498156  24.3225220
  76.8374160  52.5745924  17.3453358  77.4377921  51.9445785  17.7439049
  77.4088910  53.2308765  16.9466618   6.8946599  17.4304129  15.5268696
   7.4622249  17.5079514  16.2937382   7.2721385  18.0344798  14.8874596
  36.7857384  21.1309649  41.1345127  37.4435496  20.6956269  41.6767243
  36.5150523  20.4634406  40.5041340  23.4515213  27.5562836  19.4634941
  23.0185341  27.0751978  18.7582997  23.9315581  26.8866326  19.9506977
  79.8008495  19.6397902  46.4520100  79.9266558  20.5840184  46.5460232
  80.6692677  19.2663123  46.6023377  84.3623402  64.6766778  14.5023087
  83.4430983  64.4770571  14.3251637  84.6662572  65.1256700  13.7134674
   8.5308408  36.8297316  31.2887791   7.5841999  36.9182230  31.3995579
   8.8453412  36.5339161  32.1430710  73.4706926  33.2576203  61.6619587
  73.9064455  34.0950727  61.8201447  73.2269526  33.2854557  60.7367277
  57.3202184  64.7914048  36.5187958  56.5951946  64.1715523  36.4390782
  56.8979338  65.6491133  36.5661553  73.0462027  31.8867373  56.8988228
  72.2820091  31.3114357  56.8632126  73.7302351  31.4054322  56.4333391
  49.0826273  64.8847628  58.4828377  48.4116602  65.5228615  58.2402134
  49.3999243  64.5415115  57.6475334  39.4327235  35.3613116  20.0050667
  40.2298378  35.3078915  20.5323055  38.9960789  34.5211197  20.1452568
  55.8302641  56.8237162  68.0215740  55.3071976  57.1863079  68.7365294
  55.3926468  57.1279144  67.2264719  47.9448619  70.5438801   5.9607533
  47.8887108  71.4971944   5.8954027  47.3476901  70.3170868   6.6736248
  21.3285517   6.2316920  20.6141689  21.7007708   5.3960349  20.3324536
  22.0877099   6.7993094  20.7472923  70.4210046  74.4146987  12.3260239
  69.7402480  75.0863286  12.2846153  69.9953606  73.6678906  12.7471379
  54.5462480  10.4543330  19.8029259  54.2236846  10.0535895  20.6101349
  54.0455168  10.0282265  19.1072777  13.5809588   6.1990477  28.9042214
  13.5327887   7.1130206  28.6239365  14.2165493   6.2011935  29.6199444
  29.9988293  30.5195595  24.4488266  29.8616242  30.1802517  25.3332928
  30.9350323  30.7151009  24.4098690  47.7248636  66.9546457   3.6332586
  47.4040618  67.7853056   3.2820872  48.6230018  67.1411320   3.9067534
  58.7845346  70.6115361  35.7650593  59.5345709  70.0989409  36.0665825
  58.3062097  70.0182243  35.1859120  51.1283379   1.4252354  30.3904942
  52.0413112   1.2085940  30.5796459  50.8726239   0.8076455  29.7053555
  53.1473853  59.5976398   7.2201210  52.9732349  59.7963378   8.1401402
  52.8002956  60.3510663   6.7425114  70.0583964   8.7402417   6.1473635
  70.0150531   7.9122187   5.6691054  69.4355899   8.6343647   6.8664816
  10.4327556  56.4144607   8.5191134  10.7340881  57.3010286   8.3205441
  10.5738708  55.9262307   7.7079704  13.4981608  19.9069001   6.1696175
  13.7913870  20.7638289   6.4793232  13.5271573  19.3486239   6.9466093
  20.2591678  54.9475463  22.1677139  19.5342132  54.5890089  22.6796940
  20.8482620  54.2050227  22.0340851   5.9436533  70.1795193   8.2985237
   6.5154049  69.8905416   9.0097359   6.1867830  69.6265145   7.5560263
  35.8704924   5.7970311   4.2583206  35.9388375   6.7483927   4.1779068
  35.6422829   5.6500269   5.1762226  60.6907368  40.8211565  69.8268318
  61.2420654  41.3535643  70.4002571  60.0493765  41.4368057  69.4720602
  57.1543503  39.2592788  54.0450573  58.0953646  39.1994882  54.2098475
  56.7556667  38.7366962  54.7408962  73.2210832  36.9554163  19.2445973
  73.4852200  36.6706873  18.3697346  72.6293605  36.2684895  19.5515660
  31.9857237  78.4802433  18.6551216  32.9161569  78.5416861  18.4388951
  31.8844911  77.6059242  19.0313462  69.9811273  13.6041380  23.4426048
  70.5283027  12.9642273  22.9872540  69.1458314  13.1552817  23.5731343
  33.5009694  25.7757592  60.0712967  33.5267544  26.2512922  59.2409754
  32.5925422  25.8523440  60.3630590   4.9741003  57.3474820  29.4415310
   5.1120874  58.1988211  29.0263012   5.5302545  57.3678859  30.2203205
  74.9344998  11.8797232  39.6349362  75.1395243  11.3546254  40.4085377
  75.4965573  12.6506020  39.7128704   0.4036543  49.7592761  29.3901089
   0.7485792  48.9789166  29.8240498  -0.2101019  49.4196220  28.7388256
  56.2490156  79.8678656  16.8194607  57.1036079  79.9913498  16.4063576
  56.2116292  80.5415173  17.4984577  15.6623625  11.5714146  32.4872235
  16.2313151  11.5128638  31.7197064  14.8486495  11.9495560  32.1538952
  32.4572920  27.5228526  17.8512028  32.8493237  27.1911265  18.6589840
  33.1312489  27.3881270  17.1849755  10.7967543  18.2126118   1.4008644
  11.2039876  18.6757637   0.6688193   9.9596452  17.9046561   1.0535267
  25.5560565   1.6796948   3.5412815  25.9832215   1.1433627   2.8733662
  25.4539656   1.0927941   4.2905215  52.9661679   5.4653431   3.7736586
  52.9275727   5.4642655   2.8172377  53.6253857   4.8050953   3.9875057
  45.4147434  39.1099000  63.7745047  45.8936691  38.2817149  63.8056803
  44.5866537  38.8917542  63.3468151   4.2715239  44.7818877  37.9778317
   4.0613102  45.6430937  37.6167706   4.5746588  44.2741133  37.2251728
  84.0316489  78.0343743   9.7499016  84.1153672  78.9863559   9.8042467
  84.1922953  77.8320356   8.8282278  19.5525715   4.5679622  56.0957098
  19.8774168   4.4498592  56.9883251  18.6721965   4.9269062  56.2067509
  42.7913237  34.6430922  68.6109447  43.6878443  34.3134189  68.6725950
  42.6104689  35.0086308  69.4769144  45.2455210  30.4195858   9.1596916
  45.9688067  30.1751114   9.7370318  44.4586348  30.2600314   9.6808270
  77.4504185  44.1798639  70.0199461  77.0203733  43.9994383  70.8558559
  76.8210173  43.8904333  69.3594074  84.9899464  16.2225272  20.0802162
  85.4501992  16.9733740  20.4552201  84.4659811  16.5930726  19.3700150
   5.1614639  76.8144437  28.5401085   5.5284902  77.4365755  27.9120377
   5.5673715  77.0489832  29.3746498   1.6745541  72.4330974  47.9166603
   0.7896754  72.3892773  48.2790089   1.5524599  72.7599663  47.0253229
  22.5694990  32.3503447  60.2224779  22.6906943  31.9846320  61.0987186
  23.3666444  32.8551269  60.0612640  10.8610963  42.8528906  19.8269108
  10.3748703  42.0300795  19.8799160  11.4251256  42.7488448  19.0605763
  72.1996739  78.1995722  17.5386360  71.6263392  77.9780360  18.2724217
  72.6792577  78.9733167  17.8345230  36.2441706   3.5294272  23.4200981
  35.6955981   3.7697627  22.6734093  36.5420460   2.6414753  23.2224873
   7.2612878  44.9430810  52.7027443   6.8979427  45.5488469  53.3487061
   6.4953491  44.5748671  52.2623089   0.3133696  74.5932055  64.7687054
   0.0713462  74.5745993  65.6946182   1.2460536  74.8084307  64.7692204
  29.1233325  17.3156954  35.4699066  28.5107541  16.9217993  36.0910538
  29.7511792  17.7861096  36.0183075  56.7734957  75.1625538  66.7145824
  55.8392811  75.3107262  66.5678978  56.8732786  75.1865387  67.6662636
  69.4403403  32.3622633  13.7460354  68.7223368  32.9265572  14.0328816
  70.1767843  32.6085402  14.3057087   8.2096290  34.1227509  45.2828625
   9.0114331  33.7422348  45.6413868   8.1243920  33.7279679  44.4150379
  77.6279640  76.8957996  34.6662307  78.3771849  76.3208008  34.5104194
  77.0097017  76.6779327  33.9687204  35.2759289  36.8031861  10.3488377
  35.0120997  36.3528658  11.1512306  35.0724625  36.1833693   9.6483687
  18.7679314  25.2743603  15.4572609  19.2540812  24.8119523  16.1399582
  19.3911862  25.9123351  15.1097420  15.9663224  30.8678557   8.3254698
  16.0289168  31.0520960   9.2626837  15.6284022  29.9734808   8.2792404
  15.8269807  80.4324647  17.5848511  15.8936426  80.9396191  18.3939102
  16.7283699  80.3639694  17.2701481  79.1271782  26.9109607  64.5606565
  78.8957453  26.4970899  63.7291622  78.2858944  27.1241546  64.9644232
  73.1016925   9.4582611  61.4089203  72.6896146  10.2202945  61.8160248
  73.0668786   8.7788444  62.0822811  74.7999763  76.3473225  63.7098694
  74.1721153  76.3913631  62.9887009  75.2612543  77.1854115  63.6773586
  82.0661259  68.6022711  25.6285167  81.1432266  68.8561964  25.6265998
  82.5289536  69.3838406  25.9304667  69.4449377   5.2123421  69.2772198
  68.5887766   4.8445788  69.4962311  70.0735664   4.5973441  69.6551514
  60.4798317  64.2053938  51.8762779  61.1235189  64.7046566  51.3736486
  59.7413349  64.0953302  51.2773323  56.0342646  66.3161325  70.1644897
  55.5372953  66.3079119  69.3464518  55.6196308  67.0005322  70.6897593
  56.7303085  77.0746040  64.3951797  56.8563318  76.4369631  65.0978613
  56.7963839  76.5604496  63.5904980  20.6737065  39.0503050  23.2275131
  20.6047081  39.5203043  22.3965100  20.0897383  39.5240141  23.8198021
  33.2961487  59.8539092  22.2872093  33.6608672  60.3527762  21.5562180
  33.8643431  60.0646426  23.0281475  81.8061021  50.9236961  26.6178656
  81.3226703  50.1087814  26.4820457  82.5278952  50.8813816  25.9906030
  84.7435188  27.9847765  58.7437057  85.5892181  28.0506778  58.3002090
  84.8769283  28.4289694  59.5810413  33.6039853  23.0107762   0.7616690
  32.9834294  23.3783556   1.3909701  34.4421315  23.0105473   1.2239912
  60.7253313  78.5429001  55.2977324  60.7176399  79.4563627  55.5836773
  60.6778717  78.0374956  56.1092424   0.6605834  72.4574471  53.2221889
  -0.0410253  72.3176098  52.5862551   0.9945792  71.5796947  53.4072208
  67.8487825  60.2132320  68.6393833  67.9010820  59.2964125  68.3693027
  66.9110060  60.3840971  68.7266254   1.9901752  37.1479060  18.4537819
   2.2111439  36.2320258  18.6227825   2.7595686  37.5014855  18.0074051
  27.4577475  68.1387568  68.8875389  27.3075700  67.6113844  69.6721125
  26.8361354  67.7955437  68.2456398  27.2737669  29.1099383  43.3487442
  26.4206814  28.7842919  43.0616501  27.2910141  28.9386345  44.2903355
  42.2525954  60.2012564  28.7873390  41.7888426  60.5118205  28.0097035
  41.8094372  59.3855311  29.0206555  37.6690936  28.9907576  10.4644230
  37.8161406  28.3563782   9.7628763  37.1581101  29.6881081  10.0535324
  15.0629541  75.5022903  23.0640915  14.1869184  75.1969858  22.8283337
  15.0493404  75.5542918  24.0197876   8.2780000   4.5595317  55.4678297
   9.2008516   4.3752628  55.2928305   8.2315084   5.5137115  55.5279922
  18.0697798  42.9073740  29.0309265  18.8162779  42.3665263  29.2887238
  18.4208369  43.7969996  28.9914540  11.4013218  41.2551333   4.3179539
  11.4215397  42.1905066   4.5201901  10.9713649  41.2038924   3.4642914
  32.9223990  31.5616824  12.0634964  33.3484721  30.7616259  11.7559174
  33.6400628  32.1828915  12.1871403  11.5754103  65.7588221  12.6237896
  10.8934736  65.1815249  12.9671887  11.7950987  65.3880335  11.7691067
  48.1706118  47.2426535   1.5708330  48.2538104  46.4195086   1.0894325
  48.8862681  47.2219397   2.2061613   9.2968511   6.5211464  30.5085018
  10.0623893   7.0858599  30.4022721   8.6557316   6.8675400  29.8878506
  23.0261826  33.1108166  39.1568402  23.4851193  32.4414040  38.6494091
  23.5994982  33.8763119  39.1173104  24.1376230  80.7384129  10.9636620
  23.9305326  81.5058394  10.4303673  23.3702203  80.6218262  11.5237835
  23.1027293  43.8216807  23.3149269  22.4361968  44.2437388  22.7728584
  23.8987422  43.8541056  22.7843216  45.8455443  40.2927901  11.9753674
  45.5496430  39.6943594  11.2893990  46.6719508  39.9180151  12.2800472
  24.0098357   3.2563521  45.9800747  23.8377881   3.2795788  45.0387505
  23.4621834   2.5422026  46.3061074  20.0154850  65.1443191  34.2602852
  19.5115921  65.5172272  34.9836567  19.6287700  64.2801114  34.1194847
  18.8506484  11.8153264  36.7717007  18.8346219  11.6752650  37.7184704
  18.3717370  12.6339795  36.6425541  35.3366923  30.1701952  23.8000706
  36.1333394  30.6753994  23.9624241  35.4860281  29.7536828  22.9512814
   3.6856288  10.5235302  64.3589783   3.4249982  11.4419246  64.2893028
   2.8706598  10.0566185  64.5435047  66.9123840   7.1031368  50.4476404
  67.2924185   7.2933573  51.3053226  67.5578547   6.5411425  50.0189686
  17.3270175  31.4793438  56.6660118  18.2787845  31.3853258  56.7051125
  17.0548341  31.5432162  57.5814724  62.1057847  54.6715041  17.8183773
  62.4258664  53.8137646  17.5389794  61.9412520  55.1433285  17.0019558
  18.4901359  39.3177230   1.5647677  18.7976142  39.9245206   0.8913544
  17.5377241  39.3163989   1.4691523  29.2713809  20.8454776  56.8468237
  28.7562871  20.9542871  56.0474014  29.4223022  19.9022305  56.9079781
  38.0455565  15.8912694  51.6357660  38.5617614  15.2674150  51.1253071
  38.6699033  16.2680030  52.2558451  64.9772122  37.4757658   2.3269728
  65.5752471  36.9857170   2.8912762  64.6204212  36.8192591   1.7286995
  16.3135028  15.8582747  53.1989241  15.9928823  15.9483027  52.3015213
  15.5206382  15.8204007  53.7338638  73.2672551  36.7174961  27.6011112
  73.9563945  36.9877287  26.9942406  72.7644828  36.0628506  27.1164540
  67.0871022  45.6213452  39.7068146  66.2423876  45.2727066  39.4219616
  66.9778207  46.5716704  39.6725968  39.4940415   6.5936991  12.8322151
  39.4706717   5.6959506  13.1634739  38.7936297   6.6268750  12.1806362
  52.3205709   3.1174165  43.5990429  52.7660561   3.2172444  44.4403553
  53.0211258   2.9120210  42.9799557  26.2806107  23.4993811   7.9745129
  26.6932703  22.9851313   7.2806195  27.0132217  23.8870271   8.4533098
  83.7198952  62.1766502  32.5980330  83.3571103  62.1014041  31.7154479
  83.7598828  61.2754650  32.9181886  27.8549668  67.2184033  57.5358200
  28.5463044  67.3679501  58.1807375  27.0777700  67.6248593  57.9192162
  28.5183954   1.9327417  54.7759151  27.8603029   1.3666350  54.3725920
  28.0914092   2.7868617  54.8421955  23.7658104  50.4752721   8.2752541
  23.6592924  50.9193345   7.4340084  24.4518268  49.8264166   8.1184128
  72.2443715  71.0316474  63.4581995  72.1819356  71.9178534  63.1018686
  72.9155639  70.6058080  62.9249144  25.0904489  20.6015706  61.2598467
  24.9013972  21.1948133  60.5328321  26.0246897  20.7216024  61.4302015
  20.5401227  65.1017517  44.0272522  19.8454663  64.4440348  44.0602589
  21.3223121  64.6115012  43.7741423  37.5214633  50.1194259  29.2127159
  37.1195653  49.5060780  28.5974816  38.3458486  49.7021904  29.4627789
  51.2212732  37.7022104  17.9277352  50.8087495  38.4264394  17.4570492
  50.6788638  37.5834232  18.7074211  44.2225218   0.5314474  39.5295024
  43.8820314   1.2272825  40.0917435  43.6274815   0.5165070  38.7798786
  85.4634818  45.3350009  10.6464699  84.6760878  45.8771934  10.6941155
  85.2635654  44.6806463   9.9770859  79.3508580  75.4732128   8.9593390
  79.7511199  76.3077112   8.7151411  78.4997037  75.4786011   8.5214594
  81.0417849  21.5562558  63.3639097  81.2075069  21.4793849  64.3035173
  81.3578838  22.4304557  63.1356812  10.3210795  13.9638424  54.0474319
  11.0362172  13.8029897  53.4318542   9.6422863  13.3380175  53.7948179
  26.9843435  19.2051470  45.8009434  26.3103747  19.1856277  46.4803648
  27.7514505  19.5782733  46.2351751   7.5028202  77.6025484  64.9887323
   7.9999897  78.1603966  64.3905210   8.1426975  77.3236967  65.6437349
   4.1903466  12.3529625  46.1292791   4.7731906  12.5830066  45.4056740
   4.7532690  12.3650217  46.9033623  45.7699251  11.5608108  56.6961145
  44.9208117  12.0026636  56.6935587  46.2631798  11.9938743  57.3928165
  68.8913157   4.5662423  43.4569958  68.9081767   3.9478036  42.7266052
  69.7947028   4.5888277  43.7726143  32.5317621  15.6301463  68.2003689
  32.9353642  16.4630568  68.4444952  32.5075984  15.1278818  69.0148497
  17.1045587  64.4331331  49.4528103  17.3934886  63.9326209  48.6897612
  17.8359935  65.0197632  49.6454287  43.3407607  75.5753799   7.2428539
  44.2264822  75.8008428   6.9584349  43.3035484  74.6211978   7.1766403
  31.7203450  18.4395885  25.8851647  32.0056486  19.3246627  26.1120510
  32.3219609  17.8652024  26.3588428  44.9493122  12.1469963  67.2826338
  45.3247976  11.8422246  68.1086826  44.7717762  13.0761898  67.4286175
  13.0772257  15.1623940  64.6811342  12.5335312  15.8026147  65.1402044
  13.8806677  15.6379569  64.4700575   8.4818971  25.1740122  49.3615055
   8.6011088  25.5637670  48.4954119   7.8933460  24.4340467  49.2122078
  56.8397167  51.4457007  10.0169304  56.8193319  51.1213668  10.9172753
  56.4422229  52.3150547  10.0664643  32.4021506  42.4702348   8.9309719
  33.2297268  42.7082314   9.3489531  31.7345747  42.9226129   9.4466570
  50.7742122  42.7794843   5.9076908  50.7491734  41.9644703   5.4063395
  50.2630451  43.3977281   5.3854731  32.1679598  45.7402154  10.6572369
  31.7175397  46.5765550  10.7750920  31.4703867  45.1204817  10.4438046
  50.8331039  56.4393934  13.9710167  50.4368999  55.7991417  13.3799771
  50.5428365  57.2873481  13.6349323  79.2743256  68.4500857   8.4341124
  79.9457267  68.0050727   8.9512375  79.7563269  68.8536783   7.7122906
  47.5430346  16.2170327   3.2040855  46.9440031  16.5001929   2.5132805
  48.2453823  15.7613194   2.7401209  29.4930434  10.2644157  39.2626429
  29.9323893  11.0291123  39.6347260  30.0674343   9.9806476  38.5514593
  66.0836413  77.1734567   2.0913723  66.1687639  77.0612832   3.0381563
  66.9686821  77.0365735   1.7534378  59.5113352  40.4917285  23.2590416
  59.0091660  40.1164857  22.5356796  59.6801427  39.7519595  23.8425472
  63.5965633  10.1909578  52.7078772  63.2392645   9.3029726  52.7007914
  63.9857483  10.2856064  53.5772467  24.6890211  44.8567724  33.4067702
  25.2216291  45.3900719  33.9968157  25.2631450  44.6773148  32.6621866
  51.1713746  65.2728864   7.1331814  50.6299761  64.4837542   7.1529368
  51.5906861  65.2972647   7.9933050  33.3154964  11.3861561  30.6041741
  33.1139302  12.1277833  31.1747789  32.5278401  10.8428788  30.6302571
   2.2363469  62.1404809  37.1039009   2.3896572  62.7804632  36.4088106
   1.5151021  62.5090451  37.6139951   3.3932993  63.4993501  19.8886135
   2.6304838  62.9236289  19.8348072   3.3093855  63.9291926  20.7397488
  33.5825396   2.7552134  66.1559772  33.3218861   2.4387246  67.0209169
  33.3144951   2.0595622  65.5555964  64.4015649  42.0651862  37.9654053
  64.8343256  41.2153864  38.0478123  63.4776333  41.8808578  38.1345394
  45.3164687  78.6329432  18.6880806  44.5744529  79.2271181  18.5758141
  46.0423496  79.0693279  18.2421044  70.7886258  74.7348726  67.7079391
  70.7214013  73.8498361  68.0662966  69.8998288  75.0852967  67.7668953
  70.3652575  79.9067851  12.9426029  70.7297995  79.0929933  12.5946263
  70.6644395  79.9339100  13.8514355  10.2139091  21.7554474  67.1005249
   9.8210049  22.5106788  67.5381184   9.4809532  21.1590552  66.9478083
  78.7642100  23.8178976  23.3610943  78.6246827  24.7082671  23.6835983
  78.6693099  23.8895615  22.4113110  31.2145775  50.9537288   7.5042418
  31.0591969  50.9447571   6.5597799  30.4329735  51.3664480   7.8716496
  43.5982752  13.8684130  38.1484365  44.4585896  13.6608505  37.7837300
  43.4509993  13.1952131  38.8127732  41.2936497  30.1672769  51.3674355
  41.1766577  31.0578060  51.6983509  41.8100119  30.2745032  50.5686188
  64.9598816  77.2592302  26.1840084  64.1867807  76.9250675  26.6388634
  64.6513346  77.4548765  25.2992752   3.6528632  67.6390666  59.1189432
   3.9801356  67.2641343  59.9365902   4.4418475  67.8586776  58.6234570
  39.1508672  74.0068460  31.8012762  39.4618365  74.0696109  30.8981752
  38.2294652  74.2621214  31.7556047   3.2921764  80.9966489   5.8570603
   2.8440925  80.2277537   5.5045632   4.0491506  81.1165734   5.2836207
   4.1113445  76.0144535  61.6118097   4.6067187  76.6394854  62.1411228
   4.2758557  76.2828035  60.7078457  23.5010669  78.0605132  59.5206976
  22.6104686  78.3304960  59.7447014  23.3930728  77.4804932  58.7669420
  10.1620328  12.5044942  66.0543728   9.9861497  12.9639292  65.2332640
  10.8494258  11.8756986  65.8345079  11.7294991  17.0172882  65.7744455
  10.8389449  17.2410834  65.5041504  12.2645032  17.7482784  65.4651594
  71.0486177  57.9557914  52.3435879  70.5884925  57.8415627  51.5120411
  70.3511229  58.0374998  52.9940176  85.5019477  45.1773781  57.9152870
  85.1924423  45.9561533  58.3778286  84.9251369  45.1054329  57.1547985
  67.7028179  13.4697914  52.8943443  68.0290699  13.0669689  52.0896578
  66.8287182  13.7863576  52.6663828  33.4526753  18.1003833  69.0504456
  33.8751030  18.8123131  68.5698795  32.6124406  18.4647739  69.3287516
  73.6151126  47.3156883   0.7454518  73.8440755  47.5313367  -0.1585981
  72.6593068  47.3620733   0.7680395  23.8553545  50.2983769  14.2302826
  23.3172437  50.0810828  14.9914959  23.2886907  50.8430847  13.6840084
  19.0640926  31.7454052  31.7280507  18.8149166  31.7743325  32.6517963
  20.0192308  31.8077588  31.7355561  37.7414060  23.0308270  59.0394115
  38.3875990  23.7318563  59.1244030  37.0234990  23.4255576  58.5444069
  37.7699995  23.8906026  38.7460661  38.0173469  24.7763205  38.4804511
  37.6776576  23.9428306  39.6973681  58.5304168  67.7476307  19.0820816
  58.2886103  67.4192401  18.2160977  58.0520776  67.1870585  19.6929672
  41.0234919  62.6833435  17.2322872  40.6412485  63.1348773  16.4797905
  41.9648936  62.6839276  17.0591000  35.6941700  24.3033385  56.6689587
  34.8138857  24.6652126  56.5670919  35.5535316  23.4319019  57.0391655
  44.6165225  71.0596204  62.0072889  44.2305848  71.2825335  62.8543997
  44.1682861  70.2559049  61.7439318   0.0992698  36.3221097  36.9264746
   0.9444827  36.0732913  36.5523815  -0.1111871  37.1570921  36.5084529
  52.8509572  58.4655639  18.3257511  53.4640386  58.5489543  17.5954083
  51.9888189  58.4276338  17.9116181  57.5342944  47.4816801   1.6860035
  56.8204048  47.5750639   1.0552290  58.2260826  47.0327701   1.2000588
   7.5516817  67.8890963   2.2405461   6.8723938  67.7301713   1.5851525
   8.1832000  68.4563585   1.7982510   0.8611700  61.8513150  66.8118525
   0.5565831  62.4169571  67.5214386   0.8488319  62.4122376  66.0363245
   2.3635456  80.1372572   2.1289280   2.7954265  79.9466344   1.2962368
   1.6321441  80.7083722   1.8941620  28.6929703  33.8673234  55.3604555
  27.9693866  34.4311666  55.0870752  28.6930895  33.9241552  56.3159704
  42.0831776  19.4471776  63.8011456  42.7693272  19.8589528  64.3263769
  41.3772058  19.2728412  64.4235992  18.5096478   9.4749094  24.5063523
  18.8065838   9.5575167  23.6001328  17.5770354   9.2714478  24.4352081
   6.8587682  72.8170318  59.1677856   6.7496488  73.2853509  59.9954319
   5.9669516  72.6005966  58.8956690  79.3663743  57.0296081   9.5090130
  79.9597218  56.5050145  10.0465706  79.0676740  56.4290329   8.8261393
  13.3851743   7.2010946  50.4489231  13.1591737   7.5593489  49.5905495
  14.2583895   7.5483233  50.6310225  81.6526511  51.4980264   3.2429960
  81.0404303  51.0531326   2.6569155  82.2266677  50.8020337   3.5628823
  42.2070026  16.4333034  39.1530609  41.4882326  15.8942795  39.4832921
  42.6439142  15.8795810  38.5059643  77.6527584  33.0729485  54.0980434
  78.1089318  33.6022782  53.4438705  78.3064216  32.4376988  54.3903017
  42.2920322  23.0141640  63.3419561  42.4754333  23.0282402  62.4025965
  41.5963936  22.3640728  63.4404612  36.7471194  29.2007232  46.1301804
  37.4772692  29.7215867  46.4645624  36.3732553  29.7346663  45.4292059
   6.7433331  72.8330029  51.7345095   6.9601700  73.1715382  50.8658266
   7.5287864  72.9941869  52.2572994  48.6109257   6.0139787  51.1051512
  48.0540895   6.6493088  51.5551710  48.1004333   5.7472247  50.3406429
  45.0040498  71.8969365  11.8590286  45.4942289  71.7848607  12.6735142
  44.6348825  72.7779098  11.9209507  24.5124173   8.7987544   9.0728739
  23.7652707   9.0191103   9.6291521  25.2219843   9.3556763   9.3931654
  32.2918057  32.0570016  69.3682957  31.9064879  32.5423217  70.0978374
  32.2323775  32.6560831  68.6241198  58.2561734  33.3749463  13.2974175
  59.2041090  33.2679381  13.2186917  58.0381682  34.0550669  12.6601246
  42.5571516  49.1337486  10.1216057  41.9399574  49.8318191  10.3406933
  43.0081060  49.4497611   9.3386582  19.5777604  74.3769676  65.9291553
  19.9967811  74.8722369  65.2253389  18.6629913  74.3019450  65.6574869
  69.9366000  39.5206523  19.6838692  70.8276990  39.2598823  19.9166325
  70.0464681  40.1072381  18.9354828  28.0544662  37.3433924  28.7974524
  28.7265944  36.8702626  29.2879868  27.6151896  36.6680336  28.2805800
  46.4076090  28.3896685  65.5254841  46.2499905  29.1388726  64.9509573
  45.5624962  27.9427910  65.5736303  66.9207191  28.5893130  47.8573751
  67.2834349  29.3721962  48.2718182  66.6908312  28.8716197  46.9721127
  59.6500137  58.8421901   0.0911406  59.5842412  58.0056520   0.5516937
  58.9114406  58.8391038  -0.5177376  36.0244966  15.9259355  66.5278196
  36.2634659  15.9153032  67.4546480  35.3691363  15.2336347  66.4414883
   1.5519356   2.3660160   3.4226444   1.0842943   2.1370579   4.2258385
   0.8976912   2.2739006   2.7300337  61.1358500   8.1953049  67.2803020
  61.7232847   7.5681537  67.7020121  60.2616787   7.8257746  67.4048042
  57.4157190  25.0742745  51.1870956  58.1548309  25.0989985  50.5793715
  57.1745634  25.9926200  51.3084126  47.4618530   4.0499932  45.8809471
  47.7064323   3.7670550  46.7620611  48.1303024   4.6918541  45.6413174
  72.1385005  36.1293321  22.7373627  72.1739438  35.1737465  22.6945618
  73.0281260  36.3916477  22.9739693  48.9048767   8.8838339  66.0898972
  48.8709068   7.9498410  66.2966251  48.5190248   9.3124247  66.8538761
   6.6241857  60.4030772   4.7587279   6.2870142  59.6402331   5.2284268
   6.6427538  60.1305481   3.8413313  55.4875127  59.9734158  63.0401707
  56.4407855  59.9239606  62.9690599  55.2006287  60.3035802  62.1887493
   7.3315593  65.3920265  17.3801449   7.7299902  64.5289346  17.4922112
   6.3962766  65.2132388  17.2826412  21.6940498  24.0584207  61.5377998
  22.5839591  24.1774249  61.8696547  21.4171600  23.2135558  61.8924379
  20.9451747  14.4039237  37.2405076  20.2625108  14.7920871  37.7878022
  20.4805446  13.7757051  36.6876125  85.6423500  58.8547391  69.7988367
  85.0809077  58.9204616  69.0263748  86.5047935  59.1352219  69.4926453
  58.7708953  69.6238514   6.4009693  58.7312415  70.5051204   6.7724875
  58.9890459  69.0605088   7.1434572  21.9077286  34.4574668  12.5028256
  21.7212406  34.5225706  13.4394291  22.3411175  35.2831789  12.2869423
  12.4318216  76.6226495  34.5291901  12.7634952  75.9952173  35.1714921
  13.1962011  77.1464509  34.2892170  78.4096864  33.8618203   6.5116528
  78.4460833  33.7089487   5.5674389  79.1530469  34.4379260   6.6898373
   1.9879601  78.3718533  26.2832093   1.4948580  77.9668016  25.5697560
   2.9045746  78.1956292  26.0710812   1.5913936  71.6703912   9.0915421
   2.2805282  71.9788619   8.5031822   1.1995145  70.9273716   8.6326483
  15.9214354  29.3650270  24.1299558  15.3056729  29.5187259  23.4134030
  15.6310284  28.5419393  24.5229149  77.8010702  49.7952795  45.0155592
  77.9237366  48.8952017  45.3172922  78.0644512  49.7774553  44.0954828
  85.7882598  46.2454828  13.4340409  85.0311282  45.6913938  13.2443932
  86.3159278  46.2113055  12.6361492  30.3237879  51.3596614   0.2473000
  29.5005167  51.6683217  -0.1310989  30.0579887  50.7332822   0.9205225
  75.2473119  56.3243981   6.0612801  75.6307032  56.9889732   6.6336277
  74.3155005  56.3284059   6.2802437   7.5801975  40.0523376  69.2208099
   7.0168024  40.1583290  68.4542704   8.3716822  40.5461311  69.0064478
   4.5948717  69.5600434   4.0357092   5.4284641  70.0300761   4.0151289
   4.4732448  69.3283029   4.9564341  50.6065559  32.0686865  65.2759600
  50.6805658  33.0110979  65.1255751  51.3222504  31.8653083  65.8781624
  22.0006585  16.3063848  63.0385256  22.5198317  16.9961095  62.6250410
  21.1616111  16.3297379  62.5784349  21.6811654  64.4637842  62.9309034
  21.9102094  64.3624730  62.0070505  22.0437905  63.6856610  63.3542919
  78.0344489  68.7107535  14.3748978  77.2708752  68.1990834  14.1077259
  78.7822488  68.2233210  14.0293148  78.0917027  53.6383899   4.3445042
  78.2932237  52.9745897   3.6849669  77.5447610  53.1822677   4.9840668
  75.3729916  13.1978977  48.2778788  76.1556911  13.6821020  48.5408735
  75.1163340  13.5920894  47.4442291  30.7171762  15.1783605  17.1456841
  31.1739644  14.3611403  17.3449925  31.3772282  15.8594008  17.2751072
  82.5279000  73.0779882  18.7678364  83.0533555  72.3627802  18.4092167
  81.7100194  72.6614447  19.0394810  55.2869561  73.0705972   3.1698874
  55.8528736  73.2602425   2.4215534  55.4953840  72.1663590   3.4047106
  73.9959767  42.6219599   4.2144659  74.6970895  42.2493704   4.7491148
  74.4111302  43.3460300   3.7458447  60.2104473  22.8829432  68.6625099
  60.0264883  23.3103633  67.8260279  60.5420923  22.0179391  68.4216547
  28.5767269  22.6950121  20.9940839  28.4558702  23.5121441  20.5104303
  29.1370010  22.9342985  21.7323709  62.1379805  30.5731344  65.8388233
  61.5467644  30.8059406  65.1229382  61.5643167  30.2157021  66.5165997
  77.0990038  15.4793274  60.6713772  77.4394512  15.5219209  61.5649748
  76.9147015  14.5508468  60.5292940  53.4708118  13.8309193  34.1554165
  52.9925203  13.9791441  33.3396363  52.9899073  14.3369186  34.8103428
  40.8225634  79.1219564   9.9261311  41.1110857  78.4424134  10.5354050
  41.3610032  78.9885422   9.1460589  12.7777955  59.6282310  66.2644291
  12.0134971  59.6225805  66.8406677  12.9587505  60.5563254  66.1156845
  25.5043790  73.7872583  38.5186863  25.1411769  74.6682019  38.6095595
  26.0436771  73.6687053  39.3005633  12.2780940  72.2523308  45.5931139
  12.0788619  72.4152542  44.6711636  11.4294049  72.0579678  45.9908342
  56.0812643  70.3962632  25.3387764  56.7657283  71.0593792  25.4283264
  55.4341557  70.6285330  26.0047653  70.3707888  59.6341797  21.9835308
  70.2220300  59.8590477  21.0650852  70.7546761  58.7577518  21.9563893
  67.1264079  43.6165981  32.1345452  67.4971488  43.5355460  31.2557915
  67.6595810  43.0328958  32.6742199  13.9401433  64.8395855  63.4682417
  14.0133474  65.7594222  63.2137346  14.3585822  64.3593509  62.7537394
  39.0682721  32.0350647  23.4545827  38.7485886  31.6243625  24.2579246
  39.8809814  32.4689126  23.7144089  26.7059660  28.9530540  61.0795975
  26.3854265  29.6244335  60.4773188  27.6180315  29.1933799  61.2427378
  31.9712210  33.3829403  48.3438683  31.9056082  34.2484307  48.7474203
  32.0381975  33.5605741  47.4056816  10.8375332  61.0014672  48.2252216
   9.9315927  60.9582085  48.5312080  11.3248560  60.4547018  48.8414955
  15.5967900  62.7126831  13.8654292  15.9345815  63.2194931  13.1270051
  14.6797034  62.5499887  13.6447155  46.7322063  23.5024023  57.5999880
  46.1785030  24.2203331  57.2930288  46.2668562  23.1481600  58.3577442
  40.1001120  11.5308535  45.5829763  39.2163110  11.6349518  45.2304316
  40.1460123  12.1590745  46.3037109   4.8910428  60.4999589  67.7769266
   5.3460956  59.6794163  67.9663150   4.3489671  60.6571744  68.5500184
  25.6335971  61.9742400  55.5319309  25.5844447  62.8906161  55.8040905
  26.4150283  61.6360874  55.9692526  75.8497733  29.8801899  63.7687922
  75.7902628  29.1817236  64.4205856  75.6390983  29.4520426  62.9390097
  81.9606641  43.4810742   8.0704525  81.0881045  43.0898409   8.1130150
  82.5128415  42.8914243   8.5839155  30.9543777  12.5759161  58.5488701
  31.3023782  13.2075131  57.9194164  31.3107467  11.7339921  58.2653236
  74.6649972  80.7461517  66.3853502  74.5968917  79.8162571  66.1688137
  73.7707558  81.0774255  66.3027477  49.0763858   2.6814004   6.6669872
  48.5357383   2.1362944   7.2386435  48.7592247   3.5722442   6.8154505
  53.1193876   6.4281404  45.9647369  52.7194357   6.8381238  46.7316675
  53.1136036   7.1134150  45.2964544  13.8186809  33.0457016  27.0977047
  14.2462799  33.4160842  26.3255623  13.1606933  32.4476089  26.7433480
  64.6207047  39.6133280  52.0205498  65.4513550  39.1692805  52.1910572
  64.0119410  38.9073730  51.8031454  65.5041197  53.6853560  16.0870770
  66.1691954  53.9104899  15.4365185  65.2631905  54.5228656  16.4830044
  34.4841337   5.5489004  60.1055145  35.2264571   5.9040070  60.5944824
  34.8695230   4.8850158  59.5337105  71.4256528  70.8341499   0.8543375
  70.4793265  70.8807989   0.7182339  71.7970994  71.3340755   0.1274708
  38.6271763   5.2909076   9.2163575  38.0526733   5.8113605   9.7778797
  38.8832664   4.5461357   9.7603840  81.8630698  30.0553377   7.1454313
  81.6549352  30.9882673   7.0948961  81.1816647  29.6880730   7.7084902
   0.8425352  79.7276500  53.2060003   0.5176708  79.9806467  54.0701103
   0.5431196  78.8256322  53.0922127  69.8894122  25.4630252   5.5997732
  70.4267886  25.8183857   6.3077143  70.0551894  24.5205804   5.6231669
  19.2800403  23.0999589  40.5830956  19.8306048  22.6782417  41.2428379
  19.8546553  23.2081723  39.8252439  52.5352144  10.4358268  42.0358229
  53.1162119   9.8184049  41.5914536  52.8279114  11.2970710  41.7377949
  70.6419518  45.7348587  14.9730042  70.6138566  45.5764361  15.9165791
  71.5655997  45.9021916  14.7856262   8.5320232  79.3679888  45.6074762
   8.9898846  78.5586663  45.8346176   7.7374098  79.3514325  46.1409092
  15.8897066  32.8845263  50.9279346  16.2163591  33.5886264  50.3677797
  16.5949702  32.7321124  51.5569067   8.8627168  49.9959942   6.3840655
   9.5369360  50.6705292   6.3024166   8.5775730  49.8323109   5.4851034
  70.1515722   3.7194631  56.0863352  70.4368067   4.4713160  56.6055536
  70.7542086   3.0171037  56.3307714  17.9501936   4.0439435  29.8595265
  17.3620721   3.7976404  29.1456059  17.7395221   3.4324594  30.5651692
  60.5243447  49.4466867   3.6559561  60.6868866  49.3809475   4.5969609
  61.0747531  48.7654682   3.2696608  29.3843150   1.5400238  44.6117878
  30.1620817   1.8435955  45.0799274  28.9066529   1.0164453  45.2551651
  32.7532959  55.0162991   4.1494587  32.1282482  54.8569389   3.4422425
  32.2080481  55.2126368   4.9112919  38.5587430  12.4755919  69.2968798
  37.6499987  12.2357547  69.1155148  38.8764715  12.8492224  68.4748840
  24.0821073  80.6518532  61.2592745  25.0138805  80.6172946  61.4756966
  23.9196250  79.8449566  60.7706594   8.9451811   0.8921071  21.7120579
   8.1572315   0.8610721  21.1694649   9.6679851   0.8142467  21.0893849
  23.0242133  33.2847881  27.1590328  22.1226311  32.9902768  27.0300174
  23.3662987  33.4041381  26.2730503  71.0208073  74.6769781  30.3709650
  70.9836796  74.4774134  31.3063955  70.1717189  75.0739802  30.1768756
  71.3266993  77.8435579  11.8552426  71.4822197  77.9802098  10.9206989
  71.9117498  77.1241441  12.0927265  55.1965883  31.6671075   1.6649702
  55.8592966  31.8491425   0.9987000  54.7686723  30.8653774   1.3643912
  29.2438112  33.3763434   5.2844456  28.3212663  33.1994708   5.4684523
  29.6355903  33.5244777   6.1451414  62.6393869  62.3009821  55.8186844
  62.4413803  61.3653155  55.7792595  63.5737756  62.3567005  55.6185749
  51.1366940  11.2017846  62.3880911  50.4460144  11.1080587  63.0441475
  51.6038656  11.9970536  62.6440811  10.1017353  60.9013552  63.9734125
  10.4543922  61.4259035  64.6922445  10.0766203  61.5019638  63.2285166
  62.9936552  10.0748301  66.8673849  62.3270512   9.3972588  66.9803810
  63.7415886   9.7622442  67.3764181  67.3244908  72.4079843  12.1208504
  66.6376832  71.7740007  11.9144753  66.8585065  73.1472750  12.5114182
  38.1578374  15.0311685  26.9239354  38.0627084  15.4058707  26.0482764
  37.5474930  15.5310750  27.4659729  28.3674169  10.0790513  59.2461491
  27.9307389   9.3008471  59.5924759  29.2089725  10.1040947  59.7015476
   9.3135855  79.3601665  57.5270224   9.3522427  80.2628860  57.8429890
   8.4148070  79.2537611  57.2154045  63.5938218  65.5660148   3.0759123
  63.2987073  65.1267191   2.2783163  62.8553751  66.1184498   3.3323124
  12.0704124  65.4930324  55.7266665  12.8749511  66.0100788  55.6865597
  12.3175380  64.7022838  56.2061214  33.4496403  23.5003448  32.5584817
  33.7719464  22.6196671  32.3667598  32.7039385  23.3606958  33.1421423
   9.8598597  70.6105525  66.3890600  10.0378463  70.0448710  65.6376886
  10.3917310  70.2445430  67.0957327  17.0733354  76.4344931  55.6879663
  16.2662790  76.9184772  55.5128860  17.7710387  77.0126358  55.3794384
  47.1770620  36.0077429  42.1811628  46.7526245  36.2421989  43.0064631
  48.1003809  35.8992124  42.4090576  46.5917530  77.6178356  34.1008499
  46.3775041  78.5338231  34.2777565  45.9520450  77.3449417  33.4431771
  74.8431444   7.3579818  38.7111306  75.7500744   7.6615518  38.6717129
  74.3209982   8.1599402  38.6897826  28.1798956  66.7334433  18.9726856
  27.8059503  66.3852282  19.7820976  28.6915704  66.0083934  18.6139134
   0.9175846  59.9641653  32.1068791   0.4218456  60.0836857  32.9169300
   0.2560112  59.9878164  31.4155033  77.4624160  33.7162795  29.9998310
  76.9037392  34.4933917  30.0143936  77.1703914  33.1972756  30.7492188
  68.9447072  73.5740586  36.2410858  69.6086696  73.8092466  36.8892124
  69.4448140  73.2418986  35.4955700   6.1616394  65.4878875   4.1287878
   6.6523048  64.9293419   3.5258702   6.1023637  66.3310929   3.6796454
  70.4022982  61.8623539  54.2339924  71.0239795  61.1477085  54.3719032
  69.5967009  61.4281984  53.9533451  20.8828327  75.0395056  14.7742203
  20.9263298  74.6880384  15.6635025  21.7236587  74.8038669  14.3821552
  51.7253351  16.0829556  43.4181452  51.7424440  15.7191324  44.3033409
  52.5531006  15.8024120  43.0278492   8.9863241   6.6835833  47.1892738
   8.5234630   5.8457446  47.1935225   9.8418593   6.4865130  47.5706577
  34.5975900  37.5875711  69.1274405  34.5181441  37.4323964  70.0686359
  35.5325174  37.7378058  68.9875412  32.0675254  36.6599321  65.6635380
  32.4494815  37.5157022  65.4686022  31.1478782  36.7452312  65.4121256
  45.4145765   7.0423204  48.0712175  45.5818748   7.9041910  48.4525633
  44.4603062   6.9700092  48.0520964  58.9046743  65.1842876  17.3100212
  59.0991071  66.0715028  17.0078972  59.3452623  64.6146103  16.6794804
  53.2890129  53.4205675  63.4103060  53.7818718  52.6006746  63.3772326
  52.9674482  53.4705734  64.3104887  82.4797061  74.9348255   8.5143736
  81.9719222  74.3694993   9.0964392  82.4842122  75.7863756   8.9514902
  67.5084355  19.8354145   7.8554753  66.5917828  19.8382684   8.1311014
  67.8895047  20.6023403   8.2830742  68.5205558   1.1054092  68.7698555
  68.9841464   0.4664474  69.3111801  68.9348224   1.9424492  68.9795732
  58.4559992  73.5057469  40.2305153  58.5811212  72.6753946  39.7710732
  59.2656472  73.9912768  40.0725105  55.0907254   5.8648278  15.6549957
  55.5676293   6.5764500  16.0820511  55.7639336   5.3748776  15.1827934
  79.2527011  80.9542580   7.6668194  79.0199521  81.3812991   8.4912565
  79.0731814  80.0263878   7.8186777  71.9871807  27.5421095  64.7058153
  71.7743111  26.6111732  64.7712135  72.9390907  27.5773263  64.7999334
  23.9822649  34.0782429  15.6614998  23.7526869  33.1505991  15.7162789
  23.7810254  34.4264819  16.5301064  56.1258841  30.2440500  67.8553629
  56.2754917  31.1890841  67.8828907  56.0471725  30.0410700  66.9232464
  46.8217471  71.4234038  20.3922489  46.7883971  70.4826303  20.2188519
  46.1595168  71.7976638  19.8112038  80.5676776  12.4441506  36.8664864
  79.8919445  11.9630696  37.3441628  80.1056390  13.1903340  36.4844254
  48.0194249  49.0372755  23.5937241  47.8346351  49.9125059  23.2530525
  47.9292181  48.4609057  22.8348473  43.9308500  24.1002154  18.0592167
  44.1258192  24.0079546  17.1266365  43.2010031  24.7187042  18.0912793
  55.4422045  28.3748150  59.9811840  56.3405704  28.6297631  59.7710180
  54.8999500  29.0496016  59.5727110  41.2204218  16.5419090  60.2709246
  41.9322538  16.9278264  60.7814074  41.3214684  16.9180584  59.3965483
   0.3699702  14.6956515  36.9448495   0.3049868  15.2028561  37.7540183
   0.9989661  15.1789427  36.4090967  31.1730024  58.5670884  15.9407833
  30.3123209  58.1680055  16.0680512  31.7937681  57.8809269  16.1858490
  84.9403670  66.7096563  12.7151421  84.6812823  67.5209637  13.1520489
  85.8966258  66.7450662  12.6917103  32.7016354  39.8271275  65.7336760
  33.4746385  40.2529907  65.3630829  32.7429676  40.0274849  66.6687584
  59.2029121  76.0107442  16.0187367  58.2642010  75.9438749  15.8438614
  59.2624762  76.1213823  16.9676521  47.7052858  48.9798107  16.6817311
  47.5611606  49.8444780  17.0661953  46.8331936  48.5873284  16.6411999
  38.4251213  32.6609540  62.9318571  39.0448904  33.3786702  62.8014803
  38.0859303  32.4753594  62.0562220  62.1173957  63.5369416  12.6737049
  62.1460297  63.9078208  11.7917469  62.7265194  64.0747853  13.1796005
  60.1064014  52.7569580  51.9921923  59.9490881  53.1095314  52.8680801
  59.6381378  53.3521366  51.4067650  10.4470801   0.8656432  31.6057232
  10.2207136   1.1134173  30.7092884  10.5364561  -0.0869011  31.5756252
  29.3574950  73.1859321  69.3644810  29.1777560  72.9686255  68.4497643
  29.1232345  74.1108281  69.4414234  51.2563133  42.2644854  66.9038916
  51.7734957  42.8397989  66.3401842  51.7256975  41.4303923  66.8899679
  80.6349662  80.0439735   2.2946623  80.6245187  80.5439063   1.4784601
  81.2590030  79.3361564   2.1340159  31.4443922  32.0939207  39.3728518
  31.3673306  31.1996746  39.0402603  32.3873949  32.2454953  39.4361353
  60.2954340   6.6958356  53.9025021  60.9940624   7.0075214  53.3271742
  60.3395796   5.7418478  53.8377714  33.3716702  13.1099678   1.0028675
  32.9458069  13.9594103   0.8874682  32.7380156  12.4766137   0.6658486
  58.8536644  23.4611845  60.5865479  58.5153437  23.9181066  61.3566113
  59.0442991  24.1583180  59.9589348  22.4462768  55.1374014  27.0535305
  22.4943706  54.9615129  27.9931954  21.5455362  55.4277547  26.9099930
  45.1748934  56.7544027  23.1376579  44.9538818  57.6749345  22.9962185
  44.7511533  56.5309509  23.9663628  52.7149132  64.4844909   9.2794779
  53.4063557  65.1403495   9.1900948  52.0855668  64.8805638   9.8822048
  32.4771833  34.9865127  35.6066847  32.8438520  35.7865381  35.9831762
  32.9965949  34.2806888  35.9917259  53.4520960  31.0532570  62.7576256
  52.9516888  31.8645811  62.6705599  53.5918140  30.7602215  61.8571568
  81.7062759  42.3518991  67.9758692  81.9120502  43.0607891  68.5852718
  82.0589256  41.5664959  68.3942127  31.2482577  58.5522230   9.9572590
  31.9378337  59.1151424  10.3091648  31.3489920  57.7260240  10.4299954
  58.0610847  27.9638052  67.5116539  57.7419043  28.7036109  68.0284166
  57.8529739  28.1962299  66.6067219  40.2217579  15.5362749  57.3613596
  41.1505175  15.5700207  57.1322346  40.0535345  14.6118248  57.5439072
  45.1616526  19.8809004  68.8986349  45.9784317  19.7312748  69.3747807
  45.4121685  19.8432386  67.9755688  82.4591735  59.7979029   3.3292607
  82.5467494  58.8447460   3.3364847  82.4903729  60.0342723   2.4022272
  57.6222658  20.3987050  64.3625402  56.8273735  20.7039094  63.9252424
  57.6727581  19.4678390  64.1453505  61.7078733  27.3903418  55.4583788
  61.8636465  26.4501238  55.5475712  61.4729595  27.6789188  56.3402939
  64.0516376  44.5244932  50.8480167  64.5514250  43.7108898  50.7809591
  63.3886337  44.3440723  51.5144300  48.7404680  42.9073238  69.5148230
  48.0987597  43.6175632  69.5135641  48.3567286  42.2388220  70.0823450
  19.8912167  16.3363005   1.9859675  19.8518538  17.0312811   2.6429918
  20.7425522  15.9218813   2.1263912  28.7313056  11.6740191  27.6636100
  28.0198526  12.1708071  28.0676723  28.3878636  11.4165640  26.8080425
   5.5145293  15.0419986  39.7791457   5.8626604  14.1727126  39.5807052
   5.4414189  15.4710662  38.9266276  63.3235645  14.6364939  60.6075525
  63.7774038  15.1374483  59.9298334  62.8101397  15.2887726  61.0841703
   1.7935678  72.8933259  17.1507862   2.5422832  72.4380203  17.5359562
   1.4974567  72.3151680  16.4477280  12.8701326  78.3635326   7.2421339
  12.9376814  77.6656147   7.8937319  12.0670339  78.1648179   6.7607001
  85.4148894   5.3798844  58.7484768  84.9770861   6.1609675  58.4101513
  86.2431293   5.3433587  58.2700279  32.7692198  20.7683922  26.6882446
  32.0614981  20.9167744  27.3154190  33.0250382  21.6458155  26.4037827
  19.3199181  12.0139624  25.8699063  19.9017024  11.4437033  26.3724640
  18.7258505  11.4133145  25.4198673  69.0605262  59.2927941   2.5796822
  68.8057092  60.2142819   2.6261452  69.8567155  59.2375227   3.1081322
  73.9712718  66.5896459   7.6604012  74.2843917  66.8982740   6.8101481
  73.8698438  65.6443139   7.5495461  25.6560492   4.4568659  21.9079235
  25.6196618   5.3818442  22.1514824  26.5800738   4.2225481  21.9945458
  80.0701838   1.6964699   7.7042893  80.6526952   2.2817017   8.1884506
  80.5661612   1.4593102   6.9207123  34.1175484   9.3697764  37.4398449
  34.7624516   9.0315987  38.0611065  33.8884425   8.6148907  36.8977287
  10.6373370  68.9364910  64.3980360   9.8958367  68.3790970  64.1619825
  11.3181317  68.3240843  64.6767998  74.0313833   2.3914887  19.0484265
  74.9630743   2.4763657  18.8459900  73.6158305   2.2311713  18.2011631
  37.1671655  64.2758294   1.6145971  37.2218105  63.3698102   1.3106707
  36.3469431  64.6032353   1.2454441  16.7196249  21.8377711  26.8104485
  16.3348555  21.1093165  27.2978237  16.7174172  21.5441157  25.8994034
  47.5323725  12.6228714  34.5333219  47.4540472  13.3825445  33.9562654
  46.9684362  12.8291690  35.2787423  72.3137858  73.5445710  47.6232842
  71.5033677  73.2856603  48.0619457  72.4067595  72.9200908  46.9038323
  54.5993784  62.9061695  20.0330189  54.4795659  63.6871620  20.5733231
  55.3407886  63.1185790  19.4660786  17.3725688  34.9238658  49.2329502
  17.0631027  35.8235836  49.3376780  18.1229579  34.8584032  49.8235989
  28.1721258  22.0208669  58.9624643  28.6073065  21.4791179  59.6207619
  28.3990598  21.6116643  58.1274271  39.1484332   4.6204735  16.3034943
  38.9737486   4.4038655  15.3876427  40.0669693   4.8895337  16.3149861
  79.3913987  80.7840036  57.6638699  79.7966913  80.6501267  58.5206366
  78.5979441  81.2859935  57.8500652   8.3082885  22.9225898  62.6905298
   8.8331813  22.6931071  61.9236851   7.6931208  23.5826254  62.3709059
  41.7654490   5.4672171  16.7730931  42.1442961   5.1205565  17.5808838
  41.7144942   6.4119221  16.9185951  19.3427014   9.5076109  18.4598950
  19.9422431  10.2166487  18.6924008  19.3683886   9.4761445  17.5035599
  83.9707711  36.9734140   3.5529545  84.4205430  36.1644830   3.3088902
  84.5604947  37.3964145   4.1770724  81.0766273   2.3459221  29.9721840
  80.9970074   2.7426268  29.1047028  81.2398105   3.0842329  30.5591229
  74.4910672  68.4768697  20.3434876  74.7494033  69.1587277  19.7233513
  73.5842374  68.2747527  20.1131752  40.7499599  23.4341741  59.7760153
  40.4129744  24.2394090  60.1687860  41.5648460  23.2606244  60.2472591
  75.7261184  44.8131676   5.0252274  75.4523614  45.1528098   5.8772400
  76.1942485  45.5411257   4.6163681  75.0136140  63.9125272  18.7314823
  75.7850554  63.3851643  18.9388302  75.3656676  64.6966120  18.3101776
  30.6486130  30.9284067  52.3117828  31.0553694  30.6612062  51.4875364
  30.6538486  30.1363730  52.8492689  55.3461149  73.5451933  20.8929947
  54.6768644  72.8716656  20.7717636  54.8558667  74.3666216  20.9268501
  38.9971113  37.2637510  38.8492942  39.3731952  36.7603016  39.5713282
  38.7495589  36.6044521  38.2010078  17.5449821  45.6834491   5.7631043
  17.1627685  46.2794175   5.1189259  17.7171823  44.8794641   5.2730158
  55.2976969  58.5438689   6.2005833  55.0545528  58.3777543   5.2898052
  54.5016911  58.8934990   6.6010359  65.6357813  49.9637604  64.8657227
  66.5778685  49.8100185  64.9368715  65.5608130  50.8906937  64.6389914
  68.5249236  46.2018599  12.7264050  67.8372219  46.5199955  13.3112839
  69.3415501  46.4278533  13.1716850   2.7744788  17.8605986  47.3789215
   2.6539630  18.2188630  46.4995146   1.9495410  18.0453122  47.8279209
   0.1353473   0.5688283  64.2552853   0.9687346   0.8201791  63.8571548
  -0.0944978  -0.2567234  63.8288212   9.9111816  61.8076750  10.9508160
   9.5716879  62.5072833  11.5089539  10.1655885  61.1160656  11.5617016
  75.8946374  78.6415001   8.6156395  75.2734521  78.0287572   9.0092209
  75.5620292  78.7835999   7.7294090  45.2896643  33.5312748  69.6799994
  45.3800249  34.2468858  70.3092623  46.1879683  33.3237696  69.4226551
  79.2184451  73.6670203  54.3144512  78.4619501  74.2343921  54.1660023
  79.9267724  74.0776349  53.8185644  17.1155661  42.6787519  67.4783802
  17.3053759  43.3268404  68.1567526  16.4355868  43.0859327  66.9416714
  42.5659850  57.5020214   4.5553473  43.2723072  56.8769189   4.3922928
  41.9077697  57.2983595   3.8908890   6.1310836  44.7528102  12.3680618
   6.0720369  45.7081761  12.3633507   5.4543850  44.4740607  12.9849938
  65.6732607  25.7387853  54.5526457  64.9042511  25.2368164  54.8226213
  66.0312748  25.2488756  53.8123417  69.6616459  30.8832312  51.0560274
  69.7642994  30.2036953  51.7223024  69.0385771  31.5012407  51.4382410
  39.6264100  10.8512032  66.8609142  39.1942310  10.1153350  67.2944498
  40.4940081  10.5181324  66.6316414  47.5857878  18.4260070  56.0082531
  46.8998718  18.3972764  55.3412247  47.3171091  19.1305387  56.5978956
  12.8550756  44.2424440  52.5585365  13.3128643  44.5807076  53.3281040
  13.0338025  44.8849487  51.8718958  33.6524749  23.3680749  64.4288063
  33.7961936  23.8189316  63.5967588  34.5182085  23.3346486  64.8357677
  12.7395436  80.6288947  47.1277046  13.0742595  79.7522364  47.3165560
  13.5239455  81.1622913  46.9995213  65.1826763  42.3114967  67.7467251
  65.5275774  41.9760036  66.9192457  64.5014763  41.6859484  67.9934740
  50.0651815  59.7226151   3.6267546  49.2749837  59.3795617   3.2094601
  50.2409246  59.1136130   4.3440130  33.7827206  34.4451165  68.8997936
  32.9900527  34.2989182  68.3835173  34.2519641  35.1335096  68.4284592
  47.5560134  25.7603480  18.5787705  47.5501739  24.8205973  18.3969143
  46.6366285  26.0208203  18.5229424   7.7830523  20.3751230  63.6457014
   8.5829657  19.9000823  63.4205008   7.9116267  21.2490439  63.2769680
  76.2060595  12.2668815  51.0850191  75.6216002  11.5846241  51.4154243
  76.0556650  12.2739661  50.1397371  52.1662619  63.3207770  33.3787277
  51.7603090  63.7340565  34.1407231  51.9528416  62.3919459  33.4679249
   3.2175845  29.7394705  69.5443296   2.3471469  29.3614459  69.6695185
   3.6366958  29.6648121  70.4016542  48.9295292  16.5599763  42.3461151
  49.4211149  16.6476274  43.1627512  49.3833685  17.1354508  41.7304134
  73.9679816  80.0153871  61.7502144  74.6284535  80.2716060  62.3939255
  74.2632583  80.4149600  60.9320572  72.4251082  69.6955295   6.6078976
  71.4752581  69.5924230   6.6660526  72.6222089  69.5790883   5.6784752
  25.3826594  10.8790123  34.6475291  24.4575334  10.7326686  34.8449087
  25.8175731  10.8454096  35.4995584  78.4612226  11.5307379  67.8793144
  77.9584646  10.8214319  68.2797480  78.1360912  12.3243713  68.3043623
  59.0465024  44.2078387  22.9004505  59.1866401  43.5039451  23.5337952
  58.2873347  43.9241280  22.3911312  48.2749271  19.6769214  44.9950743
  49.2234278  19.8050177  44.9820518  48.0119324  19.7412109  44.0769625
  39.6911979  39.8150039  68.9719963  38.8750291  39.4432378  69.3064976
  39.5487261  40.7613564  68.9907742  69.3405345  69.2307850  18.0181149
  70.2338174  69.2991586  17.6810673  69.3782332  68.5155650  18.6531475
  55.7112789   3.1167534  46.4325380  55.7889938   3.9666861  45.9991693
  54.8410416   2.8019065  46.1880159  77.9410696  44.5785761  47.9157305
  77.3878431  45.3586340  47.8747511  78.0505562  44.3143368  47.0022631
  21.5260145  71.4063330   9.1307810  21.5747997  71.9129773   8.3201245
  20.6477377  71.5801521   9.4693688  32.3266527  50.4849740   9.8092440
  32.2737619  51.3199862  10.2742031  31.9394323  50.6631239   8.9521816
  25.3824186  64.1497946  57.1773338  25.2183294  64.7459078  57.9080534
  26.3365078  64.1016150  57.1171379  48.9937785  58.7386533  11.4607647
  49.3041160  59.5883687  11.1478642  48.1036070  58.6670848  11.1162308
  46.7451051  66.2791558  11.0835961  46.3927009  66.2436744  11.9728497
  46.1819985  65.6920143  10.5792072  68.6706450  47.8101941  42.2260025
  68.0021956  48.4902527  42.1427563  68.5306886  47.4423214  43.0985382
  50.2487183  12.1619523  33.3940363  49.3995047  12.1070969  33.8322830
  50.6847763  11.3384032  33.6127901   9.5663881   2.9908492   7.7287796
  10.1356315   3.7522389   7.8405121   9.0338969   2.9711605   8.5239485
  54.6532822  40.8744287  56.9979668  54.7600698  41.3147783  57.8411293
  54.2990065  40.0135136  57.2205496  63.3601189  30.8635926  58.0470991
  63.5149956  30.4873109  58.9135027  63.3809662  30.1134014  57.4529505
  72.9583886  46.9270660   6.6328457  72.5772813  46.9345715   5.7548216
  72.5488808  47.6689108   7.0780447  69.5456889  45.8608403   3.8643673
  68.6987021  45.6909778   4.2766646  70.1659396  45.3295447   4.3636158
  80.7708078  10.3997923  30.9832791  81.2470489  11.2074114  31.1760739
  79.8508387  10.6255843  31.1207894  55.4891157  21.0252762  62.6822281
  55.7807827  21.8092847  62.2169447  54.5576572  20.9552860  62.4731350
  68.2435873  70.8973165   4.1947392  68.3645728  70.4601999   5.0376633
  67.2993305  71.0415622   4.1330889  71.5713265  44.2541568   5.0567749
  71.0917714  44.1406154   5.8773688  72.4128440  43.8244011   5.2097109
  26.4508700  27.8101635  46.0901737  26.6799545  28.0339527  46.9922113
  27.1091127  27.1663380  45.8285713  59.9758842  63.5766860   9.3676975
  59.5027449  63.3529921  10.1691559  59.5762923  63.0281730   8.6926439
  61.7199898  45.6054640  66.8537664  62.4938345  46.0319281  67.2218990
  62.0615101  45.0594854  66.1455917  74.5242119  26.9305682  45.2339077
  73.7859964  26.7392063  44.6554184  74.7602797  26.0823894  45.6095409
  59.7159794  72.4486323  22.6866368  60.6407931  72.3326798  22.9045990
  59.5077160  73.3326979  22.9887703  65.0452354  63.4820696   1.3784722
  65.0630262  64.2821618   1.9036082  64.5873907  62.8454324   1.9273880
  22.2316861  11.2601305  17.1291664  22.7385592  11.0399891  17.9107311
  21.4663529  11.7275645  17.4638394  70.7718709  45.6202372  26.4296654
  70.6909802  44.7117700  26.1391953  70.3447631  46.1306073  25.7416752
  69.6108630  58.2159110  17.8297833  69.5852568  59.0292700  18.3337906
  69.1429189  58.4209045  17.0203236  56.4480710   6.9935919   4.3847779
  57.1105980   7.1525074   5.0571182  55.6258702   7.2719170   4.7882059
   3.3342668  48.5118904  15.1515988   2.4687597  48.4297289  15.5520752
   3.1694147  48.9372673  14.3101052  63.3362153  57.0313819  29.6119049
  64.1405084  57.5405248  29.7125080  62.7541926  57.6001020  29.1078881
  61.3568428  66.6201731   4.3898180  60.8105901  67.3928614   4.2456177
  60.8235696  65.8884950   4.0791777  79.4303563  26.5656050  32.0260933
  78.6550000  26.4387961  32.5728729  79.5726159  25.7148000  31.6112164
  19.1514468   4.0137650   2.3927763  19.9814200   3.5672881   2.2253350
  19.2830061   4.8990752   2.0534352  72.6375866  56.9913673  58.2782936
  72.7296686  57.7754545  58.8195467  73.0025482  56.2866688  58.8134909
  32.8410458   7.8576828  15.7016686  32.1528601   7.4929263  15.1452664
  33.4929728   8.1941201  15.0868157  52.8154707  39.4925094  67.1858644
  52.4583769  38.9446497  66.4868927  53.5295916  39.9757624  66.7702532
   6.5287542  27.3284270   7.4002770   6.7551255  26.4321162   7.1520642
   7.3719716  27.7728201   7.4882105  71.5478947  52.8325351  14.6523503
  72.0030787  53.1858095  15.4167011  70.9734347  52.1544500  15.0079087
  46.6685867  18.3681011  27.4162316  46.2743902  19.1122580  27.8712821
  46.5152502  17.6232922  27.9975915  13.9070365  70.0234241  59.6243906
  14.1608951  70.4672427  58.8151836  14.3160293  70.5395312  60.3190756
  74.3908978  42.7740717  57.0596886  75.0571775  42.6093769  57.7269077
  74.7259569  43.5227680  56.5663099  35.1847624   1.6168143  37.4312618
  34.6426796   1.8447997  36.6760185  35.2341294   0.6611039  37.4108914
  18.5305235  78.0993124   9.2233589  18.2604095  77.1918150   9.3637970
  17.8255531  78.4808083   8.7001827  24.8294377  27.6637865  42.6593998
  24.6906399  26.9485737  43.2802323  24.4680333  27.3387028  41.8348149
  51.7988110  41.5523577  69.8799562  52.4024153  42.0103455  69.2950296
  51.0133028  42.0992756  69.8895407  39.6610379   9.2170168   0.7598856
  40.1081824   8.9830233  -0.0534603  40.3626751   9.5010354   1.3457802
   2.0402312  13.1439377  29.9748448   2.3612165  14.0450312  30.0099114
   2.1782636  12.8059174  30.8596733  82.6872826  69.5813894  37.9368877
  82.8038788  68.8321257  38.5210466  83.5352516  70.0253582  37.9446268
  27.9343819   9.3773104  20.0349167  28.7057518   8.8107993  20.0520447
  28.2635569  10.2208258  19.7244957  63.3697081  68.5940933  65.6058311
  62.4920797  68.6246920  65.9867048  63.3030987  67.9484940  64.9022770
  55.2925014  58.2034016  64.9873114  54.4855261  57.7166605  64.8196745
  55.3015184  58.8893700  64.3197775  36.2438178   0.6253649  21.5977505
  35.5351424   1.0608698  21.1241081  37.0321583   1.1048867  21.3431767
  50.6934595  45.0641584  68.0812359  51.5745687  44.6901655  68.0841160
  50.1305103  44.3486071  67.7857542  63.6365700  23.0654573  63.6756516
  62.8905725  22.4880886  63.5132599  63.3073425  23.7124419  64.2995501
  28.4749484  40.4614162  64.7942352  29.3491602  40.3408909  64.4234800
  28.5109305  41.3185501  65.2188015  72.3569727  68.9195824  59.5602417
  72.6005220  68.0832386  59.1634512  72.8253508  68.9341116  60.3948975
  13.5754844  72.3185368   2.6178292  14.3728420  71.8785067   2.9124859
  13.8858720  73.1206103   2.1976307  82.7769997  80.4410740   5.5350187
  83.7280085  80.5350896   5.5895546  82.6197436  79.5083018   5.6814411
   2.2308749  71.4223957  41.7477798   2.5718421  71.3882828  42.6415443
   2.9947203  71.2617683  41.1937332  65.2620220  15.1880324  67.9815578
  64.9337006  15.5311680  67.1504784  64.9932623  15.8371997  68.6316204
  77.4796870  68.9232560   4.4915989  78.0841306  69.6603008   4.5790413
  78.0219653  68.1493827   4.6442202  20.3309607   1.6157271  27.8192738
  20.5361390   2.4525620  27.4023369  19.3801522   1.6294838  27.9288414
  57.6269770  48.1489658  65.4258728  57.4980021  48.3841228  66.3447285
  58.5676479  47.9892588  65.3492785  16.9104883  68.9807244  12.5819805
  17.3222562  69.7317096  13.0094174  16.8097374  68.3334490  13.2799175
  53.8897442  14.9661852   6.7254284  54.4029545  14.1954161   6.9678477
  53.0437111  14.8349406   7.1534851  32.7791619   7.6182009  11.4123181
  32.2491526   6.9198204  11.0281399  33.0412983   8.1578375  10.6664589
  23.7154984  67.3361874  56.2122536  22.8727221  66.9073009  56.0638618
  24.2988229  66.6291046  56.4879227   7.4940443  16.4731337  11.3940933
   7.2247552  16.2421538  12.2831085   6.6751146  16.5225531  10.9009960
  82.3036769  71.6913696   8.9184740  83.0331805  71.4301987   9.4804695
  81.7929747  72.2975083   9.4551399  53.9005208   2.3048998  41.2914398
  54.7439599   2.6304509  40.9770134  54.0871930   1.4200331  41.6051224
  79.1887000  71.0248013   4.9368981  79.6316436  70.8127065   5.7585076
  79.8970321  71.2530680   4.3349102  23.8949990  11.5660979  14.8633602
  23.9800000  12.3678566  14.3474320  23.2167363  11.7670180  15.5082062
  68.4361601  42.0767784  20.0024605  67.9729986  41.3948822  19.5159125
  67.9173994  42.8681946  19.8583198  71.9469452  42.5957108  67.2035074
  71.2469959  43.1688643  66.8907785  71.7628670  41.7489958  66.7967892
  32.1286749   4.6185662  17.9209545  32.9840827   4.1890456  17.9161671
  32.1522974   5.2077605  17.1669510  13.4805464  31.7403485   1.9622114
  14.1814208  32.3748232   2.1120623  13.9329218  30.9469868   1.6755655
  14.3155360   2.3486067   9.4697645  14.8283362   2.9987408   9.9499634
  14.9395108   1.9536187   8.8607720  48.3467602  47.4021555  10.2411774
  47.8694844  47.2610690  11.0588196  48.2162117  48.3298136  10.0446537
  31.6706634  24.9547434  52.2783232  32.5488234  25.0584841  52.6447964
  31.3202453  24.1770148  52.7125835  25.0052714  16.7785813   7.4673250
  25.3013253  15.9419085   7.1087673  24.1756606  16.5741278   7.8988054
  53.9527464  65.4106855  52.2086668  53.9163351  65.4322290  51.2523985
  53.8204813  64.4895172  52.4326992  50.2258038  11.8303515  11.0916069
  49.6295714  12.4453093  10.6643418  50.9721398  11.7670561  10.4956082
   8.0837795  65.4750963   8.7809160   8.5513803  64.6402188   8.7572220
   8.5324117  66.0193368   8.1338003   0.8428019  37.0715618  46.9378471
   0.1867217  37.7352571  46.7249966   0.8896083  37.0790124  47.8938770
  11.8968460  73.3718916  12.8030995  12.7962133  73.6957475  12.7532032
  11.5842077  73.6641045  13.6593083  13.2751056  66.7174240  30.6912449
  12.7329513  67.0734282  31.3951996  13.6679002  67.4868294  30.2789810
   6.7062425   8.5511662  17.9975250   6.3542151   8.9590813  18.7886646
   7.5043082   8.1108691  18.2898644  74.7050953  29.4335890  58.7529373
  74.9975443  29.9824977  58.0253410  73.7894773  29.6792436  58.8853359
  77.3436787  64.8433014  15.0518444  78.0499223  64.2965551  15.3961209
  77.0259097  65.3307339  15.8118847  73.9107466  23.3770657  44.4870186
  74.3612337  23.7290931  45.2547216  73.0503750  23.7963462  44.5009947
  42.0649218  22.1501614  14.1865662  42.4212479  21.6694046  13.4394768
  41.5787291  22.8756215  13.7947014   6.5962046  48.1585646  57.6811838
   7.4513644  48.5634756  57.5363159   5.9855002  48.8947868  57.7164793
   0.4103061  61.4379903  17.9335240   1.2159845  61.3572403  17.4230412
  -0.2698782  61.0743614  17.3666409  32.4391436  52.8244044  15.6949070
  31.9381928  53.4500243  16.2182453  31.9109606  52.6937891  14.9073818
  19.7452807   7.7634121  35.5248383  19.4820237   6.8431736  35.5340222
  19.7687792   7.9965617  34.5967606  12.6268503  64.4171401  10.5115059
  12.1062204  64.1351744   9.7593954  13.4169504  63.8782807  10.4714230
  40.8821964  73.5317802  53.5155106  40.8785486  72.6513100  53.1400347
  41.5364265  73.4919691  54.2131042  53.9082146  64.4141293  68.9287233
  53.0695629  64.2620659  68.4930944  54.0519857  65.3571129  68.8490582
  80.8385563  41.3161516  60.1302814  80.3823185  41.6389608  60.9073687
  81.7383575  41.6253710  60.2350855  49.7577190  43.9643002  64.7933722
  50.6237459  43.5760593  64.6688938  49.9063778  44.9075794  64.7273540
  47.7979874  12.8213479  10.2147320  47.6358342  11.9788100  10.6390694
  47.1350169  12.8743388   9.5263317  40.6112119  75.3061076   9.7874668
  40.6453630  75.2528544   8.8323620  39.7143480  75.0558682  10.0093868
   3.3920335  31.8849064   3.7148550   2.8758692  31.7391802   2.9220322
   2.8678488  32.4956013   4.2330387  70.3974393  75.8240720  16.3500813
  69.6130040  76.3689419  16.4134243  71.0834649  76.4247962  16.0589913
  31.7753005  24.0394236   8.3870390  32.3892998  23.3198859   8.2403734
  31.0091900  23.6236788   8.7825897  12.6659652  53.4334536  29.9064663
  13.1331226  52.7720626  30.4169110  13.2759926  53.6723717  29.2086056
  70.7834387  68.2086134  51.5341043  70.9099150  68.7757158  50.7734251
  70.4549456  67.3872280  51.1685133  18.1922075  70.7313438  25.5033615
  18.1306621  71.4488836  24.8728302  18.7658903  71.0665317  26.1924008
  70.9811783  47.8754616  63.2417965  71.8539476  48.2378244  63.0894756
  70.9197664  47.7906466  64.1932487  67.1896362  48.5964298  52.0552778
  67.7083063  47.7990246  52.1618891  66.3048029  48.3436203  52.3187065
  80.3403187  80.4870796  49.2224407  79.5485067  79.9611521  49.1098976
  80.9729385  79.8862886  49.6162319   2.7225894  36.9400263  45.2093077
   2.1447486  37.0629287  45.9624529   3.3105773  36.2317181  45.4716158
  23.9253637  54.2545827  14.5332077  24.4778082  54.9371668  14.9141529
  23.1744882  54.7270330  14.1737488  75.4765034  40.4113770  40.0961828
  75.1397896  39.5386219  40.2990437  76.4228249  40.2907324  40.0177383
  65.3919220  33.9140582  46.0077238  65.3208733  34.8680687  46.0401249
  64.9600029  33.6144114  46.8076563  67.9818106  33.1946898  45.1051235
  67.0514488  33.4068656  45.1802301  68.3147526  33.8064861  44.4485521
  15.4515096  64.3107649   7.0424631  15.7865879  64.1232487   6.1656550
  15.0220796  63.4993239   7.3133686  62.1423674  32.6739597  60.3767443
  62.3302174  31.7387867  60.4567051  62.9158497  33.0376458  59.9458361
  49.9522495  57.2545099  54.9879074  50.2227974  57.2255278  54.0701962
  50.2515841  56.4215231  55.3522730  59.0611696  45.2875614  67.1740246
  60.0101185  45.3986645  67.1158314  58.7582350  46.0607719  67.6500559
  47.0181084  20.0021267  42.6790237  47.1818876  19.6767092  41.7938614
  46.8821526  20.9429741  42.5669813  29.0060687  12.9591824  13.2842949
  28.5754179  13.6164690  12.7377156  28.9242100  13.2980563  14.1757515
  55.7001617  78.1886717   5.5463007  56.0175183  78.7232991   6.2740973
  55.0478342  77.6098891   5.9409073  78.8928080  54.1081095  45.1478243
  78.1871891  53.5252428  45.4281902  79.6953630  53.6279297  45.3516865
  28.7580180  30.1507737  26.9421890  29.0443778  30.2630402  27.8486183
  27.8023409  30.1335980  26.9933060  24.1834092  15.9151198  11.1899594
  24.3598961  15.1064660  10.7091740  23.7261462  16.4729620  10.5607060
   7.1818041   2.4903037  15.7558182   8.1347608   2.4403359  15.8307198
   7.0292806   2.8773953  14.8937634  49.9659940  51.1652811  17.3279980
  50.0808641  50.3665515  17.8428391  50.3563425  50.9607383  16.4782742
  40.6617236   3.9045168  21.1176995  40.0768828   4.0014388  21.8692330
  41.4861559   3.5963465  21.4939621  24.2557692   6.1193253   8.9049557
  24.4170928   7.0597483   8.9811781  23.4348082   6.0559298   8.4168604
  43.1447434  29.9083067  10.7366493  42.1896672  29.8909451  10.6753281
  43.3224749  30.2704455  11.6046932  54.3392181  28.7922573  69.1247225
  53.9875841  28.1598854  68.4980726  55.0999308  29.1695881  68.6829376
   2.2702667  57.9680033  11.6118267   1.3384172  58.0191704  11.8245819
   2.5381490  58.8786479  11.4885452  72.1207571  30.7600045  70.0352287
  71.7020798  31.3737011  69.4316387  71.4584637  30.5945396  70.7062101
  13.1346318   2.6583938  69.4446095  13.6323068   3.4483985  69.6554303
  12.2977683   2.9838733  69.1130190  64.1560936   2.5663933  38.1999230
  64.8005533   2.0228827  37.7466011  64.3983555   3.4643200  37.9734969
  31.4301491  34.9746823  63.5590219  31.0780883  34.1783285  63.9566469
  31.7620277  35.4847622  64.2978764  64.3990639  75.9618636  19.4851616
  63.4510544  76.0230275  19.6025112  64.5105818  75.6896253  18.5742882
   1.4405173  42.8956604  53.7988758   1.9250316  43.7067366  53.6451530
   1.3564795  42.8436470  54.7509575  27.2317314  18.6226106  69.6159887
  27.3694277  17.6962221  69.8136616  27.9547453  18.8530660  69.0325737
  34.2114520  39.8099543  39.0395954  34.2271876  40.7620074  38.9417675
  34.8762822  39.4952179  38.4270886  48.7239054  69.2047950  14.5190361
  49.2768529  69.8264285  14.9923828  47.9948309  69.0311309  15.1144531
  30.3745484   0.6305005   7.9709032  29.5061469   0.3063466   7.7320889
  30.9563517   0.2734925   7.2998694   4.3900698  42.6506901  65.1192284
   3.8366145  42.5334167  65.8913422   3.7748164  42.8328896  64.4089508
  56.8525246  67.8673716  16.4126042  56.1132005  68.2015534  16.9204930
  56.4579537  67.5317117  15.6076935  61.5422749  21.0356070   7.2988251
  60.7751488  20.4783369   7.1676520  61.4546322  21.7230679   6.6385630
  74.7349280  14.8467614  15.9312847  75.2501767  15.2121951  16.6504505
  75.1754468  14.0250899  15.7144097  57.6157379  52.5888252  63.0259800
  57.0560646  53.0456924  63.6538935  57.0708275  51.8751049  62.6944733
  48.8631939   1.4680935  20.4975060  49.1806817   1.2011076  21.3601521
  49.5645689   1.2177826  19.8961380   0.7303020   3.2948833  60.2872133
   1.2866899   2.5225692  60.3881741   1.0644838   3.7299400  59.5028114
  72.3673937  45.0372448   9.9866417  73.2477400  44.8134096  10.2885082
  72.3125765  45.9871169  10.0913742  65.2156809  77.4526044   7.1732882
  64.6885135  76.8078156   6.7015150  65.0137284  77.2980805   8.0960968
  30.2733588  20.5484415  39.0894154  29.9648547  21.3445498  39.5221642
  29.8649048  19.8353697  39.5802620  25.3543686   5.5509068  18.0149582
  25.1977705   6.2320115  18.6690262  24.7085022   5.7236411  17.3299339
   2.6255816  67.5693989  28.8463831   3.3043021  68.1757927  28.5499954
   3.0390853  66.7072201  28.8028455  42.7077460  23.8594366   2.5476340
  42.1032738  23.3793236   1.9816569  42.4906277  24.7804476   2.4033049
  64.0032101  29.2569518  68.8902426  63.2649136  29.8320389  68.6891794
  64.7628021  29.8391724  68.9065838  53.2141232  35.8585860  10.3036049
  53.6269974  36.7158486  10.1993492  53.8818478  35.2348734  10.0183705
  74.1789341  39.5831156  46.1525297  75.1092911  39.4728255  46.3487530
  73.9473534  40.4210424  46.5531301  64.0605211  59.5436287  47.6562262
  63.5342216  59.1579151  46.9558954  64.4638634  58.7937307  48.0934858
  73.3877873  18.2009484   0.4624632  73.9969563  17.4704052   0.5694798
  72.5827813  17.9058482   0.8880308   6.5049857  26.7419147  65.3107643
   5.5600375  26.6135240  65.3933287   6.5941161  27.5810981  64.8590374
  15.7480311   0.9013106   1.5112761  15.0290465   1.3340069   1.9717863
  15.4657578  -0.0095771   1.4286020  82.3589230  22.3015666  58.6760283
  82.6677322  23.0100203  59.2407942  82.5682640  22.5938964  57.7889252
  54.5124149  41.3882017  66.4874887  55.1612663  42.0527029  66.7191458
  53.7811565  41.8851089  66.1206484  36.5883851  34.1493487  69.0199804
  35.6505823  34.1139412  69.2084026  36.7016315  33.5789466  68.2596874
   6.6151732  27.5609255  26.5885639   7.4298590  27.9718924  26.2994051
   6.7496413  27.3927355  27.5212288   1.2719032  14.3310791  57.8981924
   1.6454336  14.0575081  57.0604181   0.4350158  13.8693195  57.9494953
   3.8037655  56.0165199  16.5527561   2.9420969  55.6362434  16.3820198
   4.2985889  55.3110560  16.9695309  50.9171128  11.9600464   1.2228468
  51.4760804  11.2240292   0.9737137  51.5115952  12.5800110   1.6453055
  13.5396361   3.3567120   0.3051117  13.3875775   2.8740384   1.1175993
  12.7277684   3.8424183   0.1595381  45.8851361   2.2149350  10.3279999
  45.1164841   1.9658925  10.8412102  46.5810704   1.6386916  10.6439808
  28.1401324   1.8701674  15.7213619  28.0404496   2.7530219  16.0775402
  27.2482132   1.5247179  15.6843308  31.5785861  17.4894740   6.1620215
  30.9061265  18.0408646   5.7620266  32.2835469  17.4640776   5.5150154
  27.3462316  77.7163263  39.9258545  26.7792055  77.0590134  40.3291538
  27.2499963  78.4893843  40.4820469  79.6475267  38.6018920  67.5991440
  79.3033838  39.3475914  68.0908060  79.9424744  38.9775109  66.7695999
  79.3022251  63.8337517  62.9614162  79.1666889  64.4775295  62.2661400
  79.7670221  64.3148804  63.6460400  17.4382326  74.2116972   6.3830736
  18.3653280  74.2035981   6.1450365  17.1769354  75.1285430   6.2973383
  69.0979767  49.0429258  55.1770639  68.3468914  48.5423803  55.4957485
  69.0283108  48.9983273  54.2234421  54.7811627  42.5094534  11.7653778
  54.3157982  42.9878069  11.0791996  55.1985478  43.1913115  12.2917679
  55.7330132  45.1858139  69.0154123  56.1771584  46.0189009  68.8574982
  55.8758974  45.0107574  69.9455595  53.6386251  55.1481438  48.4444237
  53.2175827  55.9031153  48.0333662  52.9274368  54.6937275  48.8960266
   8.7030670  57.4294432   3.9907530   8.2735893  58.2324572   3.6958769
   9.6016189  57.6959272   4.1852215  71.0943699  44.5690870  56.2962389
  71.2454605  45.4549599  55.9666348  71.5957642  44.0055275  55.7069683
  84.5448642   6.4297797   8.2891825  84.0642195   5.7512118   8.7632731
  83.8852816   7.0931412   8.0863693  85.2144339  76.4136978   4.3418148
  85.8968356  76.4038153   3.6706475  84.5360616  75.8299561   4.0022734
  77.1843386  56.9330168  55.8083725  76.7958593  57.1451759  56.6570807
  76.5673065  57.2862768  55.1675034  64.5043757  64.7827264   5.7151011
  63.6976078  64.7381540   6.2282971  64.2232683  65.0896283   4.8531130
  60.2005791  13.9568879  29.4610718  61.1003994  14.1348196  29.7347286
  60.0430512  13.0517842  29.7297791  71.5052986   8.4511530  64.8985386
  70.8093357   8.0140853  65.3892994  72.0160580   8.9107132  65.5649900
   5.4662186  37.0462823  61.5209293   4.7534406  36.4298964  61.3528538
   6.2570339  36.5754485  61.2579489  29.6379923   3.7405755  33.6736134
  30.0348925   3.4333826  32.8585461  29.2584967   4.5903613  33.4498146
  73.4554007  60.2920790  20.5406979  73.2548907  59.8475869  19.7170094
  72.8413918  61.0257049  20.5726078  40.0259089  23.7947346   4.4375494
  39.5532488  22.9664160   4.3556717  40.0191807  24.1627003   3.5539273
  58.8965845  73.2874107  45.3825426  58.0623436  73.7059879  45.5948353
  59.3317366  73.9050484  44.7948360  66.6539478  52.0201492  70.0117350
  66.7162848  51.5377235  69.1873503  66.8547010  51.3703394  70.6852865
  73.2737970  13.5627675  66.2921762  73.3135509  13.1748831  65.4179907
  73.4285164  12.8289974  66.8870497   3.9026755  52.4077654  67.5322199
   4.7139090  52.9085445  67.4464989   3.2161445  53.0147600  67.2556877
  61.0501313  78.2095839   3.9418867  60.4043984  78.8307692   4.2786148
  61.8577504  78.7184645   3.8710049  26.4850783  35.1855065   3.6588410
  27.2383427  35.5990340   4.0805271  26.8609499  34.4715001   3.1439236
  31.9924664  20.4582621  11.6607502  32.4595761  19.6280266  11.7543343
  32.4298691  20.8983399  10.9318951  43.4228348  43.4904219  17.5784043
  43.5617613  43.5533167  16.6334370  42.6113247  43.9736582  17.7338722
  45.5168890  43.2240321  20.8506230  45.1087117  42.9443003  20.0312546
  45.2781653  42.5446822  21.4812782  49.8272395   0.8159090  10.2672032
  49.0944743   0.8137537  10.8830574  49.8962140  -0.0926088   9.9738243
  57.6233244  46.8727827  62.4559975  57.7317190  47.8102636  62.2959805
  58.5165262  46.5397358  62.5425911  37.3579430  14.0168501   5.8930376
  36.6751837  13.3878876   5.6596306  37.1701121  14.2476345   6.8028143
   2.5773257  32.9257178  38.7740254   1.9969958  32.1647358  38.7927055
   3.2724303  32.7121735  39.3964887  31.0340237  58.7869097  13.0466679
  31.0220074  58.7702300  14.0036514  31.4668059  59.6119238  12.8269222
  26.8293115  22.5558715  45.6696939  27.6442453  22.5876670  45.1685858
  26.9728204  23.1591564  46.3988638  20.2437472   7.2426440  30.1898506
  19.7906947   7.5344206  30.9809521  21.1173558   6.9941641  30.4920033
  33.5212922  30.4911686  17.9184464  33.0313706  29.6701456  17.9646519
  34.4364237  30.2202155  17.8452995  21.4126324  15.2625109  11.8786076
  20.7667803  15.4569603  11.1994198  22.2530722  15.4939629  11.4832333
  49.2813969   9.3526345  55.5452156  48.9613914   8.4553474  55.4519224
  49.2440796   9.7135442  54.6594524  38.3925890  21.3848092  27.7971008
  38.1216597  20.7617308  28.4713486  38.4396719  20.8644272  26.9950989
  16.1678809  56.6070414  38.5437369  15.8245963  56.4725494  39.4270849
  16.1066550  55.7463503  38.1293702  20.3849098   7.1925121  55.1291227
  19.6036455   7.7449089  55.1560450  20.0474521   6.2979656  55.1752615
  49.2219067  70.0859928  44.6069622  50.0348330  70.5316687  44.8452091
  48.9531422  70.5001831  43.7869358  56.6799164  35.7572794  62.4117804
  55.9742832  36.3762975  62.5992107  57.1132946  35.6256104  63.2550383
  77.7932286  31.2104060  11.3581875  77.2404599  31.4475657  10.6135872
  77.2497963  31.3876749  12.1259716  69.6654701  50.8423138  63.6895466
  69.5224810  51.7444372  63.4032679  70.3577948  50.5155706  63.1149578
  51.6343712  22.8235842  24.6987942  51.6516804  22.5454499  25.6145313
  52.2741341  22.2590853  24.2648915  74.2875102  79.7578617   6.4877394
  73.7468436  79.5246573   5.7330683  74.6243384  80.6296225   6.2808254
  60.4505014  47.0978355  41.3300228  61.3848639  46.9255638  41.4463091
  60.3258657  47.1121120  40.3810787  23.1309148  68.7456985   1.1061695
  22.4742815  68.1148954   1.4013985  23.9584657  68.2663079   1.1459091
  72.0058918  30.0748682  59.8613548  71.5443897  30.5088806  59.1438007
  71.8763399  30.6524897  60.6135511  76.9193411  65.6395912  63.6433411
  76.2068224  65.0147915  63.5085297  76.6687632  66.1223364  64.4309998
  22.5673079   6.0330416   4.6212748  22.5022912   5.2917935   4.0191487
  23.2774758   6.5680243   4.2667464  55.5065155  51.0308933  64.1925383
  55.7259130  51.5796089  64.9455357  55.1385593  50.2345753  64.5755720
  33.7032532  17.0980860  27.5456265  32.9252219  16.5537621  27.6665047
  34.4215750  16.5698410  27.8937653  83.6686802  77.8297424  66.2358856
  83.6877537  76.8842793  66.3841152  83.1697273  77.9351616  65.4258442
  68.7506342  47.9151678  61.8458414  69.6739340  47.7179050  62.0034409
  68.4019184  48.1353140  62.7096462   1.2849921  26.5362334  67.5888538
   0.4735297  26.0318708  67.6469851   1.2597770  27.1188378  68.3479118
  38.2264447  35.1710297  26.8305901  37.6540732  34.5751454  26.3473252
  38.7200808  34.6023776  27.4215058   3.4170627  23.1228472  11.1466816
   3.8637375  22.8066279  10.3613690   4.0846419  23.0892874  11.8318394
  15.8905816  17.8780295  19.7294262  14.9558901  18.0670668  19.8121861
  16.2213492  17.9077078  20.6271675  82.1175557  32.5264622  10.9327725
  82.7508693  32.8714396  10.3033760  82.5256377  32.6704384  11.7865685
  25.9739470  27.7550484   6.3951567  25.9988951  28.4164931   5.7037094
  25.8572602  28.2564331   7.2021464  35.0922799  26.2231566  11.4722279
  34.2195820  26.2798668  11.0831097  35.6864285  26.1819722  10.7228783
   0.2708739  68.2030344  27.7813673   0.0571650  68.9224672  28.3754849
   1.0756892  67.8280830  28.1390262   8.3026191  37.8473621  21.1570239
   7.5189230  38.3886772  21.2520719   8.5194036  37.9011207  20.2262473
  78.2341433  54.4147253  54.8260689  77.8109646  53.9835262  55.5685091
  77.6945686  55.1873875  54.6584749  25.0640416  23.8722016  23.5854939
  24.1216492  23.7110354  23.6319664  25.4364085  23.3142735  24.2683533
  72.8037214  55.9785986  52.7207851  72.2349072  56.7484570  52.7187490
  72.5597906  55.4984808  51.9294453  75.7961896  17.0282417  63.5663700
  76.1332372  17.5212150  62.8182983  76.4862731  16.3960128  63.7671185
  52.9992580  63.5903168  48.0917215  52.6561737  64.1448307  47.3909760
  53.5479403  64.1758394  48.6135912  21.7683863  24.4533659  23.5912922
  20.8155751  24.4334771  23.6806420  21.9320750  25.1136900  22.9179314
  44.9604058   7.9236771  28.2818440  44.6598553   7.0956398  27.9073361
  44.5285582   8.5957743  27.7545670   1.9911596  15.1630359  49.7259235
   2.2297737  14.2412525  49.8239660   1.4212057  15.1824337  48.9571524
  23.8241216   5.9799820  53.2581854  23.5758993   6.7943054  52.8205967
  24.3830702   5.5288463  52.6255035  53.6736584  56.8275213  57.8415060
  54.1653824  57.1852064  57.1022511  54.1508865  57.1285582  58.6147213
  68.0651951  80.2892303  42.2176981  68.1509256  81.0056782  41.5887451
  68.9651632  80.0116539  42.3887014  62.3217630  72.7674580  35.5004549
  61.4154959  73.0710459  35.5528975  62.5771189  72.9313898  34.5926261
   6.3378733  54.9305868  49.4713163   7.1868819  54.6037531  49.1736603
   5.7712859  54.1590977  49.4725513  38.4225869  12.6823021   8.4147099
  37.6329159  12.2557665   8.0819681  38.1996369  13.6128355   8.4399822
   8.8537046  80.1389738  15.2814797   7.9967710  79.7566696  15.4705265
   9.2196199  80.3439446  16.1418942  23.8033980  68.8977528  46.9485044
  23.5932750  69.2343664  47.8195810  22.9632300  68.8780069  46.4902782
  51.8541550  31.8719126   9.3184927  51.7522931  31.2929465   8.5630825
  52.7753376  31.7856194   9.5638970  57.5893235  10.5717684  24.6305683
  58.2301163  10.1115586  24.0885189  57.8644681  11.4880873  24.6008328
  75.9923697  68.5590267  68.5689020  75.6152391  68.1360722  69.3403387
  75.2578592  69.0228891  68.1669617  44.1673636   8.5659148  44.1397694
  43.4442257   7.9818989  44.3683079  43.7592673   9.4265009  44.0444973
  50.2886295  66.6977453  65.3191614  49.9219227  67.5658417  65.1513338
  50.6913233  66.4432478  64.4889212  76.5564489  44.2082262  52.3442936
  76.5660334  45.1497221  52.5167179  77.4664593  43.9344454  52.4590015
   5.6353301  54.1315985  22.3846769   4.7754210  54.4250154  22.0835114
   5.4629058  53.7080574  23.2255793  79.2868662  69.1344166  54.3576002
  78.9508629  68.2383823  54.3789291  78.7895775  69.5928812  55.0349140
   9.0803930   6.9755989  42.2264528   9.3650028   7.4044471  43.0334949
   8.2141420   6.6252475  42.4340439   9.4277781  51.2482071  66.5870762
  10.1505011  51.1418438  65.9685326   8.8932914  51.9485378  66.2127876
  75.7771611  60.6348731   6.1914471  76.0850644  60.3740527   7.0594385
  74.8365521  60.4581953   6.2078837  70.9755850  79.3241024  51.6409540
  71.9318771  79.3519020  51.6098213  70.7043600  80.2280235  51.4809513
  74.6802187  20.3689456  66.2828875  74.3416929  19.7634065  65.6233788
  74.4364977  19.9726892  67.1194363  83.6392307  59.3949986  59.8728800
  83.5482407  59.2095852  60.8075333  82.7450943  59.5589161  59.5730639
  46.0516739  61.9093037  52.6049089  45.8968735  61.6265821  51.7036104
  45.2567530  62.3845387  52.8467369  77.1446085  48.5876274  50.0514174
  76.5775490  49.0875196  49.4642305  77.8128576  49.2139196  50.3296947
  77.3556187  53.3110936  13.2311085  77.8108170  52.8704675  13.9486531
  76.5993216  53.7258681  13.6460808  26.8931982   1.1960273  67.5384045
  27.6863500   1.4749866  67.0808887  26.9680521   1.5881782  68.4083748
  37.4470639   2.7755286  43.1302860  38.3320593   2.9256178  42.7978924
  37.5787186   2.3892237  43.9961174  78.1130791  50.0974131  41.7464495
  77.8663826  49.8585987  40.8529520  78.4988165  50.9695101  41.6634369
  14.2235443  21.0312420  70.1233530  14.4775793  21.9139915  69.8541975
  15.0476095  20.5456691  70.1603794  28.1481385  15.4537560   9.0583924
  28.0094599  16.3846852   8.8841179  27.8161454  15.3243472   9.9467972
  48.4162474  78.1087780  62.2796869  47.6759148  77.5023603  62.2996473
  48.3091021  78.6435366  63.0663109  79.9435809  22.6918083  41.1378717
  80.8294680  22.8996711  40.8408499  80.0453332  22.4816661  42.0661592
  74.9918604  71.4708233  37.3620701  74.9694300  71.3462400  36.4132786
  74.2324400  70.9860373  37.6853180  85.9104729   7.3035431  66.2268114
  84.9991894   7.3134965  65.9340620  86.2140274   6.4162785  66.0348558
  52.8306675  64.8741102  39.3549585  52.8036213  65.1526308  40.2703428
  53.7558985  64.6962929  39.1859484  83.3817389   6.0026603  63.1601477
  83.5226252   5.9294754  64.1040897  84.2334988   5.7980877  62.7742863
   5.7141945  71.6630097  25.1047734   5.0263569  72.2795816  24.8538712
   6.3187906  72.1816369  25.6355408  47.1182560  14.9780728   6.0557249
  47.2346901  15.2720763   5.1522663  46.4842963  14.2634655   5.9952334
  71.8111565  79.2646547  15.2427700  71.8177607  79.0864988  16.1832169
  72.5807383  78.8053556  14.9065808  49.8721098  20.7855488   8.6240271
  49.8922419  20.1380230   7.9193762  50.7921719  20.9988524   8.7796524
  38.8033223  15.3992487  11.2827233  38.0012679  15.1076151  11.7161873
  39.4148850  14.6716381  11.3958767  50.8218503  48.9631773  18.8429287
  50.8806777  48.2993056  19.5299938  51.6910386  48.9706732  18.4420708
  78.2928371  62.8137827  66.2071228  78.0452251  62.2750998  65.4556322
  78.8344002  63.5097504  65.8348751  85.3517079  35.6530882   7.4123696
  85.8432316  35.9941222   8.1595877  85.9371876  35.7746674   6.6649321
  60.2436566  21.9808127  23.1548527  60.5360531  22.8905989  23.2098702
  59.6804165  21.9566227  22.3812798  62.6180983  65.3575277  50.2909279
  63.2001877  64.6861887  50.6468868  63.0897188  65.7070684  49.5348644
  58.3309483  65.0338866   0.1433590  58.3365273  64.1437270   0.4952410
  58.3034729  65.5970408   0.9168795  41.4716124  25.3352429  17.5910691
  41.1892581  24.5600916  17.1056393  40.6614756  25.7088925  17.9379109
  12.8021452   4.3597179  50.1339769  12.9572603   5.2955299  50.2621555
  13.3645794   3.9329773  50.7803392  53.5860586  78.2891512  62.5663090
  52.8350353  77.7101994  62.6967049  53.2025385  79.1607666  62.4691582
  49.4301772  49.1707827  14.4441059  49.1708922  48.6244608  13.7021282
  48.7026810  49.0968253  15.0617817  53.3197236  19.0423609   8.0086830
  52.5246834  19.5745112   7.9776505  53.3850121  18.7623192   8.9216688
  25.0745314  18.4636521  51.7020893  25.4472178  17.9107332  52.3888302
  25.0552768  17.9024768  50.9268808  64.7598982   0.3277943  57.7530098
  64.4435453  -0.5681586  57.8688574  64.0442419   0.8776189  58.0720043
  80.8721542  54.5351601  59.1121292  80.0092697  54.9252367  59.2517900
  81.4289570  55.2706146  58.8565874  51.2944436  44.6431090   3.4795263
  52.2314953  44.6255709   3.6741141  51.0653233  43.7271716   3.3220986
   7.2234702  17.3821188  19.9802330   6.3824558  17.7912785  20.1839855
   7.0599603  16.4429118  20.0661877  55.7835579  63.9850664  66.8556643
  55.0273085  63.8205957  67.4189329  56.1044788  64.8440218  67.1303225
  55.9624529  68.1876373  50.2232647  55.7560635  67.7685547  51.0587311
  56.3941336  69.0066624  50.4663277  32.3819375  44.7612120   1.5925053
  31.5887284  44.8760153   2.1158388  32.5365567  43.8165881   1.5960053
  80.0624561  44.5768690  49.6970272  79.7703552  44.2571497  50.5506611
  79.2645168  44.6149826  49.1696978  33.9590525  19.6438624   6.8058804
  34.2050004  20.1272704   7.5945881  33.2285857  19.0904213   7.0821932
  12.8536245  67.3796531   9.9612263  12.3367283  66.5984054  10.1579407
  13.5060331  67.4175592  10.6606224  47.7435755   2.6623465   2.2641161
  47.8375887   3.2764889   2.9922798  46.8108487   2.4476983   2.2507313
  10.9003753  70.9600544  27.1217203  11.2202281  70.1002264  27.3949051
  11.4124507  71.1689520  26.3404536  69.3944168  27.4070907  61.6028833
  69.0757275  26.8532467  62.3155737  70.1516247  27.8611279  61.9726372
  42.5317406   3.5715605   5.0904349  41.9934248   3.8606860   5.8272198
  43.3437228   3.2639052   5.4932621  59.9025774  16.1307466  53.4299564
  60.7263184  16.6157126  53.3800554  60.1549816  15.2612567  53.7406158
  66.9913769  47.4345922  55.9909582  66.4870358  46.6521311  55.7681990
  66.7312050  47.6396179  56.8890142  17.6374027  80.5873080   2.1130160
  18.5873577  80.6637688   2.2022894  17.2919294  81.3607951   2.5586632
   4.4651079  29.4696738  23.9542130   3.7983918  28.8369872  23.6869648
   4.2097568  29.7268988  24.8401383  70.6649422   3.4404541  19.2704704
  70.4984879   3.5864998  18.3392456  69.9030327   3.8159634  19.7117451
  36.6151023  77.1438694  66.0657978  37.5052714  76.7982388  66.1319351
  36.3084936  77.1907854  66.9713497   6.9861049  49.2106485  38.9865255
   6.2328357  49.7219038  38.6908221   7.7421969  49.6531343  38.6008191
  47.2659016  62.4744511  67.0654249  47.1827412  61.9101620  66.2967300
  48.2043886  62.4863815  67.2533894  45.4444146  14.5744635  19.1861656
  44.8373818  13.8383938  19.2632416  44.9018216  15.3489376  19.3345574
  52.3785448  74.2427254  56.5096235  53.2439232  74.5949030  56.7177629
  52.2324753  74.4902802  55.5965996  48.6267256  57.1191336  16.3361672
  48.6341547  57.0787360  15.3798512  48.0022740  56.4431979  16.5996102
  48.2676935  55.9235477  58.7290812  49.0447044  55.3782797  58.6059237
  47.5328112  55.3380775  58.5463190  73.8377190  42.3367739  63.1492376
  73.8767529  42.2206402  62.1999121  74.7086287  42.6544094  63.3876848
  79.7214892  62.0864292   0.6368235  78.9832356  62.4895283   1.0936859
  80.1567128  62.8155371   0.1949909  33.0589175  11.8294074  38.3607605
  32.2526049  11.3240982  38.2570866  33.7591528  11.1810805  38.2860974
  32.6718065  18.2102638  62.0838118  31.8709203  18.2116466  62.6080275
  33.0615446  19.0705352  62.2396374  49.2662215  14.5321347   0.9129408
  50.1602673  14.8740651   0.9124258  49.3431448  13.6599375   0.5261687
   5.0830573  47.8770924  44.9755144   5.6691378  47.1266270  44.8778725
   4.3997306  47.7341413  44.3206358  32.2770047   7.3690869   3.3063915
  32.9991412   6.7917754   3.0584887  32.6330208   8.2524849   3.2110384
  14.2108559  40.9104277  27.0649365  13.4984278  40.3438593  27.3610523
  13.7895321  41.5378787  26.4775494  11.9972014  20.0071074  17.0406368
  11.6488575  20.0618149  17.9305294  11.3909983  19.4258191  16.5814522
  82.1931362  50.0983715  60.4709625  82.9474926  49.6248245  60.1203394
  81.9353676  50.6932735  59.7667742  63.1492090  69.3178129  55.4216814
  62.6966619  70.1574516  55.3414154  62.6030159  68.7035036  54.9312401
  45.6576371  18.5448004  23.8821915  45.3476738  18.6245085  24.7843006
  45.7870221  17.6048781  23.7555626  21.1004757  18.8857914  13.5428265
  22.0419383  18.9104392  13.7139252  20.7980275  19.7724272  13.7393883
  75.4342985  55.4200459  65.5565786  75.8041000  54.7280025  65.0083494
  75.4639387  55.0637579  66.4445066  71.5002680  72.1829176  21.9636250
  70.7216072  72.7151251  22.1269608  71.5045023  72.0492220  21.0158181
  54.0021276  18.5325491  47.0891476  54.5922375  18.4116721  46.3452482
  54.3592501  19.2867410  47.5580788  42.2726774  66.3727951  44.0228128
  42.4147034  65.8682585  44.8237514  42.5093269  67.2695684  44.2595196
  21.9444009  27.7947193  52.2635603  21.4626714  27.6859623  51.4436007
  22.7167770  28.3057266  52.0216084  76.5200567  76.9981956  49.9585676
  75.5784655  77.0324278  50.1272821  76.9219255  77.1063042  50.8205700
   2.6449794  25.4857850  22.5340843   1.8904990  25.0751352  22.1117544
   3.2670420  25.6337357  21.8217802  60.3148368   6.5571743  58.7168455
  60.2990821   7.5141864  58.7275076  61.2103608   6.3351970  58.4619045
  54.3180584  27.9188658  11.4765957  53.7535977  27.3312928  11.9789723
  53.7110638  28.4658600  10.9780052  52.0033764  47.1621157  11.0429981
  51.7158341  46.9895770  11.9395378  52.2683548  46.3057162  10.7074478
  70.3820801  47.9328394  65.9709930  71.2443352  48.0152369  66.3783741
  69.8725891  47.4121618  66.5919161   8.9468002  15.4021622  58.5683468
   9.5145010  14.7760512  58.1189755   8.5945057  15.9514882  57.8680924
  15.8110690  22.7763916   0.0636700  16.5559029  22.2325684   0.3200033
  15.1531815  22.1523739  -0.2429554  66.1394429  39.6878554   1.1651447
  66.9997906  39.2967249   1.0133150  65.6054997  38.9685751   1.5024546
  71.5621471  38.4579444  61.8947077  71.0351896  37.7855897  61.4628696
  72.3444176  38.5365033  61.3487101  33.6929488  42.3754336   0.3351000
  34.2260241  42.4562003  -0.4558107  34.3292737  42.2963740   1.0457829
  59.4957569  15.4356628  63.6261702  59.4842675  14.7510772  62.9572535
  59.8206404  14.9968677  64.4123936   2.7057952  59.7897863  55.9109592
   3.2023639  60.6079721  55.9260607   2.5784129  59.6040630  54.9806309
  64.1703796  72.1120739  46.1076260  63.8906670  71.2623024  45.7672071
  64.8991251  72.3684120  45.5424261  59.7079659  49.1871834  68.6086941
  60.0275850  50.0102806  68.2391119  60.4645205  48.8202477  69.0660954
  64.3224549  -0.1956819   1.9755581  64.3758988   0.6534649   2.4141148
  64.6493077  -0.0295757   1.0913590  24.7763180  29.7098471  17.9949787
  25.1261878  29.3102242  17.1986607  24.5912241  28.9696719  18.5730007
  61.8066931  79.1793346  67.8852177  61.3850641  79.5831537  68.6437654
  61.0856295  78.7943172  67.3871565  32.4062609  54.3853022   8.9853838
  32.6181769  53.6982371   9.6172503  32.5793290  55.2023913   9.4529846
  26.5618247  76.2201929  42.4340343  27.3387641  76.7390537  42.6423216
  25.8335513  76.7217302  42.8005171   2.6800937  64.1245222  65.4033232
   1.9878787  64.2211819  64.7493219   3.4160632  64.6232843  65.0486135
  56.4769125  76.6022778  54.8560667  57.3714733  76.7137051  54.5342302
  56.5094137  76.9049835  55.7635593  44.1148829  14.7482039  11.6308144
  43.6941218  14.5429827  10.7959011  44.8591399  14.1481186  11.6778401
  42.5921225  61.6634013   2.7900675  42.5722050  61.6086127   1.8346432
  43.4706902  61.9844080   2.9933003  20.2287888   9.9678351   9.7200230
  19.4258332  10.4168536   9.4556788  19.9505925   9.3664385  10.4107884
  12.1513578  33.7376934  54.5600462  12.5222799  32.9794746  54.1086578
  12.7445480  33.8926273  55.2951336  39.0062689  30.1749350   7.2609928
  39.4477772  29.3446471   7.0823219  38.0877804  29.9358870   7.3853472
  81.7124653  52.9359961  61.2766981  81.3709831  53.1723309  60.4142761
  81.2746811  52.1119452  61.4900541  23.6095356  23.7232520  10.3960922
  22.7733063  24.1890170  10.4002121  23.3869957  22.8339077  10.1208237
  55.4007551  26.5966945  62.1891785  54.5520040  26.2956195  62.5135326
  55.1888010  27.1314769  61.4241219  37.5063920   1.6484810   8.6414412
  37.5794911   2.3050238   7.9487398  38.2488274   1.0622908   8.4951618
  14.3546504  79.6343422  67.7740383  15.2824229  79.5706606  68.0007792
  14.1045302  80.5205822  68.0352926  15.0056001  15.6938224  50.2642584
  14.7619936  16.2959152  49.5611477  15.5851385  15.0578170  49.8448992
  63.5696697  47.9457378  38.5720396  63.3763504  47.5143003  39.4043398
  64.0920401  48.7103844  38.8142824  32.3716184  80.6476565  25.2778748
  32.4385759  80.2725788  24.3997791  32.3123571  79.8889824  25.8585098
  50.9515762  60.3732681  36.8866324  51.4534521  61.1030960  37.2495437
  51.6109371  59.7153139  36.6662383  35.0605318   2.6480251  45.0523043
  34.3511125   2.1224838  44.6824837  35.8032533   2.0463043  45.1025772
  55.4531670  24.3177247  52.9884911  54.6644211  24.8501968  52.8856325
  55.9666538  24.4955707  52.2004986  84.2698577   4.0866237  54.0288687
  83.3883002   4.4565921  53.9818716  84.2997506   3.4477096  53.3167458
  68.0112481  30.0397660  20.3215721  68.6278939  29.3854262  19.9932221
  68.5198140  30.8497406  20.3607586  26.3997096  67.2943830  51.1721516
  27.0596808  66.6092634  51.2783623  25.9924716  67.3704767  52.0350504
  51.7204499  43.3249594   8.4857014  51.2256741  44.1426588   8.5386017
  51.5028691  42.9686572   7.6243427   2.3038119  81.0009575  64.2206144
   2.5517768  80.2952862  63.6233091   3.1217975  81.4671612  64.3932295
  40.6033253  45.0150992  26.3976029  40.2840495  44.2016913  26.7883232
  40.5757069  44.8547007  25.4543427  31.1004996  53.0275752   2.6388148
  30.8624768  52.7436663   1.7562226  30.2729916  53.3033587   3.0330256
  55.8778402   9.4851642  62.8487206  56.7102644   9.5066887  62.3766661
  56.0636255   9.9184662  63.6817646  23.2705235   7.9770256  21.7913082
  24.0563035   7.7322365  22.2800377  23.0363917   8.8406683  22.1312168
  36.3904023  43.8350703  16.0848931  36.8749499  44.1282298  16.8565777
  36.6977953  44.4035651  15.3788117   1.8178958  59.2009115  46.6246367
   2.1027678  58.5684204  45.9650660   1.8590087  60.0469065  46.1787271
   1.9122523  72.2954702  22.8714561   1.1257762  71.7707682  23.0210447
   2.4417132  72.1629667  23.6578012  22.9257845  27.3037793  35.1879814
  23.6177086  27.2180344  35.8438233  22.2995591  27.9131724  35.5787686
  62.6813149  58.9126517  27.4809387  62.0509457  59.6327044  27.5008991
  62.4592995  58.4218241  26.6897228  10.3593370   6.0888343  27.0111036
   9.9974128   5.2324825  26.7832637  10.7386896   6.4135032  26.1944556
  74.4759869  49.8523165   1.3547638  74.1641163  48.9564158   1.2269095
  74.3977665  50.0009562   2.2971085  74.0266060  26.1981369   9.5693758
  73.2344079  25.6692339   9.6638039  74.7337937  25.6253125   9.8660114
  84.5255521   4.9238353  68.0523443  84.8038009   5.6462818  67.4894333
  83.5696509   4.9372440  68.0043316  69.2598915  75.4777527  48.4800911
  69.2536449  76.3030243  48.9649820  68.3789873  75.4096460  48.1118488
  13.0809137  10.1964813  70.4363394  13.6008283  10.1460605  69.6342325
  12.4301120  10.8752685  70.2576542  83.1391907  65.3817892  69.4331884
  82.4199200  65.1442003  68.8480043  83.1932640  66.3354540  69.3713093
  18.5432073  65.6271454  16.1972645  19.4183752  65.3762956  15.9016541
  18.1611797  64.8152991  16.5307263  22.9346677  57.6729389  18.1935528
  23.6370966  58.1080099  18.6768082  22.4685642  57.1627947  18.8559273
  52.2798371  21.7141272   8.5460642  53.1205105  21.8131758   8.9929274
  52.1739125  22.5271346   8.0520704  14.2033741  12.6472145  65.2937937
  15.0500890  12.6322227  65.7399797  14.0642091  13.5686260  65.0750208
  22.2984338  80.8712673  53.9386034  22.2160101  80.4055977  54.7708225
  21.4022136  80.9309483  53.6077547  74.2952493  12.7662235  70.2612782
  73.8976291  12.2350937  69.5713234  73.7658885  13.5633712  70.2849817
  66.8530321  79.8138428  45.5212307  67.2099257  80.3362465  44.8029280
  65.9749842  80.1681137  45.6617880  73.9957714  61.1598158  54.7009134
  74.4349194  61.2803793  53.8589859  73.4961319  60.3500462  54.5966482
  75.3797200   8.8717704  69.7353601  74.9693349   9.6002155  70.2013922
  74.6989825   8.5525089  69.1429901  18.1894469  28.7816645   5.4516867
  17.3989939  28.5867526   5.9551027  18.5684752  27.9240061   5.2593592
  47.9007196  68.3773708  46.0138655  48.3278894  68.9390469  45.3671169
  48.0183840  68.8369846  46.8452168  58.3482956  74.3029906   8.7570790
  58.5002732  75.0476767   8.1752089  59.0050816  74.3998839   9.4466332
  35.0716039  70.0282999  27.7375248  35.8700105  70.5198522  27.5447586
  34.3673727  70.5606552  27.3675564  73.3621693  58.1042671  31.0885692
  73.9121866  57.5042200  30.5849266  73.9507198  58.4729052  31.7473149
  39.5666334  17.7233654  53.3487558  39.8372957  18.5772663  53.6861372
  40.3229734  17.4114757  52.8518534  53.4469723  36.1030842  13.3708981
  52.8235268  36.6603304  12.9050377  54.2965626  36.3223721  12.9883507
  33.6695313  22.2589493  36.4804530  34.6194911  22.2834277  36.3655210
  33.5018373  22.8494573  37.2148991  80.2162054  79.4647024  30.9928775
  80.6918076  80.2749809  30.8098912  80.1162842  79.4553841  31.9448018
  65.9386826  27.0684314  31.9386888  65.1505661  26.5287519  31.8766618
  65.7916021  27.7796888  31.3152218  28.4435821  12.8407204  49.7083712
  27.8079271  13.1230545  49.0507507  27.9099751  12.5050831  50.4286766
  67.8042391  59.5142741  39.8764682  67.3525122  58.6959237  40.0825691
  68.2737366  59.7376651  40.6801462  43.5694066  70.2446610  19.3903887
  43.6463097  70.1839918  20.3425622  42.7663639  69.7663755  19.1839957
  79.0476468  71.5331013  65.5471373  79.2754701  72.4223477  65.8183718
  79.4429234  71.4383466  64.6805286  31.9712257  19.3893826  54.9990749
  32.0574784  18.9221311  55.8300209  32.3982239  18.8202167  54.3587971
  68.4733465   4.3666597   9.2658165  68.1379965   3.4703966   9.2438248
  67.7173021   4.9107524   9.0453747  20.1661801  10.3470075  60.4371309
  20.9933877  10.8115280  60.3099346  19.5113182  11.0408318  60.5145693
  22.1822974  63.4057958  42.5403929  21.6962192  62.6725883  42.9177094
  21.9188401  63.4196360  41.6202688  61.0848739  49.5602246   8.7514570
  61.4062360  50.1495137   9.4338778  61.8629148  49.0854480   8.4590986
  51.3986063   7.7327257  56.8112326  50.6811905   8.1683767  56.3510656
  51.5951729   6.9642538  56.2754679  13.2516000  61.1560125  27.9157710
  13.6831472  61.9561190  27.6160574  12.5929734  60.9736556  27.2455549
  60.6105042   4.6662697  28.6051130  61.2909651   5.2904648  28.3529472
  60.5341053   4.0785953  27.8534245  45.9743786   2.9964903  58.8423634
  46.0376596   2.4465515  59.6232605  46.8458843   2.9546911  58.4487200
   8.7323901  66.4902181  44.1725397   8.4905979  66.3843471  43.2524538
   8.8692066  65.5970973  44.4885254  24.5618272   9.7580451  57.3875380
  25.0158668   8.9211309  57.4857998  23.6835718   9.5205832  57.0900345
  36.7703772   3.1413910  54.5983315  37.2228384   2.3209649  54.7943211
  36.0401154   3.1658131  55.2166796  38.1839034  74.6965010  20.3536224
  37.7673671  74.0247042  19.8137915  37.8238914  75.5218638  20.0289726
  77.9365733  66.9680542  43.3393240  77.4281147  67.4276990  44.0074778
  78.0111984  67.5961596  42.6208925  74.9689678  63.8960237  58.8613272
  74.2766431  63.2350976  58.8710546  74.5479170  64.6888465  59.1935587
   5.6282112  68.7552637  54.6082878   5.5552408  67.8034598  54.6788311
   4.9143598  69.0074522  54.0225840   2.1202251  31.4236857   1.3760069
   1.7736456  31.9980659   0.6932142   1.4576503  30.7396700   1.4726809
  29.6986768  74.6050054  46.7532778  30.6534526  74.5506979  46.7121840
  29.3948123  73.9881522  46.0874033  16.2909901   6.0888880  49.0822887
  16.2366199   6.8057692  49.7142363  17.0897388   6.2672561  48.5858870
  64.4230709  72.6427258  62.6101542  65.3653142  72.7971763  62.5426626
  64.3504855  71.7717952  63.0005980  66.5331173  13.6579740  55.7900572
  66.6062069  14.1705954  54.9850082  67.0876837  12.8927660  55.6379366
  21.3780090  29.6342631  16.5023163  21.6596719  29.8512634  17.3910263
  22.1891138  29.6025248  15.9950283  17.1416187  10.4441571  52.3766088
  18.0906558  10.3235292  52.3448610  17.0152724  11.3843346  52.2488022
  80.9788132  19.0143037  68.7889814  81.4516735  19.0692759  67.9585505
  81.2102032  18.1543243  69.1398764  78.6765316  78.3123422  49.2777443
  77.9538277  77.7309076  49.5140982  79.4170502  77.9967556  49.7956896
  12.4997056  21.8960428  62.2512627  11.9894600  22.6304483  62.5926304
  13.2503092  21.8309355  62.8416729  22.0707366  57.9923314  54.4149828
  22.8115222  58.4625596  54.7975445  21.8263576  58.5125226  53.6495304
  42.2212029   9.5830607  63.2735300  41.2928486   9.5774519  63.0403900
  42.3932838  10.4831624  63.5500050  73.6788824  76.8780321  50.0298357
  73.2787541  77.1596155  49.2071295  73.4996870  77.5931055  50.6404018
  29.5471001  25.5006886  46.3876009  28.7644720  25.4232836  45.8419561
  29.8175025  24.5966244  46.5481758  15.8525560  75.2681643  39.8620367
  16.7374465  75.0828916  40.1764822  15.8507392  76.2103534  39.6931934
  54.6036508  34.4002988  14.9425247  54.1909936  34.9823864  14.3044689
  54.7387054  33.5807308  14.4668129  82.0348719  54.5518965  69.4301605
  82.0987728  54.3553180  70.3647757  81.9303802  55.5026073  69.3919706
  83.2025746  48.4687847  56.8838406  84.0764550  48.2126612  56.5889406
  83.3565214  49.1990847  57.4831724  35.6447673  15.3346050  49.4738436
  35.6120014  16.2821507  49.6054316  36.5698433  15.1466620  49.3152809
  65.0310037  52.6112813  64.6409512  65.0943563  53.0838103  65.4709721
  64.7400663  53.2709951  64.0113735  16.7986295  62.6746756  53.0966377
  17.6745364  62.8482074  52.7518129  16.4538238  63.5390622  53.3206415
  65.9642506   6.7235887  62.7365208  66.4234924   7.0825315  61.9772530
  65.4261875   6.0172158  62.3790884  78.7292006  18.8057681   6.6492012
  79.2724564  18.5856577   7.4059418  77.8930619  18.3724423   6.8204573
  23.8848540  73.1955207  24.2434287  24.4677732  72.9674709  24.9676013
  24.4222972  73.0842710  23.4592009  64.8187065  28.3933663  57.3302841
  64.8133278  28.5762715  56.3907337  65.3017139  27.5709605  57.4114275
  11.4504621  77.0731322  52.3346090  10.5362723  76.9823766  52.0658064
  11.4049480  77.3297573  53.2556438  40.5878496  18.2510030  43.7625742
  41.5367365  18.1340516  43.8091564  40.2561188  17.8372240  44.5594263
  59.7573644  57.3389906  24.6231604  59.9123785  58.0030293  25.2949142
  58.8217658  57.4053664  24.4321585  43.0048418  23.6570048  32.9162216
  42.2832537  23.9218640  32.3457909  43.1186581  22.7229834  32.7404785
  55.1995134  14.5256352  36.0764647  54.9288702  14.3433177  35.1766062
  55.9015751  15.1704371  35.9894419  25.1015994  63.0863387  42.9486084
  25.2564332  64.0191359  42.7997828  24.1947601  62.9475099  42.6754761
  73.3727029  78.2326384   3.9264372  72.6718047  78.6665436   3.4399155
  72.9179051  77.6344868   4.5193985  61.5777159  11.5940964  43.9208364
  60.8939409  11.2030768  43.3769751  62.2965193  11.7684960  43.3132648
  83.7842655   3.8423726  60.7876110  83.7088776   3.0170992  61.2666464
  84.6555805   3.8112670  60.3925562  43.1383181  14.3674588  54.8087597
  42.4698210  15.0445378  54.9132061  43.8100433  14.5927799  55.4523802
  25.3279185  21.1339450   9.4090569  25.2841997  21.7916703   8.7149978
  26.2498140  20.8781171   9.4388700  22.2786161  52.1966358  12.7859905
  22.2850916  52.9169544  12.1556500  21.3962289  51.8310662  12.7228859
  49.9054241  12.7209008  52.2859764  49.2849874  12.9641128  52.9730940
  50.7528973  13.0266094  52.6093435  38.3721375  16.9662309  30.8155251
  39.0020299  17.2619236  31.4728189  37.8180432  16.3389075  31.2799358
  47.9296160  11.1173666  47.7619314  48.4469366  10.3915417  48.1109142
  48.3750343  11.3604546  46.9503021  70.6592229  31.3036283  11.2359551
  71.4114907  31.2748178  11.8271378  70.0068429  31.8250140  11.7037132
  68.8666442  65.3060838  21.8716076  69.5490554  65.8038874  22.3218754
  68.0763915  65.4607793  22.3890999  42.5298405  20.7410216  60.5282211
  42.9644060  21.5925527  60.4805040  43.2396984  20.1183033  60.6849051
  25.6964776  74.4368882  60.1200771  26.5239904  74.8493755  60.3676844
  25.4993865  74.7958345  59.2548895  45.2434349  12.1207941  47.6199102
  46.1372805  11.7790771  47.5975132  45.0097132  12.2406662  46.6994524
  39.2950010  28.6339545  52.6444721  40.1758385  28.9848781  52.5132990
  38.8096404  28.9080548  51.8663216  39.0866494   1.9448832  60.6433725
  38.3850980   1.3355352  60.4136944  39.4323158   1.6111144  61.4712286
  76.1319831  73.7364837  17.6709011  75.8432296  74.1448708  18.4870365
  76.3230803  72.8298755  17.9112652  15.2020785  65.2179856  51.1640882
  14.3961904  65.4754145  50.7163095  15.7561156  64.8575372  50.4717398
  40.0706720   0.5537578  52.8181553  40.1749420   1.5031815  52.7552748
  39.2593336   0.3700279  52.3446560  50.9986877  11.5350580   5.2784258
  51.3944054  12.4041247   5.3444779  50.5352449  11.5459299   4.4409689
  25.5944276   7.7860487  66.6173506  25.9504032   8.3618683  67.2940636
  26.3653445   7.4369884  66.1700487  22.7887011  22.5106025  16.1944127
  21.9268417  22.7188277  16.5550673  23.1817055  21.9212317  16.8381691
  57.8944826  15.2231264  15.1606107  57.1150637  14.6754718  15.0667691
  58.4609318  14.7334087  15.7568884  21.9104880   2.0732200  52.4238634
  22.8610057   2.1738479  52.4750376  21.7661017   1.1288086  52.4827862
  69.3614435   1.7069930  52.4528074  68.7559080   2.2441457  52.9637098
  70.2130318   2.1277776  52.5709915  76.9566727   5.2781785  19.6186543
  76.2888241   5.9412783  19.4439840  77.7012157   5.5395949  19.0768540
  52.6859045  14.4908154  56.8422174  53.5256958  14.5199060  56.3838053
  52.3394251  13.6189771  56.6522741  19.6429250  33.7352557  58.2457638
  19.1400621  32.9261727  58.3392763  20.3291127  33.5191626  57.6143503
   4.3044898  71.8810839  66.7993927   3.8176009  71.1624188  66.3960457
   3.7730381  72.1370614  67.5532246  15.7694122  71.0704990   3.5534504
  15.7027218  70.7145496   4.4394997  16.6540929  71.4330025   3.5069206
  40.9923363  25.3272319  48.1301165  40.1731300  25.8107948  48.0237913
  41.2569952  25.5001473  49.0336037   8.4439266  46.4824200  43.6776066
   9.1423470  46.1824465  43.0958366   8.7521845  47.3269129  44.0063047
  27.7775168  29.1220570  54.6076965  28.1329989  28.4775424  53.9957619
  26.8414998  28.9254379  54.6456861  82.7399781  45.8672007   3.5947970
  81.9263509  45.5490961   3.9860132  82.5778392  46.7954000   3.4263018
  39.3728685   2.3276353  55.9523726  40.2220249   1.9019008  55.8343983
  38.7590051   1.6051616  56.0844183  18.7003181  75.5722529  62.1656179
  19.3634650  75.7741237  62.8257036  18.1495187  74.9053479  62.5756073
  23.9345977  78.3111606  64.3241549  24.1697118  78.0159590  65.2038193
  23.6449287  79.2155129  64.4444370  67.9345444  69.7675247  37.8659558
  68.2766834  70.6556672  37.7641034  67.7718702  69.4694239  36.9710231
  56.4183617   0.7963006  23.4004474  56.2470818  -0.1453617  23.4133601
  55.6913853   1.1787342  23.8918519  66.1711123  59.5803662   6.8355683
  67.0980051  59.4409879   6.6414622  65.7150677  58.9213165   6.3122061
  59.0734911  18.1854606  51.7669344  59.7199774  18.8638783  51.9619703
  59.1703224  17.5510776  52.4771595  44.2363977  17.4461639  41.0373640
  43.6407232  17.2228098  40.3221607  44.6573257  18.2577598  40.7538795
  18.5913050   3.1055608  64.2352772  17.9616868   3.3644903  63.5623980
  18.2608068   3.5061026  65.0393724  36.2127519  10.7830048  36.0319901
  35.7664347  11.1397338  35.2640200  35.6778598  10.0334036  36.2931800
  50.3986025   6.0563040  63.2340002  50.5006027   5.1331073  63.4653807
  50.5205965   6.5250385  64.0596151  50.7830549   2.3771142  54.9754092
  50.9136463   1.5366863  54.5362505  50.2163887   2.1730922  55.7193825
  12.5040433  80.0147906  44.4840431  12.4345395  80.0243077  45.4386663
  13.3871743  79.6884069  44.3114376  69.5654485  68.5322184  58.4476471
  70.3156087  68.4972460  57.8541279  69.9527738  68.5410590  59.3229389
  52.7196741  37.6082373  45.8257341  52.8802395  37.1038079  45.0282383
  52.8961849  36.9932890  46.5377140  64.4402721  54.0654822   0.1248387
  64.6637776  54.0374621   1.0551575  64.8779037  54.8510941  -0.2030680
  43.2661867   0.9569709  58.1569338  43.5032892   0.4537992  58.9359283
  43.9612627   0.7653973  57.5273323  47.4790716   5.0560594  48.7158155
  46.8409252   5.7301527  48.4821463  46.9500732   4.3288541  49.0437794
  56.1927032   6.2843323  52.0131779  55.6528759   5.6182843  52.4388504
  55.5797672   6.7759472  51.4665031  54.8442793  11.7702484  70.0297832
  55.6854248  11.4537942  70.3592682  54.7831535  11.4107704  69.1447544
  82.8430083  32.3913654  13.5403183  83.4264376  33.1468566  13.6115483
  81.9926932  32.7166953  13.8358906  58.8539886  18.3606851  42.0800447
  59.4830656  19.0335882  42.3402262  58.0981636  18.8513792  41.7572832
  45.0314522  18.7740266  61.0707474  45.5374193  17.9817617  61.2511396
  45.6849575  19.4724846  61.0344315  61.8974495  14.0366852  54.3808270
  61.8512964  13.2712448  54.9537134  62.7993345  14.0418363  54.0601826
   6.0247552   7.4799055  49.3916035   6.6910148   6.8094498  49.5426607
   5.6611907   7.6560795  50.2593660  49.0196848   0.3454545  46.8007040
  49.8133183   0.6505077  46.3610220  49.2546940  -0.5142486  47.1498632
  32.9713437  39.2663619   2.6123121  33.7208667  38.6808180   2.7199438
  33.3558571  40.1417639   2.5670078  24.5497892  70.2588302  23.8948178
  24.5426891  69.3669361  23.5473895  24.2824647  70.1619691  24.8088121
   4.1661653  17.7641261  54.3931246   3.4560817  17.2544682  54.0029192
   4.8475283  17.7792394  53.7210035  71.1879778   4.4831449  38.2972836
  72.1157503   4.6766362  38.1630278  71.1807537   3.6200657  38.7111378
  11.9665239  62.2195322  70.1166344  11.6591546  61.7770678  69.3254471
  11.8155381  61.5868492  70.8188772  63.2953415  49.3958086  54.4597054
  62.5096765  49.7455925  54.8799610  63.1771037  48.4462351  54.4834805
  29.9750185  15.4692173  67.3149586  30.9223461  15.5931330  67.2562790
  29.6772099  15.4650605  66.4052725  85.7122782  59.5342798  49.1038275
  84.8615173  59.4745464  48.6692381  85.8149961  58.6916155  49.5460939
  38.2938668  76.5756590  58.4434795  37.7724597  76.0418940  59.0430307
  38.8255164  75.9431071  57.9603052  61.0903695  16.7599030  27.2129181
  61.8504217  17.2861191  27.4612072  61.4634683  15.9568616  26.8493870
  51.5202615  76.8314264  53.2164001  51.3206575  76.6329682  52.3015213
  52.2647760  76.2678102  53.4268188  47.4981499  23.6835766  32.7441359
  46.6143703  23.7323594  33.1085324  48.0176640  23.2656574  33.4309244
  58.1287909  18.8750756  35.2158880  58.7431908  19.4167292  34.7205544
  58.4979200  18.8401163  36.0983586  14.5245525  61.7110821   0.7227543
  13.7430689  61.7438050   0.1709870  15.2479622  61.8992348   0.1248339
  57.7084541  47.3059464  68.8744307  57.0797729  47.7337122  69.4558191
  58.3823824  47.9682732  68.7215328   5.8105606   1.9599915  53.9313745
   5.6995863   2.5416300  54.6834469   5.2534199   2.3387514  53.2514000
  25.3253553  67.5063736  39.4972110  25.9075114  67.7962953  38.7948775
  24.6786401  66.9530911  39.0591860  47.3468065  21.2578177  24.8639536
  47.4905300  21.1949229  23.9196992  48.2266712  21.2549567  25.2408624
  16.5943882  55.3100928   8.2134035  16.0639164  56.0891589   8.0464152
  17.4418136  55.5073090   7.8143910  59.2514896   5.9960723  32.6521444
  59.9188662   5.5873579  33.2033205  58.5295391   5.3676200  32.6443338
  75.0408461  32.3782023  16.5712670  74.2888501  32.1251156  16.0358456
  75.7974007  32.0227148  16.1049107  72.2485113   4.8674890  44.2884684
  71.6103506   5.5401504  44.5261908  71.8832111   4.0557340  44.6403790
  25.4881501   9.8092677  29.3207291  25.9163498   9.4793869  30.1107052
  25.7732605  10.7207657  29.2566040  44.9808359  15.8431852  34.1692138
  44.7025061  16.7119193  33.8792706  44.8131657  15.8400941  35.1116085
  24.2309737  28.3222771  62.4602127  24.1066957  27.6858711  63.1643248
  25.1727414  28.4934068  62.4555111  73.3824519  75.9700302  58.3720827
  72.8595141  76.6526408  57.9515934  72.9471353  75.1522893  58.1311846
  67.4438122  47.5248106   7.1402100  68.2362011  47.1089419   7.4799231
  67.4742415  48.4167500   7.4862602   2.4638960  17.0515700   1.8620232
   2.3157665  17.5358434   1.0497597   1.6954538  17.2442051   2.3992565
  33.3396575  76.5570298  61.8078899  33.5492990  76.4335988  60.8821249
  33.7002275  77.4173627  62.0224810  63.8454628  11.6738689  42.0920944
  64.1242647  12.5372076  41.7868948  64.5110559  11.4192939  42.7311659
  18.8936969  27.6137539   9.5230654  19.0794775  28.5344811   9.3387297
  18.8885233  27.5570961  10.4785755  57.3389530  28.0026650  51.1369038
  58.1040907  28.1386328  50.5780554  57.5927305  28.3694601  51.9838333
  39.9545503   7.2120345  57.4144888  39.1279507   7.6946235  57.4230766
  39.9424434   6.7018247  58.2242870  35.2677366  53.5764941   9.0159682
  35.9699842  53.3669682   8.4001997  34.4714376  53.5622819   8.4849814
  27.8275344  68.9015252  39.1091609  28.5137460  69.1143746  39.7416449
  27.0766923  69.4276387  39.3842530  12.0059940  56.1024340  21.6879872
  12.0291349  56.6512986  22.4718502  11.6972086  55.2518924  22.0001724
  23.6661863  14.7307658  51.3998795  23.6244178  14.3722677  52.2864294
  24.4041133  14.2770994  50.9925938  76.4378598  33.5527637  22.1237400
  76.5941241  33.7960072  21.2112454  75.8844140  34.2541756  22.4671772
  58.5434702  54.6305724  18.7293080  59.1358474  55.1697501  18.2052735
  58.0064252  54.1692777  18.0850819  42.9902124  17.3744702  62.3156595
  42.4985695  18.0134523  62.8316307  43.6532021  17.8934622  61.8603373
  15.3043124  52.9946966  43.6680698  14.5717046  52.6957244  44.2067051
  16.0705278  52.9048437  44.2347097  65.9419823  17.4742198  41.0431910
  65.9496164  17.8958297  41.9025040  65.0145626  17.4145770  40.8138990
  13.7784574  80.7097483  15.6272769  14.2728946  80.5702875  16.4349389
  12.8992889  80.9466315  15.9225345  30.2457476  14.1736937  60.9034061
  30.7069373  13.6914170  61.5896606  30.3956127  13.6615860  60.1087236
  16.6614148  69.5258958  67.0364141  17.0047710  70.4128022  66.9280863
  16.0443685  69.5952589  67.7648926  45.1550150  24.0323353  34.6936893
  44.5807076  23.9068842  33.9382672  44.7489214  23.5179281  35.3913331
  37.3277899  59.9639889   7.9865196  36.9104448  59.1050728   7.9208019
  37.6780095  59.9926122   8.8768891  22.3188016  45.9964127  25.1583219
  21.9480893  46.1722988  26.0231161  22.8432796  45.2048416  25.2790403
  12.5918147  71.8185253  24.9822402  13.3257243  71.2048799  24.9499106
  12.5318143  72.1672285  24.0928364  41.0816288   8.7326610  49.6588802
  40.9839106   9.5024693  50.2193069  41.4260054   8.0550301  50.2406454
  22.8556583  70.7335634  19.6104860  22.3031232  70.0923676  20.0574827
  22.6196000  70.6504506  18.6865807  37.2158265   5.8876783  56.8663406
  37.6428890   5.5795133  57.6656389  37.8289866   5.6647182  56.1659431
  37.0857516  16.1956974   0.7479695  36.4874765  16.1160274   1.4909056
  37.8327206  15.6447144   0.9818199  41.7067528   7.0570636  41.0420942
  40.9528351   7.5188202  41.4090014  42.4608326   7.4269819  41.5011740
  73.4179929  14.1911169   2.1247318  72.5666955  14.2478224   2.5586775
  73.9625600  13.6883136   2.7304247  23.2697034  42.0177174  30.9779000
  22.8617978  42.3346472  31.7837524  23.3938837  41.0800791  31.1250234
  18.2456348  77.5309340  16.9774342  18.0799148  77.3854331  16.0459852
  18.5038135  76.6719980  17.3118067  31.5369126  77.8466994  52.7610302
  31.0962674  77.2391087  52.1669769  31.6535279  77.3485083  53.5700035
   2.4805662  42.3117812   2.5436190   1.8440792  41.6546604   2.2620037
   1.9964906  43.1373524   2.5254086  58.0908802  29.1984506   2.6776150
  57.9732063  29.1367753   1.7296818  58.6554149  29.9617453   2.7997282
  23.1507540  40.1878595  68.2644558  24.1063786  40.1573420  68.2188129
  22.8627753  39.4193244  67.7718592  58.5435772   9.2400002  62.0850039
  58.3173323   8.4784603  61.5510559  59.3171120   9.6096969  61.6593313
  57.5942278   7.5408751  43.0122137  58.4297752   7.1087164  43.1892157
  57.2560358   7.7718592  43.8773775  50.0276944  70.5036218   9.5921791
  49.8757598  70.8469624   8.7116873  50.9797666  70.5103702   9.6909028
  40.0335884  27.6278019  66.4771652  39.4360948  27.9517126  65.8031368
  39.6147394  27.8675342  67.3037958  18.7654302  75.4055197  47.9183388
  18.3337352  75.0144554  47.1587706  18.8994834  74.6738011  48.5207081
   9.8293373  29.8989101  11.4528778   9.8222753  29.9710866  10.4984310
  10.1704666  29.0211173  11.6241768  52.8618479  31.4585090  67.4412775
  52.3617363  31.6438508  68.2361174  53.1473923  32.3181987  67.1320438
  39.1002011  33.3647323  39.9394846  38.6946130  34.1778398  40.2404594
  38.4488726  32.6886797  40.1264477  40.7469988  12.2878802  38.0809355
  40.4121780  12.9493284  38.6864209  40.1732159  11.5326703  38.2100153
  10.9351063  27.3189139  40.7321310  11.4245939  26.8421030  40.0618410
  10.0878966  27.5013494  40.3257036  72.8922370  52.0467824  31.9584489
  72.1433345  52.0843143  32.5534010  73.4676805  52.7527470  32.2529149
  56.4505508  74.6301099   5.4121903  56.0755804  74.3172594   4.5889357
  57.2735813  75.0471230   5.1573351   1.4408561  22.5220271   6.7480782
   1.9220087  21.9019504   7.2960070   1.6690275  22.2765263   5.8514717
  66.3415670  14.5973098  28.5947156  66.5523529  14.1117251  29.3922162
  65.4912853  14.2524981  28.3220267  65.8960724  69.0021563  55.1853657
  66.4333439  69.7528744  54.9323940  64.9968052  69.3280792  55.1489305
  21.8948886  79.0565743  56.1526680  21.5699622  78.3862472  56.7537642
  22.3829744  79.6622263  56.7105103  63.0427551  19.4693696  57.6503658
  63.9762163  19.6490502  57.5381279  62.9580641  18.5303175  57.4853182
  49.3568087   8.2100886  43.8943577  48.4463453   8.0061054  43.6806297
  49.7996616   8.2457167  43.0465126  61.9590902  36.7331219  56.0930967
  61.8270350  36.2309480  55.2889729  62.2685194  36.0888076  56.7297602
  26.6425085   0.3129955  31.1463094  27.0118117  -0.1034208  30.3675628
  27.3376274   0.2542829  31.8017459  70.0021648  25.7311130  53.2109118
  70.9561300  25.6851196  53.2747078  69.7016001  24.8654771  53.4876108
  28.6638999   0.2553158  32.9117990  29.6075940   0.1143279  32.8356576
  28.5178137   0.3985988  33.8468719   7.5205299  37.4202200  17.6190212
   7.7849600  37.1412923  16.7423752   7.5288841  36.6164788  18.1387928
  57.2858050  20.1851030   9.9685982  57.7288630  19.6360155   9.3217304
  57.8415253  20.9606798  10.0453022   6.1722061  31.7021116   3.3592442
   5.3383896  31.9116493   3.7800482   5.9350511  31.1300154   2.6293829
  21.5136194   8.9202362  48.0814409  20.9705853   8.3968127  47.4920607
  22.3190880   8.4124190  48.1792879  44.0233752  69.4072611  58.0906916
  43.0882642  69.2495889  57.9605341  44.4471976  68.6099738  57.7729797
  54.1541478  63.6381823  43.7451267  53.2351396  63.5511083  43.4920120
  54.5968816  63.9226217  42.9455566  77.2890425  79.7777667  21.4157036
  77.5154781  79.7190585  22.3438767  78.0398655  80.2141538  21.0131386
   1.6448300  17.7143180  69.4257355   1.0646905  17.0964408  69.8705912
   1.2059581  18.5604620  69.5132828  78.9627314   1.1654048  22.1261287
  79.0256882   1.6829243  21.3233566  78.1143284   1.4045101  22.4993253
   6.3839170  61.5099450  13.0113247   5.7772562  62.2431870  13.1140545
   7.0363828  61.6407104  13.6993817  48.1001616  14.0741885  61.5751410
  47.7832603  13.9647639  62.4717045  48.2070637  13.1809294  61.2481928
  54.3563106  39.8228560  12.5366619  54.3985489  39.3523619  11.7041424
  54.5855549  40.7250788  12.3137882  79.9716047  61.3519890  40.6989336
  80.2130321  60.7141442  40.0272942  79.8873380  60.8355469  41.5004444
  35.6781816   8.4879798  59.5985699  36.0934830   7.6919675  59.9304152
  34.7695827   8.2343066  59.4363070  67.3249891  15.2247139  25.0962475
  68.0126765  15.7504626  25.5047920  67.6549032  14.3270012  25.1350048
   9.8842388   1.2961274  65.4579401  10.7469797   1.7023966  65.3751421
   9.3821263   1.6483149  64.7230387  25.6726789  24.1120887  28.2671618
  25.8067036  25.0244212  28.5239124  26.2660956  23.6151433  28.8303089
  36.0772991  21.0124636  50.6127596  36.5318036  20.3825736  51.1721277
  36.3905048  21.8666410  50.9102726  65.7125190  50.8170708  36.3353661
  64.8237827  50.5150636  36.1478260  65.6025150  51.4716192  37.0250729
  82.0711231  49.6255159  45.8889961  81.2412262  49.6614599  45.4133797
  81.9701576  50.2635002  46.5954065  63.0521014  64.2215439  10.1141289
  63.7869003  64.0782615   9.5176628  62.3499182  64.5523377   9.5540026
  66.4892149   7.5314862  45.3715134  66.4042616   6.7293173  45.8868170
  67.2519779   7.3782855  44.8138809  10.1941562  19.2050695  25.2251172
  10.0738275  18.4130681  25.7490325   9.3223512  19.3993223  24.8809481
   3.8271806  72.2681368   0.3338769   3.8913986  72.9521168   1.0004201
   3.9827225  71.4531667   0.8112258  66.7957387  10.9265370  56.5569973
  65.8807937  10.7994789  56.3060760  67.2502789  10.1637549  56.1995268
  78.6350921  52.4204989   1.8919972  78.0476001  52.6530274   1.1729601
  79.5046475  52.6738532   1.5823010  48.3728027   7.2001934  59.2674828
  47.9054880   7.7039170  59.9339008  49.2108536   6.9826031  59.6755981
  70.7580519  15.4847860  44.8186684  71.6255379  15.8890510  44.8022795
  70.2719975  15.9326017  44.1262484  51.3397264   5.3120631  55.1448011
  51.2210608   5.2529639  54.1968298  51.2531376   4.4102249  55.4537058
  53.9050388  11.6190457  31.0596848  53.8930607  10.8330131  31.6057992
  54.7879601  11.6408432  30.6906223  67.7473211  15.4142630  41.1287403
  67.1242523  16.1403084  41.1583233  67.7381277  15.1278198  40.2154541
  47.5888348  24.3880200  46.4829540  47.4338150  25.2937675  46.7509556
  48.2322502  24.4538116  45.7773256  69.5491219  16.8388832  42.7923107
  70.0318336  17.0986688  42.0076227  68.9153194  16.1928070  42.4806881
  42.7845907  21.3724303  42.3449993  42.8047180  20.4315591  42.5199032
  43.0216265  21.7763543  43.1798029  48.1336498  14.8518062  48.8555479
  48.0849838  14.2773414  48.0914450  48.7272930  15.5540860  48.5897923
  45.3274822  16.4214504  30.4104924  45.7888699  15.8800030  29.7700334
  44.4166660  16.4168739  30.1161695  75.5788472  70.6290885   3.4852818
  75.9465983  70.8817001   2.6384190  76.2961915  70.1815530   3.9340141
  75.9859368  63.9149815  48.4207153  76.3965127  63.0841047  48.6600876
  76.4655206  64.5729119  48.9240551  11.6728985  23.3243346  32.8488922
  11.1299396  23.6271214  32.1210551  12.1786320  24.0948915  33.1071687
  39.5125028  38.3272370  13.8759735  39.9474069  39.1787811  13.8316754
  39.8604986  37.9215877  14.6700600  42.6254654  22.5719738  55.9992647
  41.9324589  22.5292778  56.6581678  42.1976471  22.9377913  55.2250671
  52.3874664  26.9229484  42.1266174  53.3219862  26.7256403  42.0635653
  52.3412895  27.8782845  42.0887232  81.2290719  48.6113818  17.0532921
  81.1625722  47.7652516  17.4958637  80.6064942  49.1728701  17.5152043
  84.3483829  19.7216916  50.7614422  83.7498474  20.3918362  51.0914373
  84.3096542  19.0232515  51.4148283  73.9335039  70.0776452  46.4021969
  73.7314156  69.2388529  46.8167067  74.1417411  69.8526866  45.4954100
   6.7436332   9.2144269  27.2817254   7.0882624   9.6624780  28.0541921
   7.0702857   8.3180261  27.3591304  39.1686440  12.6319301  54.7237015
  39.5304608  12.0368123  54.0670776  39.7444391  12.5309467  55.4816532
  54.2393112  23.7839317  43.6819696  53.8798714  23.6816096  44.5632029
  54.4254112  24.7198176  43.6063862  57.0249748  62.8119040  47.3681736
  57.0440006  62.6790237  48.3159161  56.5510607  63.6352873  47.2512293
  29.3547797  30.0302958  58.8551378  29.7404361  30.2104807  59.7124815
  30.0642896  30.1947260  58.2340193  84.6973419  10.6791437  45.3938675
  85.1753426  10.2786875  44.6676540  85.3793716  10.9564817  46.0055494
   9.1727442  15.9104669  35.6996655   9.9741364  15.5843329  36.1091018
   8.8549173  16.5853906  36.2994123  44.8494673   4.8330101  45.7733727
  45.7386589   4.4960594  45.6636620  44.9209881   5.4709661  46.4833927
  61.8472573  80.6414661  52.8302050  62.3679158  80.6763664  52.0277500
  62.2318360  81.3121338  53.3945942  37.1315312  27.7561402  57.0744753
  37.9931808  27.3419666  57.0269966  36.8940377  27.9202151  56.1618376
  34.8036361  32.8094792  48.1373739  34.8998117  33.2836318  47.3114395
  33.8602424  32.6752377  48.2280302  54.7521040  65.9690185   2.1767548
  54.3486520  66.7109795   1.7262486  54.6842596  65.2451154   1.5541819
  75.3408196  44.9694001  16.4606026  76.1938622  45.2178021  16.8167618
  74.8092988  44.7676512  17.2306755  81.8952179  11.7719471  26.3176513
  81.8047428  12.6525664  26.6817307  81.6146374  11.1905777  27.0244122
  65.0740671   4.1826546  49.3400335  65.0389576   4.0039501  50.2797461
  64.9044275   3.3352154  48.9285707  19.3816590  -0.2342628  32.1960476
  19.8620200   0.3008915  31.5643051  19.7332215   0.0266196  33.0472687
  47.8981066  22.4459577   8.0639529  48.3016157  21.7438555   8.5743105
  48.5194778  23.1717443   8.1219262  63.0624962  16.4380157  58.2060814
  63.5145998  15.6043553  58.0763006  63.6177826  16.9185829  58.8200378
  64.2486572  16.8988931  66.0473919  64.8498249  17.4426115  66.5565062
  64.1981363  17.3313069  65.1949263  76.2645438  37.3401697   4.4801310
  75.4301312  37.5885375   4.8779944  76.1302522  37.4698560   3.5413101
  59.3826103  34.2910886  43.6305952  59.1985416  34.4606256  44.5545006
  59.0522861  33.4055519  43.4791327  43.5057783  18.3230078  43.6557627
  44.2871332  18.8702893  43.7344790  43.4829235  18.0694497  42.7330399
  45.2337024  78.7932936  62.8507614  45.6491086  79.5511491  62.4392748
  45.7358739  78.0429423  62.5329161  62.5410178  70.1414915   3.9656380
  62.6033380  69.7241350   3.1064728  61.7859414  69.7242661   4.3803814
  -0.0019148  49.8066396  61.9087029   0.8213303  50.2712197  61.7581558
  -0.6789186  50.4206819  61.6243649   3.2031032  61.8021103   8.2410649
   4.0827676  62.1780082   8.2076672   3.2110998  61.1143490   7.5753668
  34.0340996  30.9516931  41.3368845  33.9082766  30.0719976  41.6926050
  33.3793139  31.4871478  41.7849684  78.6364769   8.7986447  12.4582794
  77.9074120   8.1938626  12.5959042  79.4064259   8.3191134  12.7639797
   7.1173689  78.5590549  21.0709408   7.5952932  78.4337660  21.8907765
   7.1710846  79.5000144  20.9037808  44.3191957  20.9603000  57.7196264
  43.7000895  21.4066792  57.1419668  44.5976114  21.6346884  58.3392382
  15.1669276  19.2079890  35.5598259  15.7192969  19.9573314  35.3371048
  14.6344864  19.5128918  36.2945199  30.3174802  66.2375732   8.3061484
  29.6305200  65.6261750   8.0406168  30.3596899  66.1515017   9.2585352
   8.8537070  76.1959026  43.6742449   9.4716594  76.9218422  43.7601376
   7.9943106  76.5959299  43.8070917  15.4954469  24.4679308  60.9053993
  15.2127361  24.6574426  60.0107527  14.6905375  24.2301917  61.3656473
  60.8672598  44.8305370  15.3345135  60.7035377  44.3695634  14.5117596
  61.5100434  44.2867785  15.7899121  10.0750754  71.2170858  50.8377790
  10.3534696  71.3206810  49.9278355  10.8226964  70.8059353  51.2716532
  30.3290129  37.3117661  61.9770908  30.1968741  38.0283260  62.5978279
  30.5178905  36.5508914  62.5262928  56.1495161  33.0504727  66.5268755
  55.9520864  32.7110934  65.6539106  55.4623747  33.6955214  66.6941309
   2.4314517  12.6340163  60.7638407   2.4948424  13.5662878  60.5562735
   2.0055217  12.6078260  61.6206551  81.3812449  68.5899707   3.0049780
  81.2342217  67.6474996   2.9251936  80.7986977  68.9793058   2.3528364
  78.6671066  12.0176578  27.5957656  79.4293022  12.5072503  27.9049420
  79.0340090  11.2234044  27.2074652  12.7570913  70.2042181  47.7568150
  12.3718736  71.0445893  48.0050373  13.0843780  69.8386747  48.5786963
  58.9750955  66.2780649  22.6159930  59.7939489  65.8384044  22.3870397
  59.2496297  67.0707542  23.0769801  83.7399893  15.4809834  26.8851784
  83.6350351  14.8777796  27.6209572  82.8575068  15.5781914  26.5273979
  19.4995519  54.0148958  18.9253834  18.7103674  54.4871338  19.1907242
  19.5149156  54.0911444  17.9713467  72.0265913  40.3574944  63.9797592
  72.6856518  40.9539938  63.6247110  72.0100927  39.6248531  63.3639717
  80.9914398  19.3383694  61.8367910  81.1853886  20.1284909  62.3410988
  81.6422844  19.3364346  61.1349154  81.9894317  60.5251785   0.6539896
  81.3666728  61.2431284   0.7677868  82.8102877  60.9557315   0.4151371
   7.0393199  27.7378225  60.9869671   6.3798350  27.2573566  61.4874363
   6.8701476  27.4981141  60.0758410  29.0418482  17.6941228  51.6090822
  28.1130457  17.8374553  51.4273834  29.1231155  16.7454231  51.7070436
  36.6857076  13.9330542  54.9232483  36.9729924  14.6246982  55.5193424
  37.4819946  13.4390056  54.7281170  68.3492088   7.7687997  69.3676138
  68.7390709   6.8947369  69.3517065  67.5395727   7.6608843  69.8666859
  75.8122110  12.0256197  33.7831211  76.0328197  11.4318204  34.5007348
  76.5511417  12.6324403  33.7386060   9.2491790  50.6705447   9.3510416
   9.0912935  49.8225268   9.7659758  10.0646850  50.5509229   8.8643482
  39.4519136  76.5883682  33.1957412  39.5772597  75.9429342  33.8913965
  39.0599630  76.0926095  32.4768329  75.2755642  10.5301034  28.9939451
  74.5980597  10.8824134  28.4167981  75.7029247  11.3036358  29.3616962
  54.3656633  75.4706747  58.0794287  55.2531907  75.8070404  57.9553699
  54.0217874  75.9697134  58.8203335  81.8949750  52.5557121  11.6083077
  81.1374905  51.9827970  11.7275646  81.5503600  53.3129819  11.1349991
  54.3878984  38.0052352  63.5046577  53.9428949  37.6366377  62.7415466
  54.7103882  38.8556433  63.2062626  25.6307435  12.1551062  25.9632042
  25.7687640  13.0922104  26.1011246  26.4576125  11.8427397  25.5958489
  26.3059541  43.3249329   4.8668793  25.4672929  43.5146134   4.4462851
  26.4976045  42.4197586   4.6215990  26.6075348  -0.2823614  10.3036144
  26.4935135   0.5702425   9.8837307  26.9626975  -0.0777696  11.1686161
  43.1947613  28.5633445  44.8770475  42.7095985  27.9386091  44.3380165
  42.5384855  29.2044616  45.1500034  79.6343851   4.6773365  53.5440779
  79.6811008   4.4421858  52.6173878  80.5005169   5.0317270  53.7452078
  27.6803538  80.1074496  44.4455957  28.3876130  80.7144040  44.6638250
  27.1255300  80.0958192  45.2255058  43.2373998  76.8099923  41.6513014
  43.0686423  76.3847083  40.8105373  42.6221749  76.3962630  42.2567463
  35.8969808   7.7859938  67.5550747  34.9912620   7.5054508  67.4239111
  35.9518576   7.9894966  68.4887791  19.7871253  69.7210760  51.9332123
  19.0297982  70.3048820  51.8900776  20.5077979  70.2841265  52.2157669
  30.5323386  20.5627155  67.0660543  29.7498989  20.9400320  66.6639948
  31.1976457  21.2458205  66.9825935  83.3662036  75.0031372   2.8143337
  82.4745133  75.3368326   2.9131535  83.3153966  74.3999263   2.0728567
  69.2753294  78.0991513   4.5378622  68.8629297  78.8342322   4.9915296
  70.2136734  78.2287542   4.6755043  66.4246088  30.6530809  39.1214466
  66.9209117  29.9153042  39.4758487  66.0622185  30.3247690  38.2985759
  59.9209785  24.6313953  15.8696556  59.8698044  24.1117167  16.6718709
  60.6652164  25.2166414  16.0104716   5.0252887  54.2669960   2.9950312
   5.8139106  54.6028026   3.4211043   4.4089719  54.9989219   3.0208376
   4.0669596  25.7452679  57.6723289   3.3443224  25.6632471  58.2946634
   4.4928730  24.8881483  57.6855373  51.8570232   0.1300036  64.0152884
  52.3945522   0.9027380  64.1890097  51.9291639  -0.0044228  63.0703259
  62.3337460   5.7367694  56.8500519  62.6836824   5.7205749  55.9592581
  61.7335796   4.9919227  56.8851900  51.6453957  15.3086163  27.2026184
  52.1689438  15.3516747  26.4024571  52.2901845  15.2612187  27.9084709
  76.3569164  21.7736149  48.3976603  77.2552013  21.6274285  48.6942101
  75.8268690  21.6935754  49.1906786  73.0063105  14.6611226  41.8628168
  73.3172607  13.9387524  42.4084568  73.7782621  15.2116692  41.7315865
  53.8926315  68.0919981  43.9765501  54.6429729  67.6100731  44.3243504
  54.1666794  69.0089130  43.9966679  73.6785078  12.7333212  56.9297838
  73.8273907  11.9673157  57.4841309  73.2178402  12.3892629  56.1645079
  84.2899707  45.6835236   5.7293823  83.5039380  45.6661018   5.1834133
  84.2431786  46.5213402   6.1899307  38.5507417  31.2969661  47.0018339
  38.9987850  32.1221256  47.1878529  38.2831883  31.3709164  46.0857677
  57.6849749  40.9874508   9.3489483  56.7505434  41.0526298   9.1519144
  58.1097629  41.5147521   8.6723831  63.3557749  39.1883802  65.7221460
  63.9116764  38.6553550  65.1537323  62.4718857  39.0660930  65.3757143
  38.7660405  78.5116411  67.5117779  39.3000838  79.3059625  67.5209761
  38.4930322  78.3960304  68.4219074  60.0233555  36.6459846  66.1599493
  59.5742655  36.3813996  66.9627857  59.8724699  37.5893712  66.1008883
  59.1337919  15.8025646  11.1336160  58.3627033  15.3693020  11.4995980
  59.3741941  15.2658880  10.3783572  68.2840109  22.5273824  32.7220559
  68.1862736  23.4780765  32.6685905  69.0871811  22.3414493  32.2356606
  23.9521167  76.5070063  51.0560799  24.7879121  76.9574965  50.9346628
  23.8266751  76.0125310  50.2461481  47.6352072  13.7854111  54.2336178
  47.1408796  12.9753268  54.3586636  47.4473143  14.0437925  53.3313036
  18.2343900   9.9230528  28.5058856  19.1486275   9.8768586  28.2261205
  17.7680969   9.3513834  27.8959703  75.1416016   1.4193594  27.4626970
  75.0093079   1.1040821  26.5686440  75.9926271   1.0637052  27.7186203
  65.1092768  10.4858088  39.4113064  65.3969765  10.3948295  40.3197002
  65.5737782   9.7925651  38.9423847   1.0989019  59.7654482   2.3241165
   0.5835697  60.1100870   3.0534199   0.7180425  60.1748045   1.5471962
   3.5208532  41.6945019   5.0420168   3.1053850  41.8682729   4.1973713
   4.0662548  40.9234053   4.8865298  45.2199745  17.0700657  51.5352249
  45.5060816  17.1364367  50.6241989  44.9005842  16.1718225  51.6211319
  50.5270100  20.1434970  56.3656092  51.0602999  19.5347977  56.8768072
  50.8300257  20.0291562  55.4648685  15.3005239  50.7526179  34.7215298
  15.3221580  51.6546996  34.4021347  15.3222295  50.8355017  35.6748894
  38.1529951  19.7019660  59.3564320  38.7748671  19.9118507  58.6596870
  38.6823630  19.6881998  60.1538086  42.7999401  11.4246297  22.1148396
  43.5944843  11.0470378  22.4921417  43.1179142  12.0564544  21.4699173
   1.8818110  16.5209997  59.2444277   1.5845221  15.7203710  58.8121748
   2.7213401  16.2831640  59.6379328   1.6096896  37.0075107  60.4043245
   0.9480780  36.3372278  60.2333593   1.1848563  37.6142192  61.0106754
  74.1217566  18.3501136  35.9938359  74.9190140  18.8224185  36.2337065
  74.4250727  17.4744773  35.7540631  48.9867783   6.0989398  69.3512297
  48.8251448   6.1233985  70.2943659  49.6364594   6.7857993  69.2016745
  60.0612974   8.1109148  64.6121264  60.7047939   7.8883988  65.2849054
  60.5395889   8.6682010  63.9982033  21.7265674  75.0724288   7.6008204
  21.0219976  75.4346700   7.0636109  21.3033601  74.8435922   8.4283236
  39.8018694  13.8223922  39.9428391  39.5863867  14.6575844  40.3578711
  39.7694325  13.1850147  40.6562328  32.4226451  22.4899507  67.1566057
  32.4317980  23.2075286  67.7900314  32.5837660  22.9129219  66.3131809
  51.8253615  55.0016626   1.8258360  50.9449294  55.3770550   1.8134573
  51.6821459  54.0568908   1.8817642  53.7103415  13.0405402  45.2201223
  54.5453501  13.4195948  44.9456978  53.8964081  12.1085835  45.3344250
  57.4616525  79.4988779  48.9637566  56.6838262  78.9836217  48.7499189
  57.1341703  80.3911384  49.0771389  85.4206944   4.8404863  65.2114439
  86.0586739   4.5973459  64.5405436  85.2760315   4.0347946  65.7075930
  81.6013241  35.1493239  66.4033985  82.0980263  34.7994995  65.6637096
  82.2594357  35.3084278  67.0800161  22.6133392  80.6895371  58.1852341
  23.4885595  80.8877290  57.8521538  22.5312850  81.2233239  58.9755344
  40.3587341  23.5143542  25.6225610  41.0639954  23.8188910  25.0515151
  40.0260830  24.3101645  26.0376048   0.3704184  29.8372602  22.2409153
   0.8018130  29.7060490  21.3965750   0.9187621  29.3634248  22.8662395
  37.6084924   8.6269069  57.7238846  37.3903823   9.1097891  56.9267082
  36.8177938   8.6810768  58.2606268  73.2558203   7.7789932  23.0089951
  72.4023676   7.8669578  23.4333920  73.8781643   7.7154428  23.7334824
  81.2053063  60.2778741  12.5771645  81.2015298  60.2052935  11.6227272
  80.2956870  60.4682203  12.8064945  46.7294264  24.4332743  66.1159801
  46.0300207  25.0556803  65.9168053  46.6118479  23.7288499  65.4786444
  37.9793620  14.8885465  48.2268620  38.7688041  15.2753747  48.6055088
  37.6318312  15.5692339  47.6505613  68.5618496  13.0928242  42.1680307
  69.3580484  13.0336428  41.6400242  68.2284594  13.9743471  42.0006990
  67.5308943  25.6177950  35.4981637  67.8043556  24.7271919  35.7178879
  67.8024626  26.1441255  36.2501335  10.6680557  41.4796997   1.7322424
  10.5686733  40.5651554   1.4677361  11.3238117  41.8329899   1.1310747
  71.6169575  71.5901340  52.6926231  71.4563003  71.0353762  51.9292974
  71.9397786  72.4135626  52.3265839  60.0466061  28.0168676  49.6503782
  59.5380974  28.6549902  49.1499281  60.8871269  27.9700828  49.1947842
  53.7922409  71.1165520  20.8206490  53.9509847  70.9764953  21.7541435
  54.1379812  70.3302284  20.3982857  70.1352930  38.2271099  51.3369370
  70.0988102  39.0734529  50.8912897  69.8758125  38.4194970  52.2379875
  75.5151701  32.1418381  53.0715656  75.3770208  31.4030981  53.6643648
  76.3252258  32.5480580  53.3798265  84.5913887  46.1055803  37.0157337
  85.1548290  45.5805111  37.5841331  85.1980019  46.5619040  36.4326191
  11.0291073  38.9831715   8.3594826  10.9069082  38.2616792   8.9765337
  11.9064542  39.3151927   8.5499075  21.8915915  43.3142614  33.3782148
  22.6590753  43.8813734  33.3034801  21.1866069  43.8090324  32.9605579
  54.8764894  79.4968388  46.1359787  54.1027162  79.8820960  46.5471745
  55.0965688  80.1007810  45.4267168  64.8604774  26.7255497  42.8638172
  64.3168163  27.5111151  42.8042459  64.7201920  26.4041638  43.7544727
  49.8155260  38.5232496  54.7948074  50.2234077  39.2097116  54.2669535
  50.4807615  37.8373027  54.8511171  69.3619967  12.8353882  55.0605917
  69.0919590  13.7174857  55.3159666  68.9036226  12.6739085  54.2359352
  71.7896223  21.0752082  59.0341377  71.8311262  20.2309108  58.5850620
  71.1043215  21.5585351  58.5726261  12.3007819  77.7927355  68.1386137
  12.9736945  78.4704158  68.0740786  11.7325780  77.9467705  67.3838615
  39.5723581  21.0680008  48.0973673  39.5059061  21.4684081  47.2304821
  38.7026811  20.7025671  48.2597065  20.0002453  77.7490683  20.2766350
  20.7467767  78.1293793  20.7395485  19.2367908  78.1873294  20.6525257
  44.4336176  35.4291773  44.0510607  45.3230715  35.5607438  44.3793821
  44.3607616  34.4825268  43.9295053  45.6008360  57.1365579  16.1613301
  45.2034780  57.4617143  15.3534916  45.8495065  57.9267712  16.6408756
  69.7257665  56.0352596   1.8868139  70.1554444  56.8571623   2.1236399
  70.1866868  55.7418164   1.1008909  38.8231084  74.6383507  66.2119102
  39.3862054  74.6653849  66.9854879  39.4176719  74.4349456  65.4898643
  80.8952141  32.6559401  48.6305523  80.5451870  33.5293555  48.8062143
  81.0230923  32.6354432  47.6821518  70.6442263  37.8765251   1.9871309
  71.5112307  37.7920528   1.5903881  70.3798535  36.9767522   2.1788243
  69.1260099  18.5028684  27.7519917  68.6167669  19.3054497  27.8649783
  68.7130833  17.8721690  28.3418584  46.9694567   5.8648783  56.8266964
  46.4106560   6.6408652  56.7840433  47.4455547   5.9576398  57.6518965
  36.8588900   1.7682959   1.5068320  36.1404633   2.2993828   1.1632517
  37.6457715   2.2804285   1.3203648  41.1978576  69.4873494  58.7667847
  40.7263610  70.2689869  59.0548277  40.5342576  68.7975950  58.7563515
  63.5117340  37.2096348  60.1866293  64.3367052  36.7320991  60.0993681
  63.5662079  37.9038453  59.5298672  66.3964173  78.2799432  42.4872208
  66.5407750  78.0329294  43.4006643  66.9047448  79.0829377  42.3730469
  57.8241918  77.4314923  31.4801908  58.3857724  77.2805006  30.7198858
  57.6179311  78.3655006  31.4438963  10.0150463  78.6347814   6.8718937
   9.8123523  78.3792897   7.7718237   9.3251535  78.2293268   6.3466433
  76.7329502  39.6501565  46.8650913  77.0593452  39.6806192  47.7644062
  77.5111151  39.4828320  46.3334036  83.9215997  68.3593126   8.1964377
  83.3742574  68.4127041   7.4129847  83.6636260  67.5371595   8.6132649
  51.7611024  76.3844979  45.6534576  51.1013648  75.7657421  45.3402138
  52.4272725  76.3926617  44.9661589  26.8085691  51.8484147   5.8451107
  26.3881036  52.6357945   5.4994610  26.0889360  51.2315138   5.9785059
  74.9333239  60.0357437  64.6814823  74.9374771  59.4671249  65.4514742
  74.8885632  60.9225893  65.0388908  42.7598426  77.3367429  68.9577866
  43.5577533  76.8966628  68.6646986  42.0720622  76.6789586  68.8552713
  82.6716855  67.3232623  19.0455845  82.9999974  66.4598699  18.7946060
  82.6533416  67.8196736  18.2273796  18.8659761  73.3369065  58.4996223
  19.5200584  73.0228955  59.1239643  18.9211700  72.7240879  57.7663851
  53.5073805  15.9513247  31.1859512  53.7233114  15.4497433  30.3998089
  52.9421949  15.3691590  31.6937757  15.1273557  55.0072666   0.1824501
  14.6292850  54.1902335   0.2071789  14.4850465  55.6857308   0.3906658
  48.6093542  22.6414939   0.6048039  47.7096864  22.9090150   0.7925633
  48.5252592  21.7647274   0.2300480  23.3318851  66.4855928  63.4747982
  22.8142688  67.0752472  64.0230799  22.7659747  65.7254822  63.3398628
  77.6547387  68.9571472  10.7157448  77.2087100  68.1649323  11.0152176
  78.0472043  68.7091394   9.8786667   6.8094227  59.3575545  15.7580975
   6.2473604  58.9850994  16.4375141   6.5673229  58.8852986  14.9614838
  38.0401519  17.8744717   7.1694639  37.4103209  17.7646395   6.4570835
  38.8704160  18.0562945   6.7291954  42.1022556  74.6274829  49.8990297
  42.7657077  75.3170574  49.9225235  41.3172099  75.0379676  50.2615738
  82.9538825  63.8327653  64.0496302  83.7144450  63.5736997  63.5293770
  82.6117471  64.6078414  63.6041737  68.8848212  56.9946571  20.2920559
  69.7263005  57.0104142  20.7480171  69.1157105  56.9953330  19.3631199
  31.3650817  16.4660490  60.0876284  31.8468684  16.9657207  60.7467508
  30.8618754  15.8269215  60.5921364  66.8867779   5.3227526  25.2536082
  66.8205547   5.9581697  24.5408010  67.6576853   4.7985941  25.0363660
  64.0479136   1.9107448  54.5894670  64.9840498   1.7271963  54.6681404
  63.6592484   1.0716210  54.3423939  11.1332628  51.6547712  11.8590382
  10.9861013  51.1625191  12.6666668  10.2661726  51.7244359  11.4596298
  57.9872987  79.9534735  46.2411356  57.0917031  80.2836379  46.3127279
  58.2228467  79.7042457  47.1348000  76.6685820  42.8771782  63.4152269
  77.1152782  43.7170744  63.3090878  76.7845869  42.4361658  62.5736332
  49.7946310  13.7516332  30.0589204  49.4257975  14.2165768  29.3079090
  50.5774403  13.3222151  29.7138906  70.5795336  42.7070999  31.9504261
  70.5052471  43.6547518  32.0629716  71.4170933  42.4826813  32.3558402
  49.7917891  28.2485414  46.1190510  49.4207430  27.6001024  46.7174482
  50.6284857  27.8718376  45.8465242  31.8425274  18.2646477  58.2561350
  32.6915932  18.5950506  58.5496473  31.6494370  17.5393009  58.8501215
  10.9414598   8.7254449  29.4590405  10.3832647   9.4726702  29.2438629
  11.0318395   8.2485600  28.6340264  50.8122540  18.1307769  37.7679062
  50.4223156  17.2712576  37.6085067  50.4456854  18.6907196  37.0835638
  61.8251419  41.2300587  37.9350114  61.5333891  40.3571892  37.6719260
  61.5195084  41.8060684  37.2342777  80.4742434  35.3845372   8.0648640
  80.5430987  35.6000148   7.1347740  80.0382521  36.1423095   8.4546354
  59.1648862  54.5426816  65.7498550  59.4444654  55.2352375  66.3485479
  58.6475179  54.9959511  65.0841904  14.4685361  67.6166338  62.8698397
  13.9544341  67.5094146  62.0695686  15.2573106  68.0796546  62.5875711
  74.0374374  76.2677670  40.1261663  73.7863207  76.8603611  40.8346891
  74.9919319  76.2205076  40.1804113  12.2705287  65.7806730  45.1521969
  13.1129187  66.2303352  45.2186251  11.7929000  66.2650776  44.4788027
  48.1036615  22.3257017  48.3280182  47.9291677  23.0992293  47.7918863
  48.0314779  22.6381373  49.2299080  67.3562050  46.3404512  59.5485735
  67.7869034  46.8016291  60.2683258  66.6872358  46.9511223  59.2390728
  67.8066015  29.1483760  43.0372667  67.0473289  29.7296953  43.0797148
  68.2554722  29.2792845  43.8724995  60.4589987  61.0595608  52.3687077
  60.7636547  60.2283525  52.7327204  61.2554693  61.5787983  52.2579527
  80.1756096  37.4380755  49.9506712  80.8176613  38.1397986  49.8430347
  80.0535488  37.3682714  50.8974886  11.8811816  76.9710636  46.4497566
  12.4645251  77.2724199  47.1462679  12.4683017  76.6142464  45.7832623
  40.2711603  67.4658652   3.8811711  40.4158613  67.7977677   4.7672489
  40.2890512  66.5135642   3.9762238  69.3949986  67.1420527   4.2464134
  69.6150112  67.6741934   3.4817877  70.2268267  66.7508411   4.5133355
  70.0218487  37.4655271  23.7985873  70.6403399  36.8238115  23.4494448
  70.5256796  37.9543495  24.4493079  72.4231911  53.6224461  37.1262908
  72.2957897  54.3583202  37.7250266  73.2779455  53.7838936  36.7268372
  21.5934250  61.2812491   2.7144316  20.9838792  60.7043620   2.2541168
  21.4919016  61.0493489   3.6375454  58.6499214  61.9183683  60.9194994
  59.4823885  61.5514088  60.6218910  58.7911081  62.8650951  60.9174252
  64.6839857  38.2220197  68.0182076  64.4659805  38.7161136  67.2279024
  64.2307520  38.6850286  68.7227917  77.0299867  72.4021073   6.7911032
  77.9500058  72.6626082   6.7470720  77.0555690  71.4587732   6.9514158
  61.0690260  49.1429949  24.7543311  60.6601810  48.2909679  24.6022606
  60.3813171  49.7778654  24.5537567  64.1573334  17.4965012  43.5157967
  63.7949467  17.8616810  44.3229818  63.8451672  18.0826557  42.8264427
  53.0971622  73.3925581  66.2431240  53.1509113  74.3481064  66.2267542
  53.1138706  73.1359005  65.3211260  76.2605622  53.7330468   6.6816786
  75.9176162  54.5211883   6.2604264  76.1667254  53.9023634   7.6190975
  34.5644113  36.2828489  13.7753800  35.5117914  36.1581581  13.7192181
  34.2363474  35.4627713  14.1442707  55.6536484  53.1306458  24.5651793
  56.5588188  52.8830910  24.7538757  55.6769133  53.4558153  23.6652040
   3.9371222  65.4388332  31.2409234   4.0959472  65.0851202  32.1160769
   4.0699691  64.6944618  30.6539893   2.1953365  78.0888553  11.8386868
   1.7779133  77.2295543  11.7787770   3.0026600  77.9987784  11.3323906
  67.7601433   6.9597340  53.3725691  68.2846928   6.9983333  54.1723108
  67.1160555   7.6604366  53.4745359   4.4197768  58.3085537   5.2761948
   3.6396903  58.8583374   5.2025104   4.4286555  58.0267477   6.1909288
  68.6104918  43.4562492  28.4311938  69.0946817  44.2132664  28.7609148
  69.0492773  42.7016640  28.8240075  52.2244596  51.2369061  65.2481937
  52.7829313  51.0019112  65.9892178  51.3891506  51.4821672  65.6461143
  14.7433066  36.6450047  51.1566448  14.5284593  37.5165987  51.4889050
  15.4916215  36.7873931  50.5770016  53.4436700  71.3162357  29.6781349
  53.8424394  71.8642355  30.3540874  52.9886338  71.9344026  29.1062546
  15.0648803   5.7744628  24.7548294  14.3069953   5.6760526  25.3311515
  15.2109832   4.8977673  24.3994522  66.5489388  44.5651913  68.2329702
  66.3014984  45.1433849  67.5113726  66.0336542  43.7710953  68.0910921
  18.3955687  29.2213440  40.3849077  18.1696814  28.9400363  41.2715149
  19.3419951  29.0908074  40.3260326   7.7388495  25.4842377  37.2356343
   6.9236583  25.4253817  36.7374086   8.4220618  25.2575588  36.6047072
  25.7591414   0.9147669  15.4929093  25.0952315   0.9873606  14.8072079
  25.4932475   1.5554215  16.1525276  66.6031742  19.6990430  62.9644871
  66.5684652  18.8389909  63.3832169  66.1777687  20.2867651  63.5888577
  51.9288206  14.8672819  45.8671045  52.5159502  14.1479647  45.6345177
  52.3151255  15.2459717  46.6567850  41.5131235   8.9475369  54.6186638
  41.4415455   8.0279827  54.8746490  41.7109299   9.4084162  55.4339552
  72.6353598  18.4288085  49.6808958  73.1116676  17.7526879  50.1627922
  73.1432009  18.5543156  48.8792896  68.1815767  51.2751532  51.4814711
  67.2677755  51.4516592  51.2577772  68.1652308  50.4098368  51.8903589
  78.6505699  32.7707005  23.4635639  79.4509506  32.9533291  22.9713511
  77.9474974  33.1190729  22.9153347  43.3391690  10.4373337  13.0603245
  43.7442803  10.8122851  12.2783116  43.9591145   9.7700764  13.3547142
  78.2017469  21.3010764  39.3542171  78.8739347  21.7676687  39.8508954
  77.6256800  20.9288621  40.0219250  74.2111111  30.3847814  50.3373289
  74.4791079  30.5763793  49.4386101  74.8932552  29.8024440  50.6716919
  69.4593382  52.9243851  57.4907303  69.3883276  53.8500404  57.2575951
  68.5729599  52.5806522  57.3793173  53.9725426  69.0306493   9.8174456
  53.3534816  69.7479292   9.6813992  54.2426994  69.1175767  10.7316044
  63.3406305   6.8977654  40.7540751  62.7051353   7.5970197  40.9071302
  64.0373421   7.0641088  41.3890219   6.0658282  37.0088220  64.6589661
   5.9457034  37.9482126  64.5198822   5.7753295  36.6064358  63.8404751
  60.7533503  39.7683668  64.5409632  61.0783434  40.3536272  63.8568020
  59.9323940  39.4227934  64.1904688  56.0246706  53.0138588  66.3250160
  56.8925810  53.1982374  66.6841364  55.8272791  53.7716913  65.7745934
  71.6120055  76.3352533  22.3986271  72.5567868  76.4566751  22.3044136
  71.3813880  76.8444248  23.1756619  68.9690518   0.8633543  10.2154091
  68.4419560   1.1972691   9.4895247  69.0277504  -0.0785373  10.0553349
  59.7083426  46.7686033  44.0164757  59.8707390  47.1435356  43.1508636
  60.5627489  46.7827892  44.4477701   7.8343985  64.6625144  31.2761283
   8.4130761  63.9119322  31.4102578   7.4966881  64.5488352  30.3877234
  48.3669686   4.5939328   4.1923216  47.8578209   5.1562144   4.7761324
  49.0551257   5.1645638   3.8501862  34.4279021  28.6931968  27.9442000
  33.6241645  28.5671616  28.4485316  34.1328734  28.7595129  27.0360184
  75.8309364   9.6194166  54.6515179  75.1179457   9.0500891  54.9408960
  75.7413292   9.6501899  53.6990166   3.0682963  55.5640316  59.6593618
   3.0685729  54.8990488  60.3478575   3.3421725  56.3672829  60.1020861
  72.3357582  21.9078684  37.5019240  71.7284012  21.3021231  37.9266882
  72.5803423  22.5248051  38.1917071  22.9068038  78.7764389  30.4079390
  23.5028646  79.0293852  31.1128926  22.3254344  78.1289155  30.8066320
  19.8569295  65.0786764  58.4086323  20.3751704  65.6600315  57.8521395
  20.2127597  65.2085871  59.2876911  74.0262890  23.1991124  62.5115013
  74.2523956  23.3428788  61.5925694  74.2715597  22.2891521  62.6789761
  80.7432079  47.6434326  36.9142461  81.6440010  47.3866129  37.1113133
  80.3668404  47.8688288  37.7649975  68.6834669   9.0949470  45.6960249
  67.9227638   9.6745980  45.6564093  69.3283033   9.5063496  45.1205540
  77.1373701  47.4146318  61.4907980  76.8953466  48.3026981  61.2281322
  77.6112127  47.0627260  60.7372284  36.5759486  27.7580523  54.2461729
  37.4722403  28.0922818  54.2117691  36.0348052  28.4937668  53.9596033
  21.6082120  20.7214904  57.1810055  22.1230698  21.5128112  57.3390007
  21.9888306  20.0671577  57.7668476  45.9587193  27.9699135  49.5225286
  46.2409496  28.5821533  50.2020407  45.0672531  27.7279139  49.7734404
  53.9385653  57.9889154  51.2805748  54.3016958  57.3617840  50.6552172
  54.4623566  58.7805653  51.1574411  72.2841549  44.5330477  46.3529396
  73.0642653  44.8260736  45.8819818  71.6020489  44.4895649  45.6828117
  77.6221085  19.4450402  20.0991225  78.4715891  19.1441774  20.4217529
  77.0763826  18.6586785  20.0921082   9.4795913  43.3597994  53.5051680
   8.7478465  43.8324976  53.1085062  10.2263373  43.5559845  52.9393721
  17.3185176  24.8316479  66.2242079  17.3747653  24.0477157  65.6778383
  16.3933009  24.8919177  66.4620829   2.0410177  47.7746113   6.4584377
   1.6795179  47.4403514   7.2793034   2.7519437  47.1698960   6.2459877
  78.0014038  10.0504529  42.1479702  78.4722090  10.8741117  42.0208502
  77.9476595   9.6676809  41.2722826  55.0608181   9.7617318   6.6690472
  55.4143357   9.9895932   5.8092049  55.0293660   8.8050486   6.6692236
  56.7815208  27.6882529  54.8317003  56.0238171  27.1112394  54.9274731
  57.4836445  27.1131134  54.5276117  67.0162389  72.3703004  56.9377232
  67.7734372  72.8113282  57.3229170  66.9566343  71.5400386  57.4103165
  81.8912411  26.9234014  30.7757068  81.5829372  27.3708510  29.9876904
  81.0928059  26.7157626  31.2611198  21.8906140  17.9713751  31.9067982
  22.0220017  18.8914849  32.1356228  22.7113127  17.7086522  31.4900616
  62.5173759  40.9642506  50.5077648  62.9923391  40.2240276  50.1299858
  62.1322250  41.4114380  49.7541666  83.2201576  73.1389236  35.1650786
  83.0294228  73.8042450  34.5038676  84.0851021  73.3752537  35.5001092
  26.3744998  14.3534590   6.8669584  26.9927001  14.8076607   7.4394587
  26.5666174  13.4246470   6.9959334  44.9319005  15.7721926   1.9344118
  45.2441811  15.8326317   1.0316065  44.8891568  14.8323323   2.1106556
  69.3025300  72.5395203  60.8147860  69.6125695  73.4450740  60.8061409
  69.4058034  72.2423584  59.9107599  65.2954578  76.9677496  60.3369236
  64.7612953  76.4226580  60.9146547  65.5096483  77.7373457  60.8642483
  12.4330970  61.0202928   9.2809561  12.8816673  60.6444832  10.0384453
  11.5675279  61.2617679   9.6106699  64.9249268  46.3067055  36.4516830
  64.4034147  45.9828329  37.1860981  64.9744558  47.2523165  36.5916944
  74.0259504  54.3686867  54.2975426  73.8606071  55.0183630  53.6143112
  74.2636919  54.8857212  55.0672102  30.4645252  35.9237552  34.1232514
  31.1788940  35.4849005  34.5851111  29.9114799  36.2784886  34.8193383
   1.4400905   3.4732272  26.3642529   1.9938129   3.2738425  27.1191529
   0.8971637   2.6928355  26.2526825  10.3555316  32.2178078  65.4736996
   9.4159526  32.1859717  65.2936602  10.4741210  31.6429830  66.2298393
  69.1111422  39.1744709  33.6258316  69.5863008  39.0677762  32.8017759
  68.8687420  40.1002836  33.6444020  67.6438046  34.7092175  49.7916079
  67.1624660  35.3695416  49.2930889  68.0322170  34.1421866  49.1253948
  83.3099270  37.6575851  69.9594927  82.4563694  37.3019361  69.7121143
  83.1654072  38.6013198  70.0281191   2.4035949  12.7205539  32.7176285
   1.5779513  13.0985260  33.0204272   2.9523486  12.6850450  33.5011053
  73.7377024  61.2969589  48.0345583  74.3714046  61.6983795  48.6291361
  73.0598640  61.9632912  47.9215479   9.6944636  47.5585175  59.5628214
   8.9464206  48.0370092  59.9201870  10.3947657  47.6981115  60.2002621
  78.2826900  18.7904119  62.2753906  79.1392660  18.9694524  61.8875027
  77.7129126  18.6139679  61.5267563  59.2971230  10.6245565  42.7204609
  58.5539007  10.6533909  43.3229780  59.2196941   9.7756296  42.2850752
  44.7871422   7.5236203   4.8243693  44.8210263   8.2489230   4.2006567
  44.3074679   6.8345810   4.3646172  73.2368708  12.1600473  63.9726543
  73.3196545  12.3678851  63.0419683  72.4541998  11.6116774  64.0269136
  71.8185234  35.8002901  57.6230192  71.5751076  36.6766644  57.3247766
  71.4669609  35.2132559  56.9536686  73.3518791  46.6181564  13.3169150
  72.7905512  47.0262575  12.6576746  74.1690969  46.4329910  12.8542089
  44.8308107  59.6366521   0.7374218  44.3595812  58.8572677   0.4429129
  45.7471010  59.3624337   0.7754496  84.4644549  54.0003093   6.1355093
  85.4168036  53.9048012   6.1471060  84.1873601  53.5414537   5.3424767
  67.8499508  66.9953299  65.7109165  67.7091217  67.5947809  64.9780750
  67.0720863  67.0999813  66.2588358   7.4313232  68.8107177  30.7278755
   6.6656086  68.3275338  31.0384300   7.4769947  68.6117669  29.7926930
  77.2846127  18.3582723  50.0756073  77.9280806  18.2566929  50.7769394
  76.5649033  18.8433361  50.4792976  74.8171568  43.1473494  40.6151390
  74.0701532  43.1421232  41.2136269  75.0734854  42.2278595  40.5439758
  69.0025806  46.6433048  68.1404734  68.1191206  46.8834972  68.4198332
  69.5569849  47.3544407  68.4616423  10.0716800  43.6005783  30.3321528
   9.1468448  43.8348627  30.4096746  10.2352923  43.0215549  31.0765982
  85.7045937  57.3425770  45.2078819  86.1085987  56.6330528  44.7082996
  85.7720947  58.1069851  44.6357298  36.8269750  53.1920429   6.6982010
  37.4141046  52.6279732   6.1948803  36.3212034  53.6629971   6.0359123
  84.6121120  52.1439075  61.1970043  85.1885605  52.9073954  61.1648560
  83.7345028  52.5004435  61.0594749  57.1055555  49.9008274  46.3262939
  57.2232008  50.6906414  46.8541050  57.4927425  50.1193666  45.4786158
  66.4509106  46.6595840  14.7395885  66.8723869  45.8168793  14.9082065
  65.5321646  46.4409256  14.5836067  65.7319403  55.8064842  55.4413080
  66.1432362  56.0326862  56.2755156  66.4383030  55.8767605  54.7991657
  63.4570360  24.2155576  55.6459665  62.9968309  23.6484456  56.2646914
  62.7773094  24.5100307  55.0397587   1.4124125  58.9163542  53.7526512
   1.3866919  58.7832594  52.8050995   1.2470359  58.0484819  54.1209936
  63.2734680  46.6827393  41.7707920  63.2444239  45.7261610  41.7520809
  64.1327906  46.8891239  42.1384907  63.5655996  40.1036169  15.6463078
  63.4919950  40.0748791  16.6002491  63.5505792  41.0366088  15.4329231
  60.0796652  66.5577650  41.8105173  59.9690723  67.3419428  42.3481655
  60.9629297  66.6369867  41.4502382  38.6263966  14.2570759   1.8311766
  39.3853783  14.0927626   2.3908022  37.9229998  13.7399317   2.2236422
  64.5563745  59.1844845  50.9934807  63.9901400  58.8840628  50.2825975
  65.2203894  58.5000515  51.0763216  41.7086980  71.8581319  66.5495634
  40.9337375  71.3459379  66.7804909  41.6219995  72.0128173  65.6089306
  31.4898467  29.3830086   9.8993328  30.8000969  29.3073775  10.5586842
  31.4976668  28.5315205   9.4621351  11.0883066  47.1179559  12.6370934
  11.1293241  46.1987778  12.9010227  11.4551851  47.5970950  13.3801010
  60.5235529  34.5522428  55.0976658  59.6562529  34.8138785  55.4068041
  60.7914162  33.8556862  55.6970739  58.4387207  67.5686026  58.1259394
  59.0683651  67.6801014  57.4136591  57.6718616  67.1762943  57.7085066
  53.3208513   9.7558767  63.6888790  52.8007889  10.1439118  62.9851770
  54.2016983   9.6802342  63.3219767  57.3743820  21.6475034  32.7554750
  58.1781197  21.6511679  33.2753110  57.1214819  20.7253432  32.7119684
  46.4771482  71.1182471  13.9945820  46.0606214  70.6116577  14.6917942
  47.3919508  70.8368250  14.0077999  69.9364138  16.0138834  49.5531178
  70.0012875  16.6084778  48.8058043  70.4113340  15.2298951  49.2773533
  52.6350832  46.7698383  53.4155512  52.1321392  46.4922619  54.1812086
  52.0038843  47.2423029  52.8727865   2.5274104  37.3384356  53.7946701
   2.7793425  36.4687657  53.4841299   2.3100680  37.2094274  54.7178984
  75.7660723  18.1400979  69.3787336  75.9884548  18.4201026  68.4908295
  74.8091125  18.1463897  69.3992472  47.1212482  38.2565570   2.3511471
  47.6818609  38.0413294   1.6057464  46.3162756  38.5919356   1.9564617
  34.3554187  22.3869443  40.2193689  34.7009683  22.7738261  39.4149137
  35.1167083  22.3103356  40.7945251  74.3360758   0.3381480  52.2857761
  73.9004850   0.3811713  51.4345169  75.1963282  -0.0362447  52.0959806
  83.9556599  58.3604956  47.0754910  83.4593487  58.8476849  46.4178085
  84.6475506  57.9239368  46.5785599  54.9981785  65.9495592  34.6112871
  55.1806307  66.5822554  33.9165640  55.0465679  65.0974369  34.1779566
  33.1783318  17.2390105   2.2490624  33.4185910  17.7983118   1.5103558
  33.2971167  17.7950789   3.0190685  70.4133415  29.5208764  66.1056280
  69.5243931  29.3257308  65.8091068  70.9545231  28.8414001  65.7035494
  26.9443819  27.5476032  49.3334532  26.0127279  27.3945766  49.1758585
  26.9670412  28.1120067  50.1062155  69.9308777  68.3845949  27.7354646
  69.1989374  67.7875328  27.5805235  69.8883009  68.5777378  28.6720085
  52.7367830  16.2978244  48.1379128  53.2546186  17.0666099  47.8990698
  53.2669544  15.8465874  48.7948227  70.8249760  25.5958319  59.1905928
  71.0531425  26.4170194  59.6262789  71.6640806  25.2361155  58.9029503
  69.5679855  29.0052080  53.1681108  69.6451902  28.1150794  52.8246832
  69.8822260  28.9420366  54.0700483  50.0183964  74.6073341  44.0667057
  50.4089069  74.0089226  43.4298086  49.1829252  74.2006445  44.2965221
   2.2295398  49.7271872  56.7962170   1.8045634  48.9884710  56.3604116
   2.0334262  50.4796553  56.2380409  80.2823257  65.9687424  56.7387819
  80.3182125  65.2839518  57.4066210  79.9177694  66.7279959  57.1936083
  25.7935595   6.8842627   5.4759386  25.6001830   6.8909623   4.5385006
  25.6571269   5.9750010   5.7421425  70.0109625  41.3031769  29.5408630
  70.0504351  41.6674614  30.4251528  69.7165537  40.4010677  29.6663713
  22.0615360  59.9578377   5.0250509  23.0056497  59.8300465   4.9325875
  21.9465419  60.2474399   5.9301117  76.8672323  27.8184509  65.6056118
  76.0771751  27.6582885  66.1217451  77.4368191  28.3199859  66.1889362
  79.0326884  77.1041795   5.9629944  78.7584069  77.8785439   5.4717091
  78.6756184  76.3672157   5.4673985  51.1173081  23.5447289   0.8124426
  51.5391373  23.0684115   0.0973061  50.2362608  23.1736828   0.8604696
  60.3044915   2.6445128   5.7419852  59.5950150   3.2284428   5.4738501
  60.0248456   2.3019482   6.5909126  47.8187012  14.5831324  21.4292172
  47.2898840  14.8774649  20.6876209  47.2414851  13.9954211  21.9167069
  60.4994222  78.9351292   8.7144259  59.5944425  79.1487690   8.4872559
  60.6496069  79.3832870   9.5467928  23.5543364  23.1870794  20.4827571
  22.9798430  23.8095236  20.0369430  23.7485904  23.6005187  21.3239264
  80.8163071  16.6863203  63.2839966  81.5941715  16.5444481  63.8234758
  81.0334015  17.4478793  62.7462864  59.6323824  22.6315689  45.8947802
  59.7188091  22.8585768  44.9689150  59.4896555  23.4696889  46.3345718
  62.2241590   9.4280652  70.0851277  62.3342702  10.3761796  70.1571185
  61.4719770   9.3177823  69.5034920  65.6417656  35.4361105  60.6232786
  65.9751463  35.2163148  61.4932060  65.3117466  34.6071100  60.2767563
  24.5220041  34.6383977  35.0193715  25.2676535  34.1080523  34.7383547
  24.9126101  35.4550171  35.3304791  68.4146595  15.9124291  54.7294950
  67.6905584  16.5254438  54.8564768  68.6328983  15.9886312  53.8006258
  58.6868906   1.6673507  58.9202929  58.9861917   2.5464809  58.6883831
  59.4660711   1.2327736  59.2670631  73.2620049  62.3119068  42.1113014
  73.6574078  61.5926886  42.6038551  72.6658297  61.8826580  41.4976597
   5.8198851  52.8528166  56.6858149   6.2250346  53.0401802  55.8390665
   5.9119052  53.6669493  57.1807432  52.3767969  57.2197457  26.3549069
  52.8958723  57.5194188  25.6085900  52.4610635  57.9201027  27.0019177
  81.6172028  53.2959604  41.9456577  81.4580154  54.1944599  41.6565371
  82.2761154  52.9617167  41.3370943  79.8247051  29.0223551  20.8688498
  80.4617119  28.9719129  21.5815234  79.3874454  28.1709099  20.8777285
  72.7537537  17.1500254  45.4979658  73.0109644  17.7988040  46.1530685
  73.5176182  16.5794539  45.4131556  66.7215824  28.7337637  34.1886377
  66.0406590  28.9857531  34.8123932  66.2607574  28.2194448  33.5258031
   3.0528563  45.4683447   8.3618981   2.4593562  46.0305166   8.8598514
   3.7481517  46.0561848   8.0665499  61.8730736  30.0646067  39.9769807
  61.7508650  30.5518031  39.1621566  62.5601101  30.5428123  40.4412317
  -0.0663167   7.6929098  51.2081861   0.8773536   7.7852809  51.0771036
  -0.1602155   7.4914163  52.1392155  76.2826443   3.4945631  50.9893656
  77.1477652   3.4529352  50.5818558  76.3855219   3.0268228  51.8181372
  28.6258101  21.8748785  -0.0771162  27.8469634  22.4172999   0.0470236
  29.1992354  22.1085192   0.6528309  59.6437502  42.0925236  28.4054351
  60.0997114  42.9294920  28.4938049  58.7561369  42.2692490  28.7171006
  42.8403330  25.0225544  46.0044193  42.2187281  24.9645305  46.7300081
  43.5967016  25.4789877  46.3729286  71.3087868   2.7026440  -0.0930807
  71.5764641   3.4492852   0.4427508  71.7942357   1.9615103   0.2692631
  30.0359172  18.2012355  62.6414633  29.3664092  17.7558446  62.1222115
  29.5415038  18.7098408  63.2842016  76.6185785  66.4856337  66.3230020
  76.2071395  67.1375798  66.8903771  77.0236803  65.8636569  66.9273794
  58.7714434   9.2190468  28.9480972  58.3012867   9.1328365  29.7774053
  58.1062794   9.0611392  28.2781339   3.3657571  60.6020327  17.2335938
   4.1792938  60.0981196  17.2119930   2.6738664  59.9412020  17.2050312
  62.0018291   3.8274273  69.3372345  62.6704693   3.2309896  69.0004635
  62.1368170   3.8280591  70.2848721  17.1892852  23.7944889  46.9036341
  17.8916854  23.1507826  46.8113947  16.4527911  23.4157825  46.4236450
  64.9894431  16.3510376  55.4278803  64.6745470  15.8883243  56.2043905
  64.8099687  15.7522064  54.7030210   7.6093122  51.4027615   1.4953926
   7.0115682  50.7159253   1.7906693   8.4754965  51.0998090   1.7677429
  48.5368252  61.4104843  36.3497353  49.4354582  61.0821295  36.3793516
  48.4224463  61.8706560  37.1812367  72.0031738  51.6765451  61.6725302
  71.4793873  51.6615057  60.8714962  72.0178366  52.5978327  61.9318485
  67.8681946  51.8196487  13.5295224  67.5492573  51.5636110  14.3949437
  67.9111147  50.9995365  13.0377913   5.1025504  29.7498274  57.7156162
   4.3122405  29.7726750  58.2551718   5.5928439  30.5296445  57.9758549
  75.1040649  70.6892347  58.7527704  75.1700926  69.9807453  58.1125259
  74.2506933  71.0877180  58.5818815  56.5387011  55.2676105  37.2969437
  57.0774221  54.4879818  37.4318290  55.6977034  55.0501060  37.6989937
  79.6241331  40.6802750  10.6902349  80.3182220  40.0982428  10.9995890
  79.0298748  40.1077080  10.2052057  13.5778445  20.4137397  37.7086949
  13.2460898  21.1380291  37.1780562  12.7926368  20.0012207  38.0685806
   3.0684683  58.5885700   0.4001644   2.5995323  58.9838680   1.1350611
   2.4550077  58.6431118  -0.3325865   9.0436381  35.5283689  33.9239860
   9.9461573  35.3660178  34.1984367   8.5574454  34.7651553  34.2359996
   5.4211253  58.7059975  52.1334791   6.1417884  58.3415174  51.6196442
   5.4358310  58.2100630  52.9520559  39.2587709  28.7295461  61.3862658
  40.0729370  28.7647009  60.8841419  38.5742903  28.9265132  60.7467937
  14.9573535  22.0720053  23.8493490  14.0883750  21.6786718  23.9292812
  15.5591506  21.3821864  24.1290450  58.3337784  28.8530087  56.7449284
  59.0079689  28.2037187  56.9452429  57.6126528  28.3433557  56.3755274
  13.5646838  61.0103941  44.7416639  12.8467864  60.6108189  44.2505503
  14.3557757  60.6221056  44.3679953  49.4052264  73.4438819  60.2136755
  49.4186256  72.6332820  60.7225752  48.5005042  73.5216922  59.9109316
  57.9983711  75.5173779  51.6617680  58.6945105  75.7865000  51.0624409
  58.0247974  76.1652374  52.3659086  82.1640110  51.9698048  29.4746566
  83.0243015  52.1398401  29.8583388  82.3142529  51.9937754  28.5296273
  57.6957798  32.1350670  42.8550053  57.4007940  32.0540047  43.7620020
  57.5636911  31.2637424  42.4814034   1.1350840  25.3546047  58.5831022
   0.9865588  26.0498261  59.2240667   1.1174697  24.5472598  59.0970230
  79.9836588  67.8910923  70.1351976  79.4375753  67.3088741  70.6634474
  80.2734756  67.3479891  69.4022036  63.5210251  14.1486813  19.3197087
  64.1329312  14.6965100  19.8113278  63.9251923  14.0526320  18.4573582
  53.1755352  60.2459240  65.2858973  54.0871477  60.0393820  65.4921389
  53.2298565  60.9442997  64.6335554  52.6507115  25.1798703  22.6297119
  52.3296284  24.2838742  22.5280693  53.1108784  25.3637434  21.8107727
  66.1739373  17.1755864   2.5429848  65.7872509  16.3174941   2.3686531
  65.4258751  17.7712752   2.5852612  58.7370110  77.6775312  53.4469604
  58.6582613  78.4513617  52.8890991  59.3387604  77.9436731  54.1421556
  83.3555126  27.9459310  45.2075291  83.5159016  28.8471532  44.9277020
  82.4054813  27.8929830  45.3117609  10.0115368  19.6898323  62.1208429
   9.7442648  19.5654922  61.2101650  10.6739017  20.3798633  62.0839787
  15.9568858   7.7130391   5.4495695  15.7246851   7.5692822   4.5321587
  15.1812005   8.1237914   5.8314350  60.0183439  75.5912256  50.0665140
  60.4677105  75.7284975  49.2325687  60.2948475  74.7187471  50.3467989
  76.8070412  43.2721901   1.8237267  76.4516926  42.5485516   2.3397768
  77.2859526  43.8059616   2.4577314  73.3383894  39.1306901  52.7773476
  72.9440737  38.4334421  52.2533321  73.5298491  39.8250318  52.1469021
   7.5888175  56.0364199  54.2722845   7.2875613  56.7231846  54.8671246
   8.0008906  56.5095043  53.5493612   4.7920626  54.9053812  44.4168663
   5.3509158  54.6645117  43.6780119   5.3309935  54.7367764  45.1897573
   8.5767764  64.6013641  50.7138205   8.8787383  64.4330692  49.8212242
   9.3418902  64.4278860  51.2622166   5.0808448  46.4438105  70.2091742
   4.7556514  45.7660675  69.6165943   5.3145999  47.1725702  69.6342850
  57.3528099  49.0402222  57.0940971  57.1953154  48.5561275  57.9047012
  58.1537294  48.6560726  56.7374659  81.1046219  31.7802787  36.9599056
  80.2938652  32.0802355  36.5488935  81.7324543  31.7257190  36.2394309
   0.6903189  50.7402325  38.8959408   1.4282245  50.2699757  39.2839956
  -0.0518781  50.1437044  38.9935684  63.6016488   9.7427632   7.9677418
  63.9959263   9.6027495   8.8286570  62.7335190  10.0988318   8.1569365
  65.6692505  59.4357872  42.1542168  64.7355270  59.3680906  41.9547033
  66.0699463  58.7112284  41.6739178  76.8562460  29.6927834  50.9446812
  77.1094275  30.5968451  51.1312342  77.0794916  29.5669794  50.0224209
  34.3690133  30.9660365   6.6710547  34.8812842  31.5401436   6.1016634
  33.7313485  31.5470482   7.0858362  10.2355784  16.5769196  26.6765046
  10.9176654  16.0249734  26.2939525   9.4183463  16.2310576  26.3176894
  79.6836615  22.5657964  46.5697479  79.2360926  22.7411127  47.3975039
  79.5424700  23.3564281  46.0489798  47.2207093  35.6006981  12.6815251
  47.6685881  34.9555470  13.2287148  46.3903212  35.7600953  13.1301621
   4.3920821  64.9207973  47.8404808   4.7104472  65.7614613  48.1693554
   5.1858825  64.4352961  47.6159668  14.2988128  67.2714090  38.3355570
  15.2553004  67.2732162  38.2987332  14.0239543  67.2239113  37.4198961
  67.8593018  39.0831781   8.3130482  68.4470775  38.6931295   7.6660422
  67.9936626  38.5612450   9.1041020  53.6879181  17.9560830  10.6232002
  53.0937027  18.0445506  11.3684014  54.5395779  18.2321335  10.9618786
   4.6719951  37.2206330  58.7182140   5.6197757  37.1745348  58.8440037
   4.3339652  36.4396572  59.1564369  75.4934409  60.1178523   9.9336079
  74.7102835  59.9442299  10.4558590  75.3113606  60.9507604   9.4984749
  72.4800587  66.5216255  68.4336281  72.8362894  67.4065590  68.3547211
  71.7265415  66.5132570  67.8433990  64.8628998  25.3517199  50.2831173
  64.7839069  26.2871933  50.4698753  65.5349255  25.0421548  50.8903933
  50.7807827  62.6233101  57.2838879  51.0360909  62.2414446  56.4441061
  51.2538147  63.4545517  57.3227215   3.8921711  15.5450206  37.3975921
   4.2676136  16.3798862  37.1178293   3.0089351  15.7664924  37.6926804
  68.7845444   2.2976233  27.0148113  69.3039631   1.6360833  27.4717453
  67.8800892   2.1044852  27.2615841  70.8899164  34.5753288  55.0697517
  71.7893839  34.4082451  54.7882080  70.6536770  35.3979564  54.6411371
  51.8553471   9.2340733   6.2060049  51.3685393   9.8530461   5.6618336
  52.2633290   9.7773482   6.8802765  82.1297413  40.2376963  21.1259678
  82.7168422  40.0856425  21.8665245  82.7147871  40.3914668  20.3841427
  76.4402914  36.5825176  27.3549962  77.1357203  37.1983528  27.1240067
  76.5803099  35.8343983  26.7745280  52.7787899  26.6408946   9.1644123
  53.0904507  26.1572195   9.9293736  53.5028004  26.5939070   8.5400322
  81.0484409  49.5925045  53.5226536  80.7744122  48.7316561  53.2063055
  81.8997002  49.7393656  53.1103134   2.0781344  57.8894043  30.8188081
   1.9675082  58.6622810  31.3725734   1.4505118  57.2549486  31.1649036
  57.2296524  68.2780743  39.3527794  57.3264885  68.0793428  38.4214592
  58.0299902  68.7508059  39.5812893  66.1835289  57.1271372  46.0680246
  66.0923290  56.1894131  46.2370968  65.6630468  57.5458527  46.7535973
  24.9508929  25.5257298   5.1049975  24.6623492  25.0168969   5.8626679
  25.5181479  26.2030674   5.4733256  85.1999187  28.9264321  50.9450960
  85.5407143  28.2030272  51.4711905  85.8594131  29.6150899  51.0290432
  79.4622707  47.0770550  55.4403782  79.0034342  47.5486279  56.1355925
  78.9958429  47.3173285  54.6397877  78.2121584  78.7527128  14.1660336
  78.0087873  79.6427341  14.4536617  78.4654066  78.8496610  13.2480458
  11.3486785  59.0666008  40.5334139  11.5518111  59.8000145  39.9528265
  11.6099280  58.2899666  40.0386286   9.3095321  65.9492445   6.1680931
   9.9513072  65.5871820   5.5571365   8.7177390  66.4621782   5.6177223
  53.4156895  34.1255546  55.0861883  54.3370581  33.8931799  55.2015877
  53.1150532  33.5649276  54.3709660  74.4267389  79.7812577  16.4235523
  74.1053507  80.1895948  17.2274140  74.8410913  78.9695760  16.7163208
  16.2622756   7.6211309  42.0274687  16.4027709   7.5028789  41.0880518
  16.3744849   6.7459154  42.3984671  66.8366241  35.7808900  16.4908051
  67.5363684  36.4063978  16.6787815  66.4290619  35.6148505  17.3408377
  25.9972686  67.8533506  44.9805355  25.6117648  68.4580994  45.6144905
  26.2495536  68.4085178  44.2427206  58.5162306  31.0001779  50.7887697
  59.4624424  31.0050941  50.6442356  58.4186363  30.8662033  51.7315102
  72.4176311  40.2636385  41.9559908  72.4959326  40.6974602  41.1063433
  72.9113150  39.4497228  41.8557405  73.6037254  44.6029949  33.1863070
  74.3801641  44.1154861  32.9111528  73.9068270  45.1447868  33.9148855
  60.5495882  45.3689480  55.5159616  60.9340620  44.7022343  56.0850859
  59.6240902  45.1311827  55.4598188  55.2253294  35.6371903  53.5468149
  54.4233608  36.1593771  53.5267973  55.0524092  34.9096727  52.9492760
  23.4046763  43.7605524  19.4324481  24.0172690  44.4871569  19.5464981
  23.8337916  43.1822252  18.8018715  77.7930260  77.3510408  65.9358406
  77.4680185  77.9190826  65.2373171  78.5617018  77.8076553  66.2777138
  45.6726098  52.9250361  20.0140026  44.7864270  53.2155062  19.7982720
  45.9254241  53.4638430  20.7636765  69.4771099  72.3049116  66.8088293
  69.5589924  72.6240444  65.9101152  68.8195181  72.8754950  67.2066259
  63.0541325  30.1982164  60.7721901  62.5854540  29.6419454  61.3943911
  63.5634089  30.7948422  61.3207436  42.9969429  65.0789095   5.9967926
  43.6267924  64.3631674   5.9117249  43.3051562  65.7436491   5.3808811
  62.2037649  59.6384525  17.5626421  62.8900385  59.4358492  18.1984186
  62.6321411  59.5494843  16.7112863   5.9920329  65.5526733  55.9551430
   6.8772525  65.5571270  55.5910110   6.0632533  66.0593891  56.7640924
  50.1806021  53.1206369  59.4441509  49.8529005  52.4911785  60.0865078
  49.4908857  53.1683683  58.7821484  73.6422396  54.1184616  25.4504895
  72.9102087  54.4784164  25.9512830  73.8082123  54.7686958  24.7679353
  25.3360385  39.7274351  17.2116923  25.8859748  39.1876054  17.7794814
  25.6055182  39.4926810  16.3237154  63.2634354  62.3184681  63.3733654
  63.6443377  63.1733513  63.5741568  62.9362965  62.4063253  62.4781036
  71.8179321  49.4643402  55.1560736  70.8994102  49.1950035  55.1587439
  71.8230867  50.3025484  55.6182575  57.1020985  51.6885090  68.5804319
  58.0270958  51.4735031  68.7003374  57.0575857  52.6357985  68.7104177
  79.6286392   4.0624687  47.8233671  79.2151451   4.8250490  48.2279968
  79.0319157   3.8126045  47.1178722   7.9027289  36.7071295  40.6163263
   7.1622199  36.9365120  40.0548458   7.7186221  37.1460772  41.4467812
  79.8999977  51.8092489  40.3915215  80.0073814  52.5762463  39.8290110
  80.6946754  51.7901802  40.9247828  83.1754303  36.5698695  62.7305794
  83.0119610  35.7447767  63.1874514  83.9537621  36.9292688  63.1563187
  84.9334908  23.3390069  65.4355812  85.8672905  23.2129574  65.6039667
  84.7536469  22.7981663  64.6665668  63.4445000  48.3657503  47.3272133
  63.3099842  47.4881506  47.6849174  63.2874870  48.2682514  46.3880253
  18.1371802  28.9939380  61.4905357  18.8864344  28.7639356  60.9410429
  17.3929995  28.5577488  61.0756063  63.4499380  77.6512047   1.7026594
  64.3130991  77.3412820   1.9767454  62.9017183  76.8665500   1.7054346
  10.5657121   2.9050117  61.4669371  10.5262300   3.8608604  61.4348316
  11.1719295   2.7142482  62.1827173  51.6274881  56.4485884  51.7069674
  52.2144365  57.1959639  51.5922785  50.7720995  56.8405819  51.8827248
  68.5281300  18.3804347   1.3806656  68.4834313  19.1493584   1.9489840
  67.7120137  17.9097582   1.5498856   0.8813018  33.1638646  53.3727932
   0.8169764  33.0641985  54.3226147   1.7294139  32.7808595  53.1486654
  70.1784706  60.1808453  47.9144144  69.2837572  60.4600763  48.1087112
  70.2854824  60.3535604  46.9790268   1.7709366  72.7458919  38.7815928
   2.0910851  72.0031536  39.2935276   2.3350254  73.4751237  39.0390015
  57.9872822   4.1977717   5.3865030  57.8582978   4.4718148   6.2945202
  58.6701416   4.7809102   5.0550249  82.5541687  55.1328135  63.0884409
  82.4119949  54.4403458  62.4430656  83.4466171  55.4360628  62.9216957
  80.3117085  79.1331291  46.4480925  79.6833420  78.5268116  46.8402147
  80.2971745  78.9225101  45.5144644  11.0301322  74.9680710  64.5890045
  10.6074447  75.6682825  65.0862646  11.3867301  74.3819141  65.2564573
  64.3093157  64.5399618  20.1348591  64.6538496  63.6938572  20.4205704
  64.5367098  64.5899963  19.2064083  64.9596739  19.8325670  46.1082745
  64.7617674  20.2916002  45.2919722  65.1834440  20.5284905  46.7262173
  32.1131629  19.8473799  17.6903164  32.2214621  20.7304311  17.3371553
  31.1745948  19.6739256  17.6179421   0.3655788  55.5106600  28.0399540
  -0.1652220  54.9783357  27.4474076   0.0760624  55.2551039  28.9157990
  73.1920910  50.4876900  68.1672239  73.5316801  49.8250341  67.5657272
  73.7600708  50.4275084  68.9353418  85.3438187  72.3017263  20.9620214
  85.2824402  72.2557640  21.9161463  84.5080853  72.6780748  20.6861019
   2.8345892   1.3129573  63.6374855   3.1246683   0.7263046  64.3359995
   3.0706283   0.8579403  62.8291035  44.1126841  75.9481859  32.8308988
  43.8125724  75.2988529  33.4669256  43.3481902  76.5030003  32.6761293
  65.6869316  63.4635115  47.9775095  65.7728910  62.5122213  47.9151821
  66.5779638  63.7745571  48.1373215  82.7274895  67.3953056  56.2813425
  81.8263435  67.5393772  55.9925461  82.6719856  66.6462612  56.8747139
  63.7939286  58.8717772  10.2935150  64.6756386  59.2387034  10.2287129
  63.2130074  59.6275736  10.2067307  60.1417065  12.1207845  50.6023932
  60.8241081  12.7809918  50.4811859  60.4178953  11.3872004  50.0530243
  82.5257206  24.2376900  49.2013550  82.4168396  24.1200352  50.1450348
  82.3440742  23.3744407  48.8298225  70.5763936  12.7238442   0.5955103
  70.7963776  12.9774834   1.4918926  70.9802174  13.3985831   0.0497177
  71.0043621  47.8608751  31.8172598  71.0488462  48.1324482  30.9004688
  70.6161261  48.6094236  32.2702265   7.8619307  22.5824714  58.4049892
   7.4398249  21.7289829  58.5030365   8.6218566  22.5419569  58.9856005
  25.1494044  28.0762959  54.2359495  24.5316047  27.9145026  54.9489546
  25.5938643  27.2380567  54.1093111  80.7604694  63.9986706  48.3729887
  81.5482807  63.7989187  47.8673315  80.9026623  63.5703373  49.2171144
  36.3109732  78.0021238   0.7692697  36.5492797  78.5238075   0.0029213
  35.4001451  78.2377720   0.9456054  66.2356138  30.1092172  45.5860853
  66.3077021  31.0527444  45.7302761  66.2529898  30.0103831  44.6341610
  70.4167509  55.9514189  63.7972736  70.9368181  56.5359735  64.3486834
  70.1355934  56.5000772  63.0650473  11.1521095   7.2269608  14.0438107
  10.2976268   7.4176098  14.4307831  10.9524959   6.6991831  13.2706097
   4.9982280  44.1358662  40.8120584   5.0144023  44.4838667  39.9205041
   4.2686290  44.5902348  41.2333250  29.8626345  38.9742160  69.8431444
  29.5772761  38.1259394  69.5036936  29.9988383  39.5110679  69.0624571
  55.8968258  37.2260022  51.4474916  56.6981936  36.9843292  50.9831238
  55.9140491  36.6980100  52.2457123   2.7602691  63.8012075  61.3328552
   1.8786639  63.6669111  61.6806650   3.3166713  63.2316351  61.8641138
  65.1332045  10.6131268  19.9755096  64.8118353  10.5507493  19.0760314
  65.8417225  11.2553120  19.9327147  67.0344210  40.7515001  48.4821033
  67.0120335  40.8036470  47.5265837  67.9081774  41.0627556  48.7185526
  64.6673679  55.8319235  51.7212963  64.8552656  55.4975462  52.5982904
  65.4727983  56.2763739  51.4567757  84.4779587  73.6729240  29.2830515
  84.7054482  74.4374800  28.7539577  84.7634315  73.9004660  30.1679015
  49.3583369  19.0666605   6.6972998  48.7429404  18.9267851   5.9776095
  49.4967913  18.1946398   7.0669535  76.7414856  52.3970127  56.9427299
  77.0001364  51.5039873  57.1703911  76.0553551  52.2871828  56.2843990
  29.2582721  67.6588392  54.9782753  28.7786597  67.4049568  55.7667828
  29.9680346  67.0198727  54.9135065  54.3820667  63.6798525  57.1832561
  53.6995602  63.9678049  56.5770340  53.9814568  62.9598761  57.6704645
  64.4415688  25.1009013  12.2199562  63.8081860  25.7942177  12.0345619
  65.0159955  25.4738165  12.8886917  69.8329735  17.6997995  47.3382711
  69.0061903  17.6604033  46.8575335  70.4708672  17.2937369  46.7513847
   6.6532058  60.8248949  26.8509007   6.3293761  60.7378197  25.9543586
   7.3561782  60.1784515  26.9154882  57.8686905  35.2248406  41.2941456
  57.4190331  34.5359707  40.8047581  58.2331896  34.7772622  42.0577192
  85.6412315  24.9938655  41.0224867  86.1920738  24.3195701  41.4201403
  85.1598454  25.3739810  41.7573404  84.7412872  36.3262081  42.6527882
  85.2821064  35.6161118  42.3070765  84.7742653  37.0032287  41.9769287
  51.1483881  78.9634009   2.5069836  50.9493658  78.0651875   2.7712467
  51.6753313  79.3132587   3.2254198  73.0442667  53.3000278  44.4350815
  73.2232714  53.8285446  45.2128077  72.0890951  53.2698154  44.3806744
  76.1617517  29.0223598  36.1979795  76.4056778  28.3838820  36.8681121
  75.2096176  28.9489508  36.1324978  56.8616792  77.3262354  17.3680523
  56.4929983  76.7069860  16.7381027  56.6024896  78.1865354  17.0379952
  61.0480881  53.2479000  61.7481375  61.8328190  53.7645960  61.9310474
  60.4167080  53.8828468  61.4098644  83.2750988  46.4208078  45.9508181
  83.8052273  46.9683218  45.3716516  82.3764324  46.5527153  45.6487894
   5.0881499  55.3384686  57.8786278   4.6650714  55.9586763  57.2848463
   4.4127101  55.1241112  58.5221004  48.6644196  43.1839491  14.7866848
  49.5993256  43.3307768  14.9302796  48.4210467  42.5306632  15.4426029
   0.4723185  53.5917377  48.6503363   0.6016177  54.3816853  48.1254578
   0.8381194  53.8110209  49.5072699  24.5908331  15.8223320   0.8716801
  24.4147658  16.0425831   1.7864063  24.9899983  16.6124989   0.5076197
   5.6821272  62.0033499   7.1651152   6.0365554  61.5923401   6.3766459
   6.3047811  61.7743893   7.8551272  10.9092304  79.4872685  13.6083153
  10.8972141  78.5397740  13.7437466  10.3312132  79.8337241  14.2880943
  18.0827829  53.9718433  10.3860310  17.5553104  54.4884201   9.7768095
  17.6070091  54.0201219  11.2152127  14.8119468  51.6380310  20.0877833
  13.8629359  51.5392351  20.1642752  15.1110095  51.7811203  20.9857368
  76.6698360  52.4116182  45.9698057  76.7841673  51.4972973  45.7106161
  75.9189129  52.4002218  46.5632868  78.7759972  50.5202723  47.9956484
  79.2563534  49.6954060  48.0669308  78.3213139  50.4608154  47.1554327
  56.5016270  22.7699733  58.6071587  55.5725527  22.6043844  58.4470510
  56.5114927  23.4952903  59.2316961  66.5496063  42.0102739  65.1659346
  67.0695066  42.7994013  65.0135803  65.9474421  41.9730043  64.4228077
  53.7541317  10.8358122  15.8726910  53.6868405  11.7189194  16.2357739
  53.4438347  10.2639176  16.5747479  65.3438019  30.2554442  18.5463074
  65.0886559  31.0083653  19.0794590  66.1747479  29.9658181  18.9229706
  46.9349813  67.2150755  61.3616419  46.6367197  66.9004345  62.2150278
  46.1536360  67.1867037  60.8094454   7.1277446  37.8326678  43.2517147
   6.9690245  37.6595688  44.1796589   6.2687415  37.7381968  42.8401041
  46.5475201  38.2780529  16.5458992  47.3086047  38.2369400  15.9668472
  46.2366843  39.1801239  16.4692238  61.9311190  11.0751331  21.8375325
  62.1566868  10.3730214  21.2272930  61.7884827  10.6298852  22.6727819
  67.5186968  67.0715857  59.6674871  68.2360315  67.5292397  59.2290640
  66.7934561  67.1100760  59.0439701  80.4278851  41.6537523  19.3599546
  81.2535191  42.1318245  19.2824185  80.6048393  40.9740877  20.0103211
  66.2395501  12.0232369   2.2597054  66.9291043  11.6695668   1.6978625
  66.5636467  11.8886305   3.1502560  11.6869468  17.8592694  44.3047428
  11.8037337  16.9129193  44.2209911  11.5526694  18.0020344  45.2416658
  81.4198422  32.8276469   6.7397907  82.2283577  33.2223345   6.4130715
  81.1755013  33.3688046   7.4905756  61.8606472  44.1514158  52.7661848
  61.1525583  44.5748281  53.2515335  62.5896835  44.1191101  53.3856153
  85.5938625  56.7755795  36.9206905  85.2945518  55.8677721  36.9710064
  86.0342979  56.9292355  37.7565336  72.9929972  15.1937711  34.8433542
  73.0545950  15.5647373  33.9631128  72.0873928  15.3547752  35.1082850
  23.4786815  38.0707765  62.3305130  23.8471621  37.4349308  61.7172003
  23.3233088  37.5692844  63.1308889  56.2488556  47.7961397  42.7084255
  56.6181374  47.1261835  42.1330833  55.5807495  48.2275438  42.1757269
  73.3853483  57.1940470  68.8639116  72.4511719  57.0789242  68.6898804
  73.7274551  57.6075888  68.0713320  23.3398079  14.9736477   4.9931172
  22.8227305  15.4402996   5.6497029  22.8173136  15.0291516   4.1930226
  27.9753518   4.1418101   6.7445496  28.3569550   3.4448458   7.2782686
  28.1145978   3.8556792   5.8417919  55.8630133  47.7605200  45.4998302
  56.0245848  47.8876400  44.5649719  56.3779879  48.4449434  45.9271383
   2.4010581  73.7968111  28.6573982   2.3969287  72.8403568  28.6949158
   1.5241164  74.0515566  28.9442897  52.3088408  64.4962549  55.6516981
  51.6501713  65.1700497  55.4832125  52.4297428  64.0629196  54.8068094
  62.6662207  53.7766790  67.3143291  62.4961853  53.5454655  66.4011717
  62.8077841  52.9370594  67.7516270  54.5173073  48.7859535  53.4193707
  55.3793526  48.6166811  53.7994385  54.0571880  47.9493380  53.4871626
  65.0736546  10.6832482   5.8355168  64.9831795  11.6181542   6.0199002
  64.6091580  10.2516486   6.5525892  69.4897890  70.3627396  62.2686052
  69.4658327  71.2278795  61.8597174  70.4124165  70.2245426  62.4828339
  48.3126378  18.0704142  15.7172135  47.7476906  17.4734665  16.2078503
  48.3546757  17.6926495  14.8387173  74.8672890  13.3700158   9.8224953
  74.7231125  12.8288628   9.0462235  75.8192276  13.4452750   9.8885754
   6.7850036  49.4357824  61.5807343   7.0950717  49.4842005  62.4850273
   5.9662837  48.9427805  61.6343260  75.1287174  52.1676922  42.7925110
  75.3930759  53.0462790  42.5196886  74.3469477  52.3078728  43.3267498
  51.2050438  60.2746153  67.3034859  51.7168999  60.2438688  66.4952230
  51.7849445  60.6951714  67.9383755  82.2188282  18.8679707  47.0264578
  83.0345154  19.1703570  46.6271448  82.4835205  18.1422997  47.5917673
  17.2592276  63.3664227  63.9749670  17.4210662  64.2072392  64.4028330
  17.5974482  63.4806108  63.0868244  58.1607461  24.4726206   0.6559971
  58.6625695  24.3193652  -0.1445791  57.9062485  23.5980536   0.9502581
  85.4432774  22.7055287  52.2824430  85.3975201  23.6351466  52.0589542
  84.5583439  22.3771238  52.1234226  54.9824238  67.6478291  32.2626209
  54.8994064  68.5007811  32.6890159  54.5176935  67.7490711  31.4319539
  11.1114329  53.0188799  33.0774975  12.0534152  52.8614902  33.1417179
  10.8818454  53.4395456  33.9060879  68.5048127   1.7422892   5.8568743
  67.6182580   1.5148474   5.5766514  68.4780049   1.6785408   6.8115738
   1.6816348  61.5727854  48.6325550   2.5949210  61.3657236  48.8307381
   1.2866038  60.7286739  48.4142494  54.8729181  58.0253887  60.0387573
  55.7607317  57.6833057  59.9338770  54.9970245  58.9406681  60.2899456
   0.7535571  32.6648045  22.8966379   1.6903228  32.7008319  22.7032447
   0.5198115  31.7441487  22.7783704  11.2166232  67.7026892  36.0130739
  10.9702128  67.5690746  36.9283128  12.0938128  67.3259068  35.9437370
  62.0891976  21.5897395  10.0410870  62.2801041  20.6901957  10.3068188
  61.6533684  21.5017106   9.1934279  79.3511414  18.8308932   2.4056318
  79.5856118  17.9229714   2.2134569  78.6320328  19.0249468   1.8044213
  33.8455510  18.4617545  19.5975044  33.0657219  18.6445452  19.0733937
  34.5779442  18.6443926  19.0088776  74.7860193  46.7757607  49.1790152
  75.0592470  45.8635712  49.0815926  75.5179119  47.1983099  49.6284771
  15.1347369  63.5396242  27.6783133  15.4389876  64.0796185  28.4077477
  15.8900470  62.9976940  27.4501610  46.8762684  78.0644512  53.5264254
  47.7297020  78.2719803  53.1458712  46.6182709  77.2453690  53.1035995
   8.9508265  63.7625217  44.7022772   9.4703120  63.7045717  43.9003992
   9.1350287  62.9459620  45.1665306  51.8188405  71.9283320   1.2167004
  52.6640152  72.2856165   0.9442070  51.1873221  72.6134993   0.9976986
  10.8186454  73.0263853  37.8635168  10.0429839  73.5695219  37.7235317
  10.6005973  72.1879673  37.4564004  51.7744753  67.1365972  22.9700306
  51.9898626  67.2337218  23.8976124  51.2512323  66.3361593  22.9281834
  13.9755458  26.8301225  57.8182030  14.8092669  26.9282985  57.3583174
  13.5963363  27.7090025  57.8168726  80.3772282  27.0425059  22.8565911
  81.2236809  27.0901801  23.3009937  79.7468495  26.8814970  23.5586765
  78.7983704  56.0800934  39.2447829  78.9842701  56.7701340  38.6079788
  79.4699526  56.1883831  39.9181938  55.8570310   9.8142486  55.3714609
  55.7976171  10.4916149  56.0451603  56.7774030   9.5513492  55.3766489
  23.9400691  76.1965132  54.1302824  24.0784854  75.8066082  53.2671213
  24.5609111  76.9241524  54.1667557  76.1570096  21.7341877  16.6494206
  76.9156289  22.0788170  16.1782864  75.9613919  20.9044482  16.2141064
  81.5418362  45.3326441   5.9978607  81.1551022  46.0247160   6.5342406
  81.9049859  44.7135092   6.6311243  77.9288387  50.2394342  63.3373928
  78.4902430  50.4132938  64.0929270  77.5383806  49.3849373  63.5207129
  10.4645940  13.2596164  45.4523849  10.5656120  12.3354107  45.6801462
   9.5610258  13.4675270  45.6902361  66.2532997  38.5054207  49.7184801
  66.5801382  39.2836833  49.2671347  66.5972090  38.5825300  50.6084347
  54.0532803   7.3010565   5.6546000  53.3845448   7.9059054   5.9758166
  53.5680890   6.6641880   5.1299885  66.8751547  12.8031593  67.9984665
  65.9984705  12.9275470  68.3620501  67.2496149  13.6836010  67.9696178
  53.7793732  71.9339132  54.7897959  53.0781078  72.2118044  55.3790569
  54.3954992  72.6664591  54.7884989  15.9956950  57.6187420  64.3197298
  15.6907100  58.2670546  63.6849833  16.9487208  57.7077961  64.3139696
  75.0954628  49.4041014  56.0155725  75.0980616  50.1114321  55.3706646
  74.4378710  48.7880182  55.6927013  15.4263567  52.9260947   7.8008440
  15.4425025  52.3553111   8.5690716  15.8944249  53.7137629   8.0778101
  29.7611448  68.2433554   0.1046255  28.9140627  68.6890908   0.1041153
  29.9096128  68.0122157   1.0215548  12.7635497  67.7556419  40.6572628
  13.2936686  67.8902102  39.8717070  11.9653052  68.2588720  40.4966354
  41.4604041  80.5270609  38.2837844  41.7587325  79.6386955  38.0887485
  41.0667178  80.4619095  39.1538405  74.1099977   0.9172071  32.3004317
  74.3764782   0.0782958  32.6765251  74.3875265   0.8685371  31.3856411
  21.6332454  18.6134565  23.0768824  21.7452353  19.3156075  22.4360442
  22.3349971  17.9935741  22.8780818  30.9862659  62.9044480  25.2340126
  30.5787322  63.6628324  25.6523442  31.7671106  63.2571489  24.8072577
  23.3561608  66.0344893  18.0067980  22.8272769  65.2477378  18.1392324
  23.2544562  66.2377400  17.0769715  60.3224659  47.9781442  65.7373929
  61.0408879  48.6038946  65.6449920  60.7140637  47.2283189  66.1853281
  65.9733629  15.7712829  44.8062229  66.1397600  16.4910245  45.4149199
  65.4442787  16.1628258  44.1112423  83.4080604  64.6404833  46.9096661
  83.6938551  64.7416717  47.8175831  83.6391357  65.4701502  46.4919472
  26.4641473  78.2040653  60.3615522  25.5881068  78.0431501  60.0109959
  26.3984296  77.9697806  61.2873077  58.6515713  23.5384440  21.1553669
  57.7532625  23.8069367  21.3482046  59.1357517  24.3604708  21.0774374
  15.1251552  61.2713785  30.0895882  15.2352378  60.3352684  30.2563572
  14.4896218  61.3142628  29.3751025  41.0503531  22.0656490  21.4043951
  40.9833241  21.5603399  22.2145820  41.9510889  22.3894787  21.3979149
  69.5975971  11.6997373  57.6203775  69.6344376  12.1391463  56.7707920
  68.7559938  11.9652891  57.9910803  54.6674156  21.2599206   6.5627825
  54.1182756  20.4791236   6.6337049  55.1422071  21.2950468   7.3931873
  16.0375545  55.9413332  57.5152779  15.8705566  55.4786701  56.6941309
  15.6197927  55.3995151  58.1847143  16.3478181  79.5076930  35.1763463
  16.1985871  79.9017592  34.3168831  15.6694934  79.8872939  35.7349253
  44.5434216  80.7966455  49.6657133  43.6445466  80.4692279  49.6332836
  45.0689200  80.0916360  49.2874956  55.5352688  12.8326797  51.6292810
  56.2708759  13.2687962  52.0593023  55.4640532  11.9882524  52.0743704
   6.4565679  12.8479524  30.3778485   6.3429615  13.5769316  30.9876946
   6.1468479  13.1875892  29.5382336  51.5791604  70.3965039  25.0891900
  52.3879716  70.3513414  24.5792794  51.8511865  70.2067644  25.9870934
  25.6032271  35.7532196  55.9146592  25.4360480  36.3588517  56.6368028
  24.7868723  35.7451753  55.4149350   1.0799906  78.6480880  35.0520229
   1.9181654  78.7281702  35.5073047   1.1020348  79.3360660  34.3868685
  74.7643757   0.0566770  38.3029342  74.3954515   0.8043595  37.8327250
  74.6378613   0.2691589  39.2276382  33.2577226  71.6540731  26.0044909
  33.8769004  72.0351238  25.3818750  32.5450561  71.3201869  25.4596400
  49.4473359  79.2120576  36.1569810  49.2351195  80.0898629  35.8397222
  50.3845355  79.1162201  35.9875512  55.9376144   0.9298089  30.0953817
  55.2607107   1.3073437  29.5336843  55.4741049   0.2829836  30.6273651
  12.5624582  30.8824797   9.2557457  12.2355339  31.6868289   9.6587017
  13.2894823  31.1696996   8.7033156  44.8180434  77.8417117  26.9010663
  44.1011235  77.4208499  26.4265823  44.7604463  78.7643795  26.6528749
   7.0359394  57.4567956  50.3826427   6.7480061  56.5660471  50.1829100
   7.8284619  57.5753826  49.8591185  81.0056591   8.7280893  13.6683905
  81.1963272   9.5847154  14.0505791  81.4700985   8.1068432  14.2292666
  70.1803923   0.6076368  66.3877106  70.7582951  -0.1311105  66.5787935
  70.1318884   1.0930517  67.2112703   1.3340661  54.8668022  16.8511152
   0.8827779  55.7102770  16.8846047   0.6299994  54.2183251  16.8504548
  11.3609359  51.4177937  63.8673210  11.7844913  51.3708681  64.7244263
  10.8490750  50.6110806  63.8086176  37.9115558  26.0709167  36.0367799
  38.2633710  25.6670809  35.2434468  38.6373544  26.0459495  36.6603374
  62.2116852   3.2216141  23.1335163  61.8448353   2.8924447  22.3129678
  62.7891016   2.5206518  23.4359622  75.5213308  14.9788570  27.5558758
  75.7614470  14.0690589  27.3802543  76.3341665  15.4691374  27.4327803
  18.3357096   3.8645440  17.5953281  18.7067056   3.4186238  18.3567405
  19.0966725   4.1853160  17.1113110   6.9787929  78.0215720  53.9688635
   6.9560835  77.0834792  53.7799263   7.0514724  78.4372444  53.1096983
  72.5037137  73.3088714  54.7618484  71.6272977  72.9289085  54.7005796
  73.0241969  72.8137130  54.1292763  25.2277610  70.4491193   9.8665035
  24.8937890  69.9732501   9.1060829  26.0631749  70.8129806   9.5733798
  20.9270310   5.3122014  41.1715651  21.7895770   5.7267988  41.1527729
  20.4925776   5.6975704  41.9324684  28.4502885  79.8058564  20.1810098
  29.0203044  79.3292262  20.7844472  28.4771440  80.7111516  20.4907703
   1.1219996  26.8339300  10.8796191   0.2722853  26.6671300  11.2875402
   1.3597030  26.0010362  10.4721689  54.7997427  11.5469897  34.6573949
  54.5522356  10.8171344  34.0896940  54.3687820  12.3087430  34.2697883
  20.6702513  40.5215180  69.4618164  20.0236744  40.7926726  68.8101652
  21.5145439  40.6510985  69.0298348  51.3750172  20.6197524  52.5060749
  51.1320639  20.7207155  51.5857458  50.7875109  19.9397290  52.8356743
  59.4907093  25.2696776  49.2617130  59.5834398  26.1511517  49.6231508
  60.3656721  24.8881721  49.3333435  66.8124196  74.7187168   5.8907926
  67.7542874  74.6555007   6.0493028  66.6986177  75.5649198   5.4580998
  69.4532967  35.5335665  11.4451182  69.0669107  34.9045730  10.8357692
  70.3876352  35.5253887  11.2373364   3.1800574  10.7979870  57.9006529
   3.7072963  10.5458641  58.6587334   2.3135203  10.9833765  58.2625580
  74.7627783   3.8795695  43.8375616  75.2651167   4.6910506  43.7641811
  73.8493204   4.1557914  43.7631941  36.2689352  18.8737988  39.4900608
  35.8814144  18.8955545  38.6150837  36.5380573  17.9631066  39.6102452
   3.1667778  32.0535429   8.0761412   2.5586578  31.7311354   8.7413338
   4.0189478  31.7094107   8.3437422  68.7322950  70.7390690   9.4581819
  68.8332176  71.6666937   9.2447245  67.8854752  70.4976892   9.0828604
  74.2403507  29.8153806  18.1406486  74.1486073  29.8729205  17.1895945
  74.2037725  30.7237673  18.4401941  68.5332203  13.7473238  38.4884095
  69.2506456  14.3763280  38.5651398  68.8786983  13.0579865  37.9212308
  61.7801476   4.8237801  61.9048262  62.6792479   4.5180947  61.7848063
  61.5352535   4.5114717  62.7758741  60.9494638  19.1465640  29.9812651
  60.2253723  18.5231090  29.9245000  61.7271137  18.6005759  30.0969911
  68.5555840   6.3257873  40.0813675  68.8951349   6.7742330  39.3068790
  68.1712437   5.5178761  39.7410822  26.8156526  74.9835963  25.1416469
  27.4913881  74.7845209  25.7897091  26.5530727  74.1291822  24.7992158
  52.2531628  29.5258738   7.8113011  52.5191903  29.5776965   6.8932751
  52.1188569  28.5914160   7.9693630  21.7561624  64.5942504  50.5520487
  21.9465682  65.2120370  49.8461294  22.3708245  64.8283464  51.2474775
  73.6468172  17.7711666  42.1424150  72.7192831  17.6457250  41.9419718
  73.6570740  18.0699861  43.0517197   8.9619466  48.2955821  10.5117634
   9.7346040  48.0424901  11.0169056   8.3234855  48.5678657  11.1708954
  82.2565269  15.5486310  42.8316641  82.0990944  16.0627639  43.6235714
  82.5931358  14.7119033  43.1523085  53.3596802   9.1635376  54.8102093
  52.9383421   9.1537720  55.6696320  54.2722321   9.3869984  54.9933720
  66.9426012  11.5534043  43.9228916  66.7872047  12.3045051  44.4955444
  67.3776197  11.9237256  43.1548738  28.5674402  61.5418669   3.4821203
  29.4592973  61.7650004   3.2155684  28.0401823  62.2913166   3.2054404
  40.3417728  71.8365795  43.5608673  41.1893603  71.8610925  43.1167650
  39.7137067  72.1134407  42.8936958  81.4232063   0.9832355   5.4909289
  81.2721729   0.0912048   5.1783574  82.3288250   0.9782998   5.8008850
  66.3460347  76.9588185  45.1530361  66.6894624  77.8125191  45.4166365
  66.6631887  76.3552449  45.8248615  59.8515412  72.9028404  48.0471659
  59.3996331  72.9118300  47.2034073  60.7678125  72.7357382  47.8263569
  56.5215778  22.3087502  43.3887005  56.3085699  21.6672468  42.7109623
  55.7328987  22.8455162  43.4667778  51.5438223  27.2058845  56.7950058
  51.8111563  27.4345112  55.9047842  51.5426922  28.0390835  57.2661829
  26.1467120  78.4450681  34.2921257  26.2775228  77.9753551  35.1158309
  26.0585925  77.7552271  33.6344123  46.7612359  69.0681857  38.2168913
  46.3431737  68.2197947  38.3641648  47.2694299  68.9487190  37.4145842
  81.6436723  48.5143275  30.4549813  81.4865640  48.1195826  29.5972371
  80.7767394  48.5654516  30.8575296  46.3662863   0.8560719  19.6750891
  47.1800375   1.2379444  20.0040483  45.7459736   1.5850231  19.6664357
  35.0931403  76.8511755  42.5946808  35.2839896  76.8837301  41.6572666
  34.1562793  76.6606618  42.6418924  59.0954065  21.8112493  51.3161755
  59.5863199  21.2970901  51.9571733  58.3419418  22.1449089  51.8031979
  75.6120372  73.1658243  52.4175987  75.1252580  73.9308308  52.7242681
  76.5129543  73.4760283  52.3262319  24.1657275   0.2724160  55.9604549
  23.3620471   0.1526665  56.4664173  24.2772788   1.2217110  55.9092045
  81.0508588  76.4413465  17.4840057  80.6029824  76.9745151  16.8272185
  80.5171064  75.6499178  17.5545788  60.8600518  77.7211792  58.2258701
  61.5922258  78.1649060  58.6539555  60.3295896  77.3835493  58.9475679
  36.4264104  72.9223300  46.7467308  35.9035012  72.3253543  46.2115526
  36.9493196  73.4152186  46.1143875  60.1868439  29.4061971  42.4060965
  60.7910490  30.1367974  42.2742224  59.3374825  29.7434115  42.1213007
  72.9876137  24.5813227  20.1193810  72.9648829  25.4768610  19.7821462
  72.1905804  24.1763163  19.7774196  42.2233343  12.1305931  66.4209080
  41.8521261  12.1349597  67.3031902  43.1387186  11.8810070  66.5474319
  53.8235376  56.9238777  62.5686264  54.0066716  57.7757115  62.1723080
  54.2385766  56.2922329  61.9812632  56.2316465  11.6491234  39.8873711
  56.8069553  12.2313333  40.3836441  55.9021091  12.1916664  39.1709328
  39.0665984   4.4023110  23.3146790  38.1109499   4.3960453  23.3688000
  39.3367791   5.0853278  23.9284542  21.8270466  80.5189725   5.0762966
  22.1201631  81.2889596   4.5890263  21.2278864  80.8671685   5.7365969
  11.5494058  65.3318579  16.0174417  10.9710524  64.9546630  16.6803646
  11.7212817  64.6111101  15.4114616  77.9766893   3.4156147  41.7213154
  77.9527617   3.2124120  40.7862425  77.9840136   2.5608408  42.1520615
  78.0925751  15.5870891  63.1758308  78.3829117  14.8268223  63.6797476
  78.8374090  16.1878812  63.1981564  66.4382744  20.6355834  52.6443148
  66.5700960  20.3546286  51.7388248  66.4391327  21.5917993  52.6009417
  47.4735069   8.3262348  40.8792496  46.5442562   8.1666750  41.0443735
  47.6873541   9.0827560  41.4253092   5.1926726   1.7501073  46.0251808
   4.5052737   1.3253413  45.5120707   4.7197551   2.2800945  46.6668129
  28.6951060  78.0065416  63.1997338  27.8173251  77.7728270  62.8978917
  29.0163988  78.6264394  62.5449583   0.7511443  23.0351353  33.0109477
   1.3103217  22.3033595  32.7500534  -0.1318151  22.7628326  32.7610302
  52.2984597  73.2695932  60.3697824  52.7838323  72.9116977  59.6264362
  51.3782785  73.1471038  60.1363468  17.9072616  61.9675834  67.8737831
  17.5125596  61.1120612  67.7048922  17.2040794  62.5938899  67.7020168
  68.0202958  68.3798475  35.3409171  68.3601567  67.7311999  35.9573436
  67.3392198  67.9147322  34.8550773  68.7862870  80.9695326  28.1084251
  69.5833585  80.6554353  28.5353374  68.5091207  80.2409882  27.5528789
  34.4148111  13.9970016  33.9746189  34.7353363  13.2311678  33.4981799
  34.4799662  13.7497771  34.8970413   1.1589164   2.4749003  36.1750841
   0.3137416   2.7967161  35.8614802   1.7379874   2.5435951  35.4160118
  56.9194221  13.7193012  38.1365108  56.3300562  14.0498912  37.4585819
  57.4179268  13.0263770  37.7034020  13.1085986   9.1157591  46.0679102
  13.5006636   9.8125803  45.5416393  13.5360640   8.3156037  45.7625294
  83.0040359   6.5560561  21.2090397  83.2685757   6.9405514  20.3733277
  82.7050304   7.3004758  21.7312121  67.1832800   3.8642821  39.2992115
  67.4061203   2.9395944  39.1918445  66.3364315   3.8563362  39.7453213
  48.5813761   3.4103730  53.3507013  48.7379456   2.9730415  54.1876364
  49.4538021   3.5271230  52.9745722  22.3556564  73.9330614  31.9691992
  23.0984685  73.7056786  32.5284457  21.6937110  73.2712597  32.1693945
  44.8319575  76.9842113  36.5322876  45.6562802  77.0220447  36.0472202
  45.0528667  77.3079196  37.4055839  72.8027723  70.0478370  38.7270331
  72.1612355  69.5635409  38.2073045  72.2760007  70.6178421  39.2872429
  46.5082169   4.6188289  12.8907073  47.2779179   5.1832342  12.8183508
  45.7879734   5.1516497  12.5536847  13.7066478   4.4828084  37.8348827
  14.2040080   4.6582001  38.6336970  14.3128699   3.9948183  37.2775769
  19.6589321  19.6611022  70.3519005  19.4259734  19.2211436  69.5343428
  20.2191490  20.3885196  70.0812442  75.6651402   0.3641136  59.2625427
  76.6006088   0.1666518  59.2162561  75.4160404   0.1351682  60.1579523
  55.0589037  46.9950628  27.5210094  55.1935530  46.2557602  26.9281054
  55.4642963  46.7196083  28.3432126  48.1020639  79.0196172  50.5536127
  48.1206653  78.0708552  50.6790590  47.4920699  79.1533842  49.8281860
  79.3511248  32.0869946  69.0597486  78.9746666  31.4104724  69.6226263
  78.7368727  32.1599126  68.3292675  44.2432878  58.1320280  13.7396181
  43.3545968  58.4873623  13.7257159  44.6878431  58.5702724  13.0139816
  13.6964557  52.1834583  45.7115841  12.8975007  52.6518340  45.4696608
  13.3953902  51.3103527  45.9631395  73.3568525  11.8150949  27.5105596
  74.0329933  12.3721528  27.1248746  72.7575254  11.6303241  26.7874408
  80.8319569   4.5154950  31.4899397  79.9374342   4.4587323  31.8258452
  80.8948517   5.3977454  31.1240029  44.1970346  79.9240990  54.0397978
  44.8292491  80.4219424  53.5214424  44.7021291  79.5974276  54.7843790
  15.2575442  78.9123493  52.6843691  15.8869168  79.6098674  52.5010824
  14.6891067  78.8942600  51.9144440  37.6941344  70.6068463  21.3811731
  36.8519637  70.4236526  21.7976022  38.1782434  69.7837681  21.4475965
  46.1791420  15.0183094  28.4041190  47.0892096  14.8194754  28.1839514
  45.6955338  14.2295337  28.1587815  60.8173609  41.2142181   9.4347602
  60.8994389  41.5916204   8.5589385  59.8870420  41.0054684   9.5193899
  76.7515421   8.0781233  60.2411127  77.5772190   7.6026785  60.3330040
  76.1443758   7.4351156  59.8748827  57.9420662  17.8856909  47.1710300
  58.1682730  17.2385538  47.8390694  58.7453175  18.3908594  47.0452213
  64.6999502  49.3946791  49.5720196  64.6782160  48.7484980  50.2778578
  64.3762445  48.9224386  48.8049221  56.6452119  74.6008498  45.3759766
  56.5252492  75.3009302  46.0176373  56.5003965  75.0241554  44.5297623
  55.9782887  22.2802305  24.9007034  55.4023409  22.3543119  24.1397643
  56.2623262  23.1776667  25.0743747  68.7014055  22.3060989  17.9197478
  68.7435818  21.4891100  17.4227762  68.1700039  22.8890920  17.3775661
  37.7838755  20.4241300   8.3837658  37.7749729  19.4958377   8.1504697
  37.2971368  20.4689360   9.2067534  59.0915012  14.8464358  58.4992123
  59.3340302  15.7719457  58.4702015  58.4857130  14.7806096  59.2373991
  54.4511035  40.8704682   5.8805397  54.8516109  41.5191457   5.3017071
  55.1687887  40.2812538   6.1128834  50.1669073  21.1539245  66.6899776
  50.8587217  21.2184763  67.3483515  49.3751955  21.4399099  67.1456480
  75.5000687  26.1523271  62.9841852  75.4389811  25.7653260  63.8575315
  76.3648081  25.8920479  62.6668262  67.5458860   8.4892285  35.1712894
  66.7899466   8.3922327  34.5921707  67.5072432   9.3993771  35.4651737
  54.2325258  12.3538661  26.6382813  53.4009409  11.9009554  26.4983892
  54.1231966  13.1967700  26.1980629  80.2254009  43.9154434  55.3468990
  80.7977390  44.3798447  55.9576321  79.3428135  44.2042303  55.5790186
  47.5736713   8.7301397  61.4159489  48.2006645   8.3179170  62.0102406
  47.1318531   9.3881118  61.9527006  24.9121928   5.9538645  25.2576160
  24.8374295   5.0599903  25.5917287  24.0691566   6.3577908  25.4634428
  77.3346329   4.7962150  66.2820768  76.4762259   5.1012552  66.5758753
  77.7996349   4.5758200  67.0891905  72.5659370  19.5101333  61.2000751
  72.5615931  19.7103250  60.2640533  71.7358208  19.8600078  61.5236902
  30.7348460  26.7405701  23.8785768  30.7809180  25.9841442  24.4633222
  31.4378661  26.5967631  23.2450819  35.2250266   9.9316365  56.6559029
  35.0762486   8.9865494  56.6860199  35.8149338  10.0576663  55.9126949
  55.4882860  21.3889647  35.7302141  55.3306246  21.6562605  36.6357136
  55.5086946  20.4325414  35.7629061   8.1810111  53.1058025  31.7931437
   7.5627250  52.4549055  32.1252441   8.7152118  53.3381128  32.5526738
   9.9245474  57.7664336  18.3844212   9.8253462  58.6681541  18.6898545
  10.4600164  57.8387256  17.5943115  70.1771832  25.1960731  69.2458344
  69.8647118  26.0455704  69.5572042  70.0510597  24.6071219  69.9897814
  76.7920637  32.8643036   9.0500343  75.9792185  32.5606179   8.6459392
  77.4535990  32.7582407   8.3664006  61.8994996  67.4849100  51.5825701
  61.8459127  66.7446203  50.9781456  62.8264329  67.5372929  51.8155432
  40.4198122   4.6274751  45.2954149  41.0182238   4.4489473  46.0208559
  39.6305037   4.1294101  45.5079079  84.9210074  79.5479556  37.1092728
  84.2037442  79.6741482  36.4881066  85.6880000  79.3863436  36.5598801
  53.7812185  22.1921945  19.0990639  53.8569355  21.2429667  19.0017819
  54.3884754  22.5486088  18.4506512  78.5171318  26.1653352  24.8360300
  77.6523256  26.5394282  24.6675158  78.6869717  26.3602710  25.7576513
  46.9099042  79.6067656  67.7890491  46.3103959  80.0236916  67.1701813
  47.6139066  80.2444703  67.9071379  58.9949846  23.7134671  66.2467480
  58.2070446  24.2189407  66.0470533  59.1038370  23.1322289  65.4940557
  42.9860353  12.0127833  40.5570984  43.4757519  11.2592638  40.2275276
  42.0758486  11.8261635  40.3269434  70.5639315  25.2434969  42.5055695
  69.7998285  25.7601333  42.7614355  71.0775852  25.1614785  43.3090973
   3.1568068  19.2889285  35.1503277   3.5623473  20.0829101  34.8019671
   3.8339728  18.8958836  35.7009530  72.2035646   7.9396045  28.9120245
  72.8298664   7.2617757  29.1660357  72.1673203   8.5271859  29.6667862
  70.1711750   9.2431730  56.4607620  70.0558853  10.1314640  56.7982197
  71.0747623   9.0181512  56.6824198  62.8729248   6.9504213   9.0044475
  62.5693512   7.8472662   9.1449630  62.4373007   6.6736412   8.1983101
  25.9366628  33.8883706   9.5068005  26.6202661  33.3133145   9.1629580
  26.0474416  34.7074260   9.0239886   0.8491537  69.1740294  20.6068066
   0.7238409  69.5239802  19.7247246   1.7041370  69.5083185  20.8778790
  55.5286455   7.7160728  38.0498219  55.0614548   6.9708335  38.4274244
  56.4486742   7.4521214  38.0600524  60.0096035   1.1462224  50.4262877
  60.4973936   0.7244033  49.7189236  60.4686642   1.9730943  50.5738688
  48.6484480   9.7127855  27.5181484  48.3727598  10.2290440  28.2755828
  48.3219814   8.8310575  27.6976204  31.6765449  73.7411041  58.0400181
  30.7663963  73.8746644  57.7754021  32.0066497  74.6222300  58.2157421
  52.6105973  64.0096564  30.6654167  52.2365472  64.8663992  30.4597282
  52.3040864  63.8211889  31.5524101   8.2631156  45.0161285  27.3634028
   8.4968135  45.5560130  28.1184816   8.3731768  45.5968541  26.6104913
   9.9011943  49.3473572  38.0272889  10.5532238  49.5146412  38.7078071
   9.9195454  50.1323456  37.4798512  55.1094437  15.9450054  17.2452581
  55.1747036  16.5026867  16.4700401  54.3240643  15.4185295  17.0961380
  83.8621235  52.2573423  40.5952501  84.6836185  52.2576046  40.1039457
  84.1005611  52.5894117  41.4607573  62.1491098  25.8745003  68.1670284
  62.3597527  24.9415755  68.1280994  61.5764999  26.0223627  67.4143744
  61.4647293  10.1782346  18.4856713  61.6544199   9.2750329  18.7395930
  60.6645727  10.3981435  18.9627624  82.3946980  62.7204472  39.9159765
  82.4658016  63.5648555  40.3611183  81.5061334  62.4217362  40.1095152
  17.7374667   8.7626976  37.2241282  18.0351943   9.6162933  37.5387168
  18.4323615   8.4688395  36.6350651  58.3316755  56.6956806  38.9562345
  57.6434422  56.0723162  38.7238908  59.1464901  56.2067223  38.8412166
  75.4877377  49.7345638  41.7149353  76.3835907  49.4236946  41.8454933
  75.4547262  50.5715036  42.1782589  13.8345191  75.6181008  44.7336388
  14.1033790  74.8510033  45.2391148  14.1009376  75.4189110  43.8360977
  11.9106576  72.6673383  42.8484535  11.9761417  72.4926931  41.9095993
  12.1067044  73.6004472  42.9327440  66.5324640  47.7307367  68.4902048
  66.0839367  47.2727203  67.7793741  66.0419893  47.4912405  69.2765331
  72.7888489  19.7775733  55.3216124  72.1010208  20.3033566  54.9133539
  72.9377747  19.0590799  54.7069407  47.5255919  10.4394317  42.7137041
  47.8739262  11.3254321  42.6142073  47.1465826  10.4283810  43.5926008
  75.3748178  10.5443048  42.1869564  75.0757170   9.6434379  42.0636272
  76.3092136  10.4624307  42.3778296  82.4308109  18.0083895  33.6517859
  82.2976971  17.8177369  32.7232575  82.1955299  18.9317453  33.7428308
  54.1241407  23.7577724  31.3788342  53.4437990  24.4180417  31.2468886
  54.1442966  23.6205840  32.3259377  23.3825204  77.9222096  27.7150726
  23.3144853  78.1814218  28.6339903  23.9912603  78.5540696  27.3324156
  50.8196351  78.6521499  28.7014580  49.8841664  78.5023824  28.8381863
  51.0326812  79.3825079  29.2823362  50.1668119  19.3448043  25.6383634
  50.8908081  19.0158093  25.1056147  49.4385576  18.7550747  25.4431915
  18.6165661  54.5158456  69.8685818  18.0587239  54.8802279  69.1813659
  18.1384844  53.7487196  70.1835196  68.9560032  57.5581503  28.4977961
  68.6032391  58.3627367  28.8778329  68.4569597  56.8567133  28.9163303
  71.1279345   9.6940482  43.9274406  71.8597984   9.6183199  44.5397091
  70.9691954  10.6355226  43.8591862  70.6404972  16.3429153  30.8932877
  70.0448227  15.6682873  30.5672789  70.1101732  17.1394181  30.9172606
  76.4283800  43.0267286  58.8049364  76.4633083  42.5841475  59.6529579
  76.4599609  43.9589596  59.0198183  53.6679459  46.7020607  44.0539598
  54.4723558  47.1108055  44.3734694  53.8918352  46.3843346  43.1792259
  56.2334204  26.5079904  16.2949657  55.5073786  26.3758588  16.9045842
  56.1242390  27.4065280  15.9836161  11.3249225  33.4881353  60.1080084
  10.9839267  34.1825485  59.5443201  11.5631121  33.9345288  60.9205532
  73.4478235  13.1356823  12.3351836  73.6998129  13.8740456  12.8897572
  73.9101171  13.2866466  11.5107286  18.6415598  73.9809461  31.5337589
  18.8615629  74.5013209  30.7610729  17.7554437  73.6616941  31.3631657
  48.1773040  78.7380019   5.0330383  48.1444881  79.6936331   5.0768971
  48.4440181  78.4669410   5.9114581  46.3293743  25.3845310  29.4060802
  45.3994894  25.3715968  29.6327376  46.4089298  24.7597027  28.6853218
  35.0961730  64.3953127  28.3432841  34.1606948  64.4366199  28.5418034
  35.3833196  63.5613210  28.7150836  13.8449189  79.3302067  32.6812172
  13.6461398  80.2150003  32.3748541  13.4297988  79.2758835  33.5420036
  73.2164189  62.8645415  27.7056956  72.8146932  63.6217887  27.2797632
  72.9232404  62.9178912  28.6153269  54.1464806   8.7501442  26.8462276
  53.1951666   8.8532221  26.8707585  54.3322802   8.0833995  27.5074077
  69.9152040  35.7203794  62.5961256  69.4903517  35.1004982  62.0032692
  70.5744743  35.1996446  63.0548525  48.9724588  30.8026862  49.5631933
  48.7401485  30.1107597  48.9439201  48.5025978  30.5740070  50.3651714
  34.1446161  24.3445992  53.7556791  34.4662380  23.5849047  53.2702351
  33.6647391  23.9709210  54.4948101  64.1470003  24.0075564  42.7522802
  64.9140596  23.8390589  43.2995129  64.2009401  24.9404812  42.5449800
  60.9129906  28.1695843  57.9165077  60.7633543  27.3390150  58.3681679
  61.0654593  28.8006425  58.6198902  38.6925981  77.3695133  15.2277696
  38.7276694  78.2924370  14.9763465  37.7886102  77.2326601  15.5111611
  64.7200868  50.9272045  31.0950017  65.2880475  50.5278963  30.4360533
  65.3167436  51.1993498  31.7922640  18.0347345  66.0510296  36.1900043
  17.7988431  65.1710159  36.4835382  17.9397199  66.5972800  36.9702697
  37.4186325   0.4306496  55.2376842  38.1041241  -0.1387950  54.8883057
  36.7303085  -0.1702936  55.5228281  85.0527000  15.1902187  22.5338030
  84.9700069  15.6353784  21.6904616  84.8951435  15.8757734  23.1829739
  56.8665311  76.0473511  40.0764704  57.3659417  76.6458777  39.5209599
  57.2734544  75.1927168  39.9341846  34.9197316   0.9888602  49.0079308
  34.3719935   1.7522988  48.8252401  35.7742262   1.3558677  49.2345905
   5.2595824  27.3282123  53.7719631   4.7764319  27.6219726  52.9996252
   6.0276431  27.8984833  53.8052320  51.8485451  26.9416237  44.9192715
  52.4894238  27.6328230  45.0858545  51.8761253  26.8128657  43.9711714
  70.6686831  20.6486225   4.8031539  71.4857960  20.2121305   5.0440669
  70.6612587  20.6317401   3.8461316  53.9815044  30.5213094  52.9186153
  54.2720461  30.1706338  52.0766830  54.7918320  30.7198358  53.3878613
  57.9137609  78.8714687  14.4734395  57.1964833  79.3865368  14.1040385
  57.7120683  77.9687808  14.2270553  60.2661753  38.5798526  25.2027535
  60.3662205  39.0141582  26.0498667  59.4570875  38.0752587  25.2863669
  62.4241352  37.9033232  51.5586329  61.5845251  38.2179117  51.2234926
  62.2007895  37.1295071  52.0758915  62.0401812  35.1343179  58.7025452
  61.3531828  35.6666017  59.1037178  62.8534317  35.4671621  59.0821123
  66.6834784  38.0837774  36.7282009  66.4145660  38.4087491  35.8689523
  67.5760794  38.4110689  36.8394446  81.6601560   5.2542476  67.7329566
  81.1934468   4.7113017  67.0976382  81.1142823   5.2262286  68.5187533
   5.5535430   6.4192969  40.8403158   6.1710090   6.4654654  40.1103640
   6.0672206   6.0658014  41.5665483  74.6536183   3.9506937  -0.2791473
  75.1965546   4.1812111   0.4747179  73.8102459   3.7030722   0.0998524
  61.0523510   6.5768987  48.0507183  60.3332376   6.8385339  47.4757004
  61.8290520   6.9777489  47.6604748  14.2203802  63.2582830  54.3574807
  14.6623177  62.6702236  54.9699399  13.4460015  62.7717923  54.0748200
  64.4080687  36.7328763  30.7121086  65.0166941  37.1207738  31.3408709
  64.8646116  35.9584761  30.3833127  67.7521753  45.1607704  17.9548430
  67.8918409  44.4898748  17.2865427  67.2995710  45.8672333  17.4940968
  62.6643372  27.2964907  11.5249062  62.7930355  27.9465723  12.2156024
  61.7183828  27.1514392  11.5057623  62.0782709  13.6232460  48.9910841
  62.5674152  13.7455034  48.1774378  62.3538017  14.3514311  49.5479155
  50.8554220  26.2193060  53.0652237  51.0884380  25.3176546  53.2864904
  51.4725447  26.7552948  53.5633326   9.9393672  50.9384298  31.3039017
   9.1160411  51.4246082  31.3484693  10.5875701  51.5294504  31.6870022
   9.1953727  77.4152561   2.6273325  10.0978157  77.7260061   2.6998547
   8.7393781  78.1119247   2.1551493  69.4711396  78.9972339  63.7264824
  69.5965383  79.0520885  64.6738434  70.2672479  79.3792333  63.3569860
   9.8656195  24.1760826  42.3301888  10.4823798  23.9608502  41.6305351
   9.0742225  24.4602275  41.8728256  13.7969607  49.7371054  59.6726561
  14.0308684  49.7672176  58.7449646  14.5813006  50.0439119  60.1275206
  83.1802559  21.2180376  42.6615047  82.7608585  20.8780932  41.8710756
  83.9983749  20.7257533  42.7291822  76.6654015  36.0635614  36.8939352
  77.0921373  36.6966176  36.3165545  76.6400909  35.2536869  36.3843322
  26.6833040  31.3659014  20.9055355  27.6344320  31.2593015  20.8900860
  26.4511034  31.3104530  21.8324879  68.8424778  33.1690264  47.6744461
  69.5056820  33.8339424  47.4892950  68.5286188  32.8971267  46.8120098
  46.6948411  80.2730221  43.7628698  46.0280177  79.6925071  43.3960199
  47.3406312  79.6817424  44.1496229  33.9343470  32.9247570  36.8619609
  33.5926646  32.1492863  36.4168382  34.8541659  32.7192163  37.0290279
  55.3182599   4.9480466  67.9080318  54.5094583   4.7112683  68.3619051
  55.9802911   4.3640308  68.2779840  84.5227814  18.2923818  37.2940373
  83.5664463  18.3036864  37.3330021  84.8002338  18.3286166  38.2094264
  31.1100792   9.6708752  12.7591065  31.3163113   8.8470341  12.3175362
  31.9458317  10.1355721  12.8016403  79.3122673   0.9908439  45.3014851
  80.2489471   1.1845607  45.3381014  79.1140175   0.9427380  44.3662786
  47.7514935  20.6228137  60.2215576  48.0212307  19.7184753  60.3816986
  47.8579187  20.7409239  59.2776537  43.8134525  70.3111250   3.7110269
  42.8625962  70.3938276   3.6384887  44.1029880  71.1603612   4.0444899
  11.1563891  76.6657257  27.2324514  11.1954612  77.1210480  28.0735159
  11.7287177  75.9066534  27.3442149  36.3947028  56.2741137  18.3264351
  36.2527770  56.6946125  19.1745329  35.9883136  55.4120588  18.4155214
  69.5508766  13.2292879  35.2119708  70.0086498  13.9636600  34.8028612
  70.1492882  12.9239166  35.8937955   0.8596248  44.4523287  43.5087156
   0.6914252  44.9323511  44.3195915   0.0502223  43.9684391  43.3445358
  65.0085637  65.4943640  53.5321951  64.8504254  66.1388845  52.8424025
  64.1562841  65.3792996  53.9524412  12.8481883  45.2174187  60.4197216
  12.1332854  45.8299494  60.5928183  13.0165118  45.3047276  59.4814873
  65.2756357  46.2279034  66.3918114  66.0995197  46.3121414  65.9118557
  64.6761799  45.8176374  65.7684565  75.2969599  74.4245481  44.9586391
  75.2844143  73.5144234  45.2548599  74.7883654  74.4195318  44.1477489
  42.8076860  44.7842096  22.3563698  43.5175726  45.2918913  21.9632557
  42.5645277  44.1502198  21.6817120  45.6529856  27.4205756  44.9283886
  44.9789715  28.0958176  44.8510456  45.3813076  26.8961453  45.6816483
  12.9729768   3.1308323  42.9909182  12.2746345   3.2380729  42.3451233
  12.6069996   3.4864669  43.8007402  31.8990183   9.7085536  33.8443780
  31.2494373   9.6785867  33.1419706  31.9443011  10.6327355  34.0894675
  52.9903984  23.3361316  55.5158281  52.4537849  23.5411286  54.7501564
  53.3879232  22.4900270  55.3101206  56.2880349   1.1750533   0.3454569
  55.9092736   1.0801054   1.2193897  56.3365006   2.1209313   0.2068976
  72.5104141  49.9869013  24.4856644  71.8519783  50.3535032  25.0758338
  73.2869530  49.8738480  25.0337863  58.3359528  68.4236097  24.6343613
  57.5568104  68.9757252  24.5684862  58.4178782  68.2355356  25.5693221
  75.9861803  68.0758190  26.0780859  75.5017376  67.8123236  26.8604636
  75.6538868  67.5034714  25.3865433   7.9525870  49.3506527  67.6212883
   8.6227244  49.8939466  67.2065926   7.6018637  48.8170052  66.9082308
  63.3656693  55.1079226  20.1098275  62.8612232  54.8107767  19.3525517
  62.8334141  54.8581028  20.8651567  19.9434394  35.9873772  45.5590916
  20.7311457  36.0888219  45.0248146  19.6631926  36.8835187  45.7451630
   9.0278980  74.4321724   6.2373379   8.8839122  75.2973719   5.8540276
   9.9676773  74.2797132   6.1382988  49.1302344  68.6426396  50.8628368
  49.7850606  68.3877642  51.5128183  48.4012601  68.9863033  51.3792896
  43.9498231  75.6007952  45.8380175  44.2886636  76.2775440  46.4240456
  43.4374377  75.0261033  46.4067173  21.6755885  31.7950344  31.0810804
  22.6049250  31.5661550  31.0947037  21.6366023  32.6084399  30.5780101
  80.7049942  56.2306881  41.3401508  80.7765675  57.1811104  41.4284801
  81.3923454  55.9956408  40.7168198  82.0020866  67.4173832  21.8163371
  81.7845821  67.2664499  20.8964777  82.8970432  67.7564430  21.7983174
  38.3081767  75.1825160  37.3109078  38.9503858  74.5527632  37.6383424
  37.5099799  74.6686942  37.1880388  17.8557795  26.9321704  33.5199332
  18.3988971  26.3026476  33.0456400  18.4815806  27.4747753  33.9997196
  80.2957439  10.6272030  62.4021006  79.9613523  11.5238810  62.4216270
  80.2182770  10.3625989  61.4854670  75.3567791  50.1891518  17.2255218
  75.0903273  49.8946571  18.0964470  75.7543898  51.0471010  17.3740363
  77.2874165   2.6628733  24.2178655  77.5446367   3.5440797  23.9466739
  77.9088640   2.4340060  24.9089932  13.7252921  32.0567346  12.7595115
  14.3175238  32.2512555  12.0331097  13.7447947  31.1027575  12.8355563
   0.7553500  43.3011436  26.6497588   0.8610839  43.5059690  25.7207274
   1.6351050  43.0662537  26.9448709  77.3440313  32.8953528  34.1285849
  78.2590485  32.6954651  33.9310527  76.9342470  33.0133104  33.2716179
  29.0127677  56.9079447  19.9724734  29.4533461  57.6581144  20.3716803
  28.8337439  57.1855593  19.0740776  30.5770320  34.5880103  29.2220569
  30.9078521  33.9699554  29.8738194  29.9116820  35.0942969  29.6881247
  20.5087584  31.7068696  64.6581554  19.5625228  31.8512082  64.6633530
  20.6172770  30.8443260  64.2575598  65.6038380  28.6297607  36.7166305
  66.3740206  28.0784941  36.5782309  64.8891926  28.0102253  36.8639112
  55.0007057  52.1365070  14.7206080  54.1982222  52.6538610  14.6527994
  55.1001263  51.9704485  15.6580365  71.0586405  27.8098750  33.8972330
  71.2860060  26.8802977  33.8766623  70.5687761  27.9546022  33.0877161
  73.5702562  59.0416336  50.6344604  72.9695320  59.6819401  51.0157347
  73.2613325  58.1976414  50.9638119  67.2655484  79.3581984  19.3739164
  68.1428239  79.6502945  19.6214879  67.1298978  79.7222081  18.4990859
  63.4912682  46.6308784  21.9832587  63.6281919  47.4188805  22.5091290
  63.2057667  45.9691525  22.6132083   8.8489362  40.9706999   4.5488241
   9.8018905  40.9664226   4.4589022   8.6939212  40.7460271   5.4662827
  11.9811553  64.4556713  28.1884599  12.1063918  64.7851753  29.0783906
  12.8138560  64.0381289  27.9682565   4.8171157  74.9789095  42.3459911
   4.6507853  74.3114233  43.0115938   5.4472369  75.5725622  42.7543449
  68.1145000  15.5473518  32.8502631  67.2658253  15.8442056  32.5218368
  68.2007265  14.6538544  32.5179076  58.1706429  29.2307448  59.5655870
  58.3353186  29.2036128  58.6230469  58.5570669  30.0581360  59.8525238
  67.0454404  59.8283047  37.4163055  67.4294278  59.3796677  38.1696415
  66.1170480  59.5973629  37.4476552  80.5528069  14.5558321  40.8875227
  81.3485622  14.8790014  41.3101053  80.3787518  15.1874804  40.1897001
  16.9424361   5.6547523  57.0659447  16.7579383   6.1575645  56.2726164
  16.2306041   5.0167876  57.1161318  74.0343618  22.4634314  58.9856911
  74.7474813  21.8259645  58.9492226  73.2630062  21.9468427  59.2188835
  79.2370749  36.2168908  33.7829161  79.7615910  36.6797805  33.1295824
  78.6793375  36.8940496  34.1658258  71.1871672   2.2373480  39.4715452
  71.8688345   2.1816078  40.1412106  71.1152744   1.3467266  39.1282415
  69.1818285  41.0315275  14.0525043  69.6970797  41.7339277  13.6557913
  68.2815027  41.3561201  14.0357780  53.8461542  59.4032335  37.6127720
  54.2117882  59.2372179  36.7438745  54.2490959  60.2264118  37.8889036
  80.0824547   8.0635214  17.3600662  79.3422842   7.7671087  16.8304217
  80.7004547   7.3328847  17.3381793  84.9752903  28.3987474  34.3301249
  85.0680447  27.4524927  34.4407010  85.4491138  28.7742019  35.0722528
  61.8570948  35.8549857  53.2848454  62.4725151  35.1221013  53.2655430
  61.0880136  35.5100489  53.7384558  81.6284755  63.9337989   9.8703745
  81.9116643  63.0284591   9.7423247  82.3570111  64.3497177  10.3313282
  77.0698166   0.7709707  35.6356621  77.1456146   1.0952222  34.7382498
  77.1828890   1.5489247  36.1817694  24.0727252  12.0027578  54.7685385
  23.9730185  11.1533570  55.1984310  24.1726416  11.7911804  53.8403749
  38.7829015  28.7261752  63.9904001  38.1461808  29.3789272  64.2814895
  38.9456603  28.9430837  63.0724177  68.3793306  64.7062588  38.6172223
  69.2070913  64.9110174  39.0520978  68.3338785  63.7501860  38.6267138
  75.5179214   9.1161007  15.9911156  74.7704554   9.5295948  15.5591989
  75.1427078   8.3670974  16.4541936  41.0728023  70.2882523  52.8172922
  40.6104371  70.5643696  52.0259571  40.3786657  70.1275045  53.4564829
  65.3835344  69.9294281  50.6083345  64.5431328  70.3276443  50.8350086
  66.0033321  70.3062201  51.2329197  15.2613660   2.4595600  31.0257292
  15.8698818   1.8935257  31.5006423  14.8937437   3.0333572  31.6979241
  10.4806632  26.8540883  44.6800089  11.4100570  26.9717216  44.8765421
  10.4690474  26.2956285  43.9026928  76.3768005  54.5016956  59.0141916
  77.2164297  54.9219847  59.2002392  76.6076660  53.7104368  58.5275221
  32.2424048   2.5298488  22.8089786  32.3320407   2.8694960  21.9185638
  32.1709269   1.5818368  22.6976418  54.2020630   2.2163798   9.6715430
  54.7299408   1.5599705   9.2169026  53.9827370   2.8575255   8.9954785
  41.6987083  68.9579255  44.1068459  41.1585853  69.7311396  43.9436436
  42.5386331  69.3102676  44.4011593  19.8424357  31.4503956  60.2892971
  19.8374862  30.7972050  59.5896196  20.6971568  31.8747973  60.2147102
  14.0721721   3.7961808   7.2435790  14.9651736   3.9044249   7.5707722
  13.5720557   3.5023949   8.0050319   7.6840800  10.4968941  52.1687841
   7.4144286   9.5961052  52.3479462   7.9969710  10.4778552  51.2643671
  15.1277179  46.8050623  66.5653610  14.9157828  45.9661436  66.9746685
  14.3656272  47.0057964  66.0220671  82.6421165  41.4594650  56.5691853
  82.4331856  42.1306992  57.2188187  83.5355473  41.1898947  56.7821550
  77.3308757  73.0302687  38.3470562  76.4746144  72.6850792  38.0942848
  77.6996949  73.3750602  37.5338391  69.3767262  62.8749847  35.4309559
  69.7343254  63.5900831  34.9046612  68.4812498  63.1485176  35.6297827
  39.3290728  49.6271944   9.2192441  39.4779033  49.6055269   8.2739335
  40.0182647  50.1990843   9.5571685  42.5805473   3.0582374  44.3350124
  42.6756239   2.6131719  43.4929276  41.7381811   3.5087195  44.2740631
  68.1034851  26.9220018  51.6336775  67.4508047  26.2267566  51.5507746
  68.7669563  26.5589452  52.2203827  69.3007994  44.9710464  42.0047092
  68.8965940  45.7276583  41.5799904  69.8535776  44.5826912  41.3265848
  59.0747449  68.8626177  65.8150864  59.2638967  68.1631321  65.1896477
  58.3514211  68.5233790  66.3422918  38.8861105  53.3964284  10.1889256
  39.7362348  53.3380886  10.6249455  39.0256998  54.0175100   9.4740799
   3.3010787   6.3341141  20.2786136   3.4653872   7.2453213  20.5213857
   3.9306563   5.8313090  20.7953882  81.8515015   8.3294952  22.9237247
  80.9093094   8.1704795  22.8670669  81.9439888   9.2722416  22.7862191
  56.3429403  11.8034208  29.9570036  56.5454054  11.9082987  29.0273571
  56.5906811  10.9004390  30.1556993  28.0268401  15.6501722  57.8094339
  28.2794875  14.9477589  58.4086132  27.8914565  15.2114248  56.9695520
  55.3977201  59.5219535  25.6642199  55.3382203  58.9855952  26.4547968
  55.8507726  58.9654393  25.0307631  68.6329317   3.4143755  24.5669079
  68.6577129   3.1290942  25.4802728  69.0393066   2.6969025  24.0807772
   4.5193690  65.2093792  17.6752949   4.0987128  64.7675705  18.4129179
   4.0535373  66.0419559  17.5975108  58.0779362   6.9010580  15.7904601
  58.0223370   7.2810459  14.9136758  58.9881516   6.6159040  15.8706355
   4.9018210  53.0576134  25.0579882   5.0531024  52.2341204  25.5218911
   4.2002124  53.4842348  25.5499029  58.9971209   4.3855926  66.0055780
  58.6817789   5.1713967  65.5591393  59.3290615   4.7039637  66.8450308
  52.4360228   0.6502838  69.0674782  52.5602865   1.2209043  68.3090687
  52.4339342   1.2453984  69.8171902  43.6099715  62.7181099  65.5108794
  43.2518286  63.4807299  65.9651679  42.8423590  62.1962093  65.2771810
  79.5036459  51.2712622  33.6752319  79.5088625  51.1260462  32.7291274
  80.0066566  50.5395031  34.0326428  14.6556681  55.7557297  17.9258108
  14.6112937  56.7100954  17.9845691  13.8008040  55.4566813  18.2356751
  12.2503871  16.8141651  28.7030864  11.4732474  16.6433287  28.1710100
  12.0068854  17.5612187  29.2497563  46.6620779  15.0066638  68.6031532
  47.2979975  15.6095767  68.9882994  45.9535122  15.5711710  68.2941294
   2.9945487  52.9331493  37.3421335   2.0584029  52.7761173  37.2188067
   3.0651587  53.8805962  37.4587035  29.8689768  40.3358451   1.3730505
  29.0040704  40.5902000   1.6947201  30.4779550  40.6768733   2.0280913
  22.3631784  43.5566958   1.5491226  23.0847665  43.6244347   2.1743801
  22.6326534  42.8634890   0.9465626  59.0284681   6.0005552  61.2000418
  59.5265102   6.6221792  60.6692219  59.6945238   5.5048072  61.6763163
   0.0447387   5.6197089  61.8358660   0.1590175   4.8150587  61.3301897
  -0.0046998   6.3119203  61.1766005  68.9789248  19.2161512  52.9895878
  68.1346846  19.6292675  52.8084135  68.8540649  18.7743855  53.8295174
  20.0878352  38.4903073  39.6836543  19.1445369  38.3497071  39.7651839
  20.3742808  37.8319931  39.0505624  61.0146284  58.4015274  47.5949955
  60.3257799  59.0660334  47.6074171  61.2079525  58.2742834  46.6661978
  75.9257507  43.4381580  29.9490595  76.0032177  43.4583616  30.9029055
  75.3461409  42.6973820  29.7714686  64.6448231  64.1641951  37.8132534
  65.3120613  64.7619772  38.1504226  63.9730263  64.1460848  38.4948635
  56.5965154  33.1912746   5.4847220  56.5285137  32.4534186   4.8787716
  56.6955688  32.7855458   6.3459995  75.9592581  34.0863872  65.0453663
  76.7037344  33.9143801  64.4688225  76.1582088  34.9318457  65.4476738
  27.6010913   9.6492535  42.8224421  28.1315249   9.0211701  42.3321533
  27.0020789   9.1074258  43.3360910   1.3081664  20.3285861  65.2554846
   1.2570971  21.1027241  65.8161402   1.8318671  19.7037470  65.7570267
  24.0494078   8.8358676  39.6548986  24.5159835   9.6707702  39.6933913
  23.1935233   9.0565079  39.2874622  72.8195188  73.7572229  24.0939069
  72.0628831  73.5688401  23.5386944  73.3322618  74.3914796  23.5928702
  59.9338865  20.2279854  47.0648956  60.0388718  21.0992742  46.6827106
  59.1018105  20.2717710  47.5360203  51.4967966  35.6411362   1.8355712
  50.7607937  35.0549531   1.6597159  52.1937227  35.0637102   2.1471839
   9.7760123  25.9771299   9.9677086  10.2916545  25.8659124   9.1689748
   8.8665122  25.9102821   9.6768963   2.4996203  35.0732732  37.0412326
   3.3704490  35.4138494  37.2459507   2.4399108  34.2557168  37.5354695
   8.3590716  58.8015032  26.0902643   8.2827872  58.1402445  25.4024053
   8.4585017  58.2969427  26.8975830  73.3351564  14.6659696  25.9912276
  74.0043592  14.8029590  26.6617727  72.5061512  14.8126709  26.4467049
  57.2285891  32.5532055  48.0212831  56.9568729  33.4709811  48.0308104
  58.0952406  32.5642037  47.6150513  78.9490411  12.2468785  56.9542608
  78.5150430  11.8147401  57.6898834  78.2940766  12.2469215  56.2562236
  71.7805576  39.2227483  44.7058249  72.6358414  39.3106985  45.1265192
  71.5946245  40.0943804  44.3566513  46.9762993  20.3123236  16.7350197
  47.5547791  19.5502877  16.7051554  46.4699221  20.2605414  15.9243822
  62.4746225  69.4991273  32.4960852  62.4789712  68.7744338  31.8707585
  63.3909318  69.5978457  32.7546763  20.2235839  79.0787951  38.5163760
  20.0603959  80.0031302  38.7040067  20.9902045  79.0824587  37.9432130
   6.0161322  22.9118896  52.6878309   5.6725425  22.8668737  53.5801029
   6.6291732  23.6468339  52.7040291  15.1605147   5.6249565  20.0894403
  15.1319903   5.1455230  19.2614532  14.3071765   6.0547954  20.1468253
  78.3809519  68.4792471  17.2410226  78.1032133  68.8560104  16.4060712
  79.2256308  68.0712557  17.0505238   7.2444910  21.2887476  66.2423128
   7.6615280  20.9632014  65.4446080   7.8850979  21.8925308  66.6182133
  79.6882936  44.7214465  39.1761425  80.0156805  45.6192537  39.2308453
  79.6592542  44.4213276  40.0846127  16.8283343  14.5365359  15.0271538
  17.1058774  15.2674986  14.4749859  17.2315526  14.7120358  15.8773640
   6.5151042  19.3602431  43.7770462   6.6570586  19.2212474  42.8406906
   7.2712630  19.8743272  44.0602112  56.5490389  19.1947913  51.2814665
  57.4205971  18.8011086  51.3219500  56.4978600  19.7442615  52.0635796
   8.1265330  17.8358294   7.1277359   8.2748794  16.9268729   6.8669155
   8.1020021  17.8095795   8.0842570  37.0712230  80.4340611  26.7393637
  37.6219604  80.9365085  27.3397517  36.1868951  80.7685253  26.8887973
  77.8196669  41.9880962  43.1874800  77.8110027  41.0687637  42.9210567
  77.5847721  42.4695730  42.3942375  79.7158811  80.7013893  20.7929635
  80.4082009  80.5057341  21.4243507  79.3736837  81.5517754  21.0685992
  79.0936279  22.9920220  36.2094665  78.2215595  22.7188635  36.4942622
  79.0459347  22.9868603  35.2534699  63.3596945  35.8890200  62.7616882
  63.1522703  36.3720441  61.9617558  63.9353895  36.4751172  63.2529068
   2.5904197  35.8130836  31.5586925   2.7733153  35.1668811  30.8766341
   2.2079009  35.3047299  32.2738791  24.6460458  51.1439308  10.7629040
  23.8276502  50.8722337  11.1784199  24.4732210  51.0726317   9.8241404
  33.5193801  13.8194299  48.8106251  34.2629170  14.4207084  48.8536358
  33.5127640  13.3852994  49.6636915  56.1325788  37.0268941  21.5414238
  55.8901262  36.1341286  21.7872190  55.3063393  37.4382305  21.2877250
  70.9662580  10.9363353  39.8088527  71.3315058  10.2987731  40.4223156
  70.8594275  11.7337394  40.3274727  84.2345715  38.4657288  25.3312945
  85.1269341  38.2746577  25.6200933  83.7859154  38.7653351  26.1219764
  54.5363760  76.9689798  31.1637115  55.4558134  76.7204952  31.2592316
  54.0489960  76.2206221  31.5081739  76.6726112  18.8153028  37.0573759
  77.3312283  19.4209182  37.3974991  77.1752930  18.0566108  36.7608404
   1.0265752  65.3926750   1.9775036   0.9225818  65.5067702   1.0328320
   1.2615701  66.2629457   2.2994307  60.9434414  28.6561155  67.6473999
  61.2224197  27.7412081  67.6106739  60.0061083  28.6285925  67.4553537
  46.1965847  25.1852608  51.6812944  46.7210484  25.7772732  52.2204542
  45.2958679  25.4857612  51.8022966   6.5318409  80.4069526  62.9955292
   7.3770157  80.0477850  63.2655287   6.7450634  81.2560309  62.6084471
  21.5290183  26.3760996  57.8373623  21.1172122  26.8048477  58.5875797
  22.1345443  25.7443213  58.2252073  84.2191601  60.1619530  45.1116753
  84.5754528  60.7612133  45.7675552  84.8964882  60.1151800  44.4369316
  73.0441952  39.0060210  59.0985584  72.3230124  38.6749554  58.5632801
  73.8292074  38.6256766  58.7044477  26.8688124  52.5361729  68.5465670
  26.6957301  52.9226875  67.6881504  27.6307029  53.0135632  68.8749695
   9.0323373  70.6844517   0.7194737   9.3130371  71.3353940   0.0762680
   9.8445579  70.3872677   1.1296108  68.7042618  63.9180851  27.9576731
  68.8002729  63.5633421  27.0738339  69.4750595  63.6007071  28.4281778
  65.7833147  63.8568592  12.5207710  65.5780840  63.6532545  11.6082680
  66.4833117  63.2458973  12.7509022  77.5126648  33.3469248  50.3732061
  77.8390026  33.6851311  51.2070894  76.5902281  33.6019492  50.3558350
  84.8651695   4.2996460  35.6031251  84.1594410   4.5942274  35.0274587
  85.6617260   4.6493065  35.2037811   7.5250644  22.4523330  43.4240007
   7.9748744  22.3097110  44.2568016   7.9637641  21.8626547  42.8107738
  58.9687872  71.2373400  43.0574751  58.8257313  71.8067169  43.8135004
  59.4804621  71.7707777  42.4493074  82.1504688  44.7454214  23.7047362
  82.2684288  43.9438105  24.2143774  81.3488102  44.5949745  23.2037997
  73.5299349  18.7231112  38.9444232  74.2426729  18.9707208  38.3554196
  73.9246607  18.7351513  39.8163629  25.2779025  63.4816647  68.0943251
  26.1338061  63.7272930  67.7431536  24.7184581  63.3943272  67.3225594
  26.9514197  42.5494337  41.4087009  26.8437785  42.7850389  40.4872131
  27.2699469  41.6469860  41.3895464  71.6046000  51.9376564  47.1244049
  71.5971184  52.1531200  46.1918020  70.7731771  51.4871788  47.2728300
  73.1790447  49.2016411  62.1824694  72.8394318  50.0856829  62.0432901
  73.7472248  49.0419388  61.4288759  81.5516758  18.5819972  37.8274846
  80.8796215  19.1773236  37.4955821  81.0967541  17.7477789  37.9430604
  85.5249500  70.5174971  43.9873362  85.6743240  69.5848846  43.8319397
  84.6220970  70.6655931  43.7059832  84.5269871  44.6739340  55.3220701
  84.2563725  43.8122892  55.0049400  83.7964630  45.2511978  55.0999498
  18.5488791  71.1592601  69.8521685  19.3846888  70.7375668  70.0517474
  18.2243437  70.6946157  69.0807972  84.3545341  40.6456041  33.6059356
  84.8128605  41.3202906  34.1069102  83.4429359  40.9370708  33.5897565
  57.2014329  77.2494734  57.5585222  57.8667733  77.9302887  57.4582911
  56.7652127  77.4605534  58.3839893  82.1709824  44.8264170  53.2922554
  82.3766327  45.3071356  54.0940332  81.7410469  45.4709482  52.7301455
  61.5202904  45.2402925  37.5302196  62.4280453  45.3869677  37.7961087
  61.0393620  45.9797096  37.9019833  12.8667563  29.9813390  51.7780018
  13.3795279  29.1774702  51.6937923  12.1577090  29.8807764  51.1428928
  73.6472273  66.0392094  35.2692056  74.0323544  66.7277956  34.7272158
  74.2733240  65.9179306  35.9830141  58.6145138  22.6808335   8.4863499
  58.5680604  22.8660323   7.5483874  57.7758908  22.9859473   8.8325480
  11.0936469  45.0066042  38.2120347  10.4128569  45.1099443  38.8769293
  11.1938495  44.0594149  38.1170487  54.7713900  61.2896395  39.6121025
  54.9621058  60.3788519  39.8364449  55.4696751  61.7912197  40.0328684
   9.8816699  35.0185251  41.5657330  10.1654643  35.4477429  42.3728657
   9.1525096  35.5541539  41.2532282  58.9811635  10.3238656   5.1005343
  58.7868905  10.8570458   5.8713797  58.1455540   9.9148203   4.8754481
  78.5721445  16.4502406  46.0775471  78.6066294  17.3848510  46.2813759
  78.7207127  16.4054549  45.1330090  14.2538279  61.8425131   7.3371291
  13.4485835  61.4727211   7.6991671  14.6043128  61.1503696   6.7764813
  85.5139923  74.6171856  39.5380139  85.2190113  75.4625702  39.1995621
  86.2837791  74.4035053  39.0107560  84.0720654  40.5193472  38.1752992
  84.9232483  40.3552008  38.5812235  83.7581730  41.3213587  38.5930109
   7.9266757   3.6003956  65.1517391   7.4241465   3.1244704  64.4905329
   7.3046035   3.7497875  65.8637333  60.7535738  60.4131328  60.2118650
  61.4678759  60.2498280  59.5959660  60.4175848  59.5426093  60.4252449
  43.3136222  69.1286809  54.8642588  43.7902162  68.3743531  54.5177317
  42.4432513  68.7879187  55.0705767  63.6061335  24.4979358  28.2165575
  62.7537489  24.9226093  28.3131480  63.4199429  23.6951113  27.7296877
  67.6535416  15.3800941  11.0919762  66.8933153  14.8917007  11.4078236
  68.3661652  14.7410309  11.0931742  78.3782244   6.4230758  56.8914986
  77.7677631   5.8740097  57.3835278  79.2445755   6.1052120  57.1457195
  47.7618310  79.3598587  40.3737974  48.6659000  79.5545880  40.6207180
  47.8095624  79.1409258  39.4431949  10.1895636  29.8180532  34.7687292
  10.0575847  29.8111773  35.7167602  10.4865569  30.7070851  34.5746946
  58.2883069  78.0278528  21.8517590  57.6529786  77.9157326  21.1446357
  57.8312490  78.5611864  22.5020576   5.2757949  36.7221713  51.5461683
   5.0672358  36.7752361  52.4788618   4.5815772  36.1768508  51.1761522
  16.5544432   6.8148059  54.4301462  17.1157950   6.2976152  53.8525391
  16.6713351   7.7170938  54.1327477  83.4641602   2.3750072  13.9798570
  84.0206149   3.1067329  13.7130821  83.9885047   1.5957218  13.7954712
  63.2387161  18.0527699  41.0405731  62.7081013  18.8493049  41.0261583
  62.6126671  17.3451233  40.8871794   6.5054053  16.3806307  53.1078815
   6.7857856  15.6876981  52.5099993   5.9895820  16.9739199  52.5618315
  31.9071311  24.2039824  18.9646685  32.7396506  23.7373042  19.0378475
  32.1334571  25.0328350  18.5427558  57.1237898   6.8600464  48.5468054
  56.4266348   7.2275531  49.0900755  57.4106789   6.0795736  49.0209246
  73.4466600  22.2260451   3.8745788  73.8210726  22.7920222   4.5496455
  73.3672428  21.3704515   4.2963436  17.6151866  17.9793775  26.8787622
  18.2758635  18.2844567  27.5005913  17.6564425  17.0246994  26.9346237
   6.6295737  14.5762181  14.7297060   5.8777446  14.4266355  15.3029525
   6.9710940  15.4285574  15.0000966  44.2264220  72.5389851  45.1437807
  43.5544822  72.6129872  45.8214617  45.0296399  72.3375595  45.6238842
  24.8207233   1.7841319  50.1740000  25.6726501   1.8706779  49.7462627
  24.4591138   0.9694986  49.8249409  66.3915253  24.8895311  29.1448069
  65.5019474  24.6400476  28.8945317  66.5785742  24.3623304  29.9215341
  67.1805856  75.0559468  55.4287195  66.9312284  74.1843677  55.7359743
  66.3748357  75.4203588  55.0623798  29.1126964  80.7921878   4.3584767
  28.5797546  81.0471053   5.1116180  28.5209796  80.2776699   3.8095042
   0.1453156  45.2205159  61.6725388   0.8097309  45.7952951  62.0525536
   0.5511851  44.3536262  61.6708067   5.6560630  14.9248898   8.0674469
   6.4244574  15.1515400   7.5435758   4.9229354  15.3319383   7.6058608
  63.4924698  31.1938787  16.7331803  64.0054083  30.8439517  17.4616551
  62.6244116  30.8058262  16.8432879  76.5404320  17.9727566  23.6183882
  76.8651533  17.6406872  24.4553566  76.4321232  17.1912360  23.0764198
  23.7598914  22.5636792  12.7485919  23.7420863  23.0598807  11.9302404
  23.2694453  21.7647910  12.5550103  61.6866014  77.5849447  15.5115628
  60.8481214  77.1279461  15.4456651  61.9505307  77.4707166  16.4245379
  20.3660220  32.4903393  27.4018431  20.2281398  32.1493173  26.5181446
  19.6413344  32.1304274  27.9132414  13.2745856  13.6571336  41.9741535
  13.4385985  13.4037042  41.0658026  14.1285056  13.9391291  42.3020601
  51.7500589  63.3314401  36.8424773  51.6376397  64.2709774  36.9869208
  52.6974198  63.2107062  36.7779493  77.8259182   7.4960738  15.8291996
  77.3468637   6.7191684  15.5408287  77.2376442   8.2258618  15.6353462
  75.4459333  35.4190516  30.0701427  75.5088329  35.9308004  29.2636752
  74.6187782  34.9442816  29.9886394  18.1411785  21.0716759  66.6413909
  17.8921360  21.3460718  67.5239524  17.9672713  20.1305460  66.6251546
  75.6480596  72.6142890  24.8102450  74.7063920  72.7549959  24.7117805
  75.7559392  72.3452473  25.7225013  39.5914003  49.2393454   3.4998205
  39.6486684  49.4485398   2.5675181  38.7670156  48.7609245   3.5877398
  51.5527868  12.9922140  48.7334967  50.7378721  13.3957696  49.0323114
  51.9682121  13.6636662  48.1923819  55.0020647  14.0848434  14.3058145
  54.2337561  14.1034544  13.7352145  54.6771097  13.7307286  15.1336062
   1.5945929   2.1249579  49.4245815   2.0562476   2.7441204  48.8591194
   0.6919211   2.4429743  49.4412708  34.2075915  44.4864775  68.8075873
  34.3879027  44.3045755  67.8852899  33.2524199  44.5118402  68.8644265
  66.2642002  39.4905138  55.0160456  66.1762190  40.3629589  54.6322155
  65.3695154  39.1518283  55.0485897  59.5961046  10.9899509  14.0833008
  58.7229729  11.2030041  14.4126666  59.8362446  10.1859534  14.5439029
  40.5187941   9.0417069   5.9854114  40.2490664   8.1238472   5.9535897
  41.4692163   9.0084201   6.0941124  15.8826464  24.6788120  10.5897689
  15.8608073  23.8169837  11.0057104  15.6021041  25.2834821  11.2767196
  22.2339457  22.9693508   5.2045453  22.3147696  22.6275587   6.0949826
  21.3397998  22.7488327   4.9435908  69.8426723  18.0380416  11.3541353
  70.2242565  18.8961780  11.5391421  69.0836477  17.9832149  11.9347465
  63.6347055  39.0117717  55.1476192  62.8786325  38.4477162  55.3101635
  63.2960749  39.7110105  54.5884848  70.8499670  15.3054547  38.4663486
  71.3589525  14.6136582  38.0437589  71.0077190  16.0814285  37.9285669
  72.4506474  43.4481049  59.7839642  71.8498850  43.8095665  60.4356289
  71.8794918  43.0806208  59.1094494   6.2008590  55.7249594  11.4240301
   5.9718436  56.0323381  10.5469310   7.1285933  55.4972458  11.3633764
  45.3874511   4.6222889  38.2226634  44.5309371   5.0476599  38.2634759
  45.1966971   3.7256402  37.9472280  85.2913475  11.9848025  37.2989225
  85.8308029  12.7729809  37.3621345  84.4181061  12.2700405  37.5678277
  27.8186911   3.4011987   4.0071362  28.4589881   3.3400783   3.2982481
  27.0997542   2.8331837   3.7301520  50.1018715   9.0342575   3.0335402
  51.0317802   9.2239064   3.1581718  50.0876236   8.1839317   2.5942507
  16.0413379  25.1268625  21.1358023  15.8045596  26.0529137  21.0848641
  16.8910712  25.0725055  20.6985068  67.8318691   8.4989345   8.0904680
  67.1905327   7.9107189   8.4891146  67.8758669   9.2455643   8.6878294
  40.6405067  15.2209985  33.2912755  40.0162840  15.9217656  33.1028628
  40.3449535  14.8546565  34.1247439  70.1879740  53.9105415  53.3222342
  70.6957006  53.4037256  52.6885271  70.6630993  53.8078403  54.1468191
  44.0605402  18.8448572  26.0881591  43.6760283  17.9863930  26.2654138
  44.2348051  19.2127407  26.9544888  68.1115625  73.3285678   9.3016660
  67.8054616  73.2754052  10.2070451  68.2854077  74.2594106   9.1618794
  80.0931358   5.6806779  12.5777090  79.1788054   5.5089492  12.8029478
  80.5709934   5.5445641  13.3958566  35.5778021  38.8532592  64.1140804
  34.9477381  39.1676204  63.4656808  35.8747286  38.0105941  63.7705883
   3.5358256  10.9921896   7.6295310   3.2420462  11.5969574   6.9482201
   3.1035632  10.1647723   7.4179572  50.8171511  32.1038198   5.8850259
  51.7463017  32.3207450   5.8085310  50.3629827  32.8644824   5.5226004
  45.3596896  12.6490247   8.7088042  45.7543296  12.0191586   8.1056738
  44.4191283  12.4821913   8.6477298  11.4909858   5.3424525  36.5618539
  12.2869605   5.3922552  37.0911694  10.7785148   5.4710817  37.1880150
  58.4428549  14.5683455  55.6852007  58.5603857  14.8157203  56.6023827
  58.8726807  13.7163973  55.6099415  65.4478550  64.0670919  59.0734625
  64.6547556  64.5666504  58.8793898  66.0559130  64.3010950  58.3722162
  15.8153170  22.2140193  12.2355902  16.5093631  21.6174579  12.5160313
  15.5155009  22.6295805  13.0440784  73.1709528  27.2341061  19.3090558
  74.0992069  27.0751262  19.1378748  73.0707359  28.1822658  19.2243314
  32.6720709  75.9577607  69.1063065  32.4050707  75.2313636  68.5430267
  32.2643942  75.7679843  69.9512997  58.1048775  50.9551907  44.1885233
  57.3978567  51.3357162  43.6674166  58.5227203  50.3251171  43.6014605
   8.3799476  31.0556626  15.4244137   8.3411616  31.8973184  15.8786643
   9.3127555  30.8432961  15.3928232  76.8886900   1.9374718  30.4130912
  77.5391769   1.5000308  29.8637795  77.1184826   2.8653628  30.3636503
  40.7625121  12.5183964  30.3671002  41.0882968  12.2507644  29.5077610
  41.3801783  13.1887233  30.6592917   8.8393229  33.8367796  13.1886756
   9.0577048  33.0988884  12.6194131   9.1314429  34.6083617  12.7033281
   5.9483069   2.9579461  43.7125921   5.5125541   2.3316167  44.2905760
   6.8528861   2.9825979  44.0246248  63.2271859  79.8617306  39.4031048
  63.9752385  79.4342669  39.8201346  62.5411126  79.8485068  40.0704575
  41.1263845   0.9753493  66.4447039  40.8114669   1.0473613  67.3457447
  41.1138246   1.8735532  66.1140928  71.5207195  20.2889752  64.5081615
  71.1768103  20.1713729  63.6226511  72.0784426  19.5244563  64.6519899
  11.7509463  54.2930694  51.7440537  11.7771688  53.5882040  52.3911312
  12.6551774  54.6023949  51.6900566  74.9309056   0.8924509  10.9132126
  75.7944232   1.1329152  11.2489823  74.7728806   1.5070988  10.1966408
   1.9637817  28.8861012  58.1720352   2.4772686  28.6926055  58.9563322
   2.5527588  28.6855412  57.4446297   7.2189044   3.4642149  19.1751221
   7.1896815   3.4841515  18.2185772   6.4624285   2.9345013  19.4268730
  76.8384701  27.0955992  52.6819611  76.1736774  26.5945339  52.2095013
  76.9012004  27.9218054  52.2027111  17.0021080   1.2529780   8.7266281
  17.6421093   0.9259106   9.3588141  17.5214600   1.4783551   7.9548052
  19.0429568  15.9512545  13.6977699  19.3575835  16.7545916  14.1123608
  19.8357033  15.5201842  13.3784607  26.7540836  43.6707163  58.0455017
  26.2007403  43.0232430  57.6086664  27.6480246  43.3663702  57.8890562
  19.9106967  33.9222264  67.0790958  19.1619968  34.1718817  67.6207161
  19.5218146  33.6110806  66.2616634  81.3956433   8.1809451  26.7593601
  82.2438174   8.4665467  27.0988682  81.6040283   7.4479748  26.1800793
  39.1304278  36.4304686  68.1054735  39.7524667  36.2591863  67.3983908
  38.7574577  35.5728221  68.3093500  42.4239400  48.0347117  20.1060894
  42.5661817  48.9387145  20.3867653  43.1318214  47.5411375  20.5202416
   7.3488190  50.0586386  12.0091465   7.0704367  50.4672070  12.8287914
   6.5317920  49.8400845  11.5608910  69.7042864  62.0648241  68.6302328
  69.5194012  62.6277542  67.8784609  69.0195113  61.3965559  68.6032009
   4.5934185  21.6384387  66.5355539   5.5348486  21.6736913  66.3661432
   4.3371803  20.7521510  66.2804604  43.5630241  72.2455664  27.6558331
  44.0844229  72.9171105  28.0956104  43.8055518  72.3202821  26.7328861
  67.9509752   2.3992659  30.8747223  67.5662022   1.6842390  31.3815907
  68.7663549   2.0360877  30.5290535  67.9367453  18.9401269  42.9902649
  68.6910874  18.3518767  42.9561567  68.1215328  19.6052670  42.3271847
   5.8030713  37.0464182  31.5010643   5.1512098  37.2665882  30.8356071
   5.5208468  36.1973310  31.8411136  71.7596549  58.8524294  59.9842930
  71.6726059  59.7807074  60.2009821  70.9172863  58.4693384  60.2290106
   5.1260781  24.2785454  54.9433088   4.9448782  25.1560473  54.6065760
   4.2773411  23.9598775  55.2504396   1.8269934   3.8001785  63.6856508
   1.3942021   4.0279984  62.8628349   1.9969742   2.8608605  63.6147928
  74.7404867   3.5943486  32.5120667  75.6159526   3.7140538  32.1440151
  74.6106046   2.6460148  32.5175884  36.5614149  61.9920607   6.4453581
  36.5916708  61.1216064   6.8423775  36.9760248  62.5643297   7.0909861
  11.5981138  55.4710817  68.5513878  12.2663319  54.8314190  68.3053255
  11.4225185  55.9562063  67.7451277  74.7489518  25.8481741  51.4822292
  74.0360981  26.3936949  51.1498451  75.3794449  25.8134890  50.7628489
  73.3790510  26.5350605   2.9664400  73.7782031  25.9297253   3.5913208
  74.0059381  26.5820147   2.2446087  51.1355102  12.7688147  25.7340649
  51.0111927  13.2029225  24.8900727  51.3782060  13.4748532  26.3331059
   3.5533741  60.7171722  42.7642945   3.9363411  61.5879937  42.6582936
   4.1768339  60.2471205  43.3179978   2.7127245  42.9069996  63.1438541
   1.8465820  43.0908775  63.5074711   2.6925007  41.9724703  62.9377604
  69.3365174  37.9486346  39.3370438  69.3535548  37.8535104  38.3847356
  69.4196254  38.8906431  39.4851756  43.1495290  10.5446459  15.7981709
  43.3704155  10.3906418  14.8796204  43.1264108  11.4978577  15.8823899
  83.3117610  18.5722519  13.4632233  82.6737338  18.0858637  12.9411343
  84.1616374  18.2445122  13.1690720  58.6117345  24.5437622  53.5885525
  58.3926755  24.1816688  54.4471169  58.0932885  24.0273809  52.9714680
  68.5888007  48.3956720   4.3945292  69.0108493  47.5552656   4.5729235
  69.2552855  49.0485760   4.6084145  22.3142186  68.2375308  21.4550522
  22.0183941  68.7618132  22.1992615  23.2695988  68.2767387  21.4991310
  51.9862297  68.4095069  11.7874935  51.7693713  69.0263649  12.4865559
  52.9278853  68.2644840  11.8796280   9.9709594  30.4126692  68.1581974
  10.4377508  29.7951698  68.7212563   9.0948170  30.0381923  68.0666924
  25.5862540  67.6659461   1.2169245  26.1599177  68.2203956   0.6880310
  25.9763229  67.6825400   2.0908812   6.3489318   7.0887190  45.5300856
   6.9151926   7.1387875  46.3001966   6.6357362   7.8134078  44.9743843
  60.8112576  23.7146784  30.1056317  61.4091175  23.0740286  29.7204521
  61.0455974  24.5429446  29.6869591  64.1699463  47.0584631  62.1821117
  64.7586828  47.8131151  62.1713448  63.2924372  47.4396706  62.2119617
  33.5847705  79.4863649   3.0329731  34.4264784  79.8408624   2.7464607
  33.0575171  80.2581926   3.2391718  74.9489086   7.6901270   0.4169348
  74.2597371   7.0601584   0.6276825  75.2794927   7.4071814  -0.4356405
  57.6801157  73.1320572  64.9657583  58.0869198  72.4944782  65.5524778
  57.6438475  73.9398575  65.4779816  69.6902877   6.9558073  15.5731800
  69.1915482   6.5270020  14.8777512  69.2965501   7.8249480  15.6493118
  68.6717206  54.1081549   9.0196446  67.8113204  54.3956114   8.7141684
  68.4953123  53.3074023   9.5135048  74.3167751  23.7815072  16.5975407
  74.8272091  23.2381417  15.9971741  74.7966510  23.7402512  17.4247292
  12.1475577  24.6499039  13.4192970  11.3108992  24.6107603  12.9559353
  12.4049878  23.7342383  13.5266140  69.1132777  26.6640879   9.4999388
  68.2677739  26.6426541   9.0517262  69.4596773  27.5372960   9.3162420
  62.2656530  38.5777642  18.4038094  61.8540131  38.5551049  19.2676762
  63.2043117  38.5272910  18.5843685  21.4746499  15.8122468  49.9724150
  22.2903323  15.5673695  50.4093695  20.9315014  15.0255561  50.0207806
  19.3584036  40.9452559  13.6404160  19.3160462  40.9267737  12.6843289
  19.2392706  41.8674208  13.8676575   9.0134930   6.4360072  17.8649166
   9.7512888   7.0109583  18.0681828   9.3175125   5.5613829  18.1074646
  69.9213713  20.2084471  20.7688740  69.8859971  19.4028117  21.2845543
  69.9274080  20.9097458  21.4203194  57.4452700   6.9146563  54.7288731
  57.0846516   7.0438124  53.8516644  58.3335994   6.5918662  54.5775154
  62.1364393  15.4990889   7.4396494  61.2749823  15.2446677   7.7703980
  62.0504876  15.4533221   6.4874151  71.0809403  12.9556538  10.8017662
  71.8874937  12.6617457  11.2252262  71.1218291  13.9109780  10.8455494
  54.2228242  37.4657370  16.0095432  54.9356202  37.0699717  15.5080250
  54.1287675  36.9023062  16.7776135  61.5260389   1.0487514  67.8939676
  61.5499666   1.2881141  68.8204479  60.8115890   0.4150921  67.8286743
  11.5247082  10.4494025  17.1291283  11.0765051   9.9156500  17.7852181
  12.1294808   9.8439528  16.7002800  59.1439975  10.4710366  19.9837807
  58.7353639  11.2857939  20.2760628  58.4980570  10.0756861  19.3983868
   1.9490024   0.9141784  59.8841810   2.2514698   0.1847416  59.3431854
   2.1570417   0.6500583  60.7803869  41.0176473  20.8655621  24.4396427
  40.7100254  21.5421463  25.0428227  41.1660999  20.0997092  24.9943188
  33.6998277   5.7277180   0.1794460  34.5803075   5.8530690   0.5333927
  33.6654025   6.3015820  -0.5858824  10.3514385   0.2690054  15.1985291
  11.1609911   0.3763892  15.6978539  10.3180313   1.0371281  14.6283558
  10.9739232  39.0610814  58.5378361  10.9748769  38.4554291  57.7966118
  11.8695986  39.3967772  58.5739946   4.9801325  31.6151406  11.5987423
   5.4445028  31.5102698  10.7683304   5.4758787  31.0811402  12.2194794
  41.3874700  70.6740232  22.3239639  41.1287167  70.6102486  23.2433155
  40.8656028  71.3980051  21.9779328  32.0158481  77.1186729  14.7406319
  31.8048346  76.4242121  15.3646782  32.2559824  76.6549655  13.9384201
  24.7447371  49.4308090  69.5592976  25.1760507  50.1042700  69.0333223
  25.3164744  49.3171883  70.3185368  77.5855785   0.9447648  11.4542320
  77.5383168   1.0639597  10.5056599  78.4088355   0.4775073  11.5961865
   3.9937070  36.2436398  15.8952072   4.4306066  35.4428329  15.6052712
   4.6061209  36.9447251  15.6723526  30.6866960  70.7196422  13.8672188
  30.6299290  70.6036325  12.9187802  30.0320956  71.3890620  14.0662411
  13.5988354  22.9793192   2.7457789  14.4202637  22.5854756   3.0396679
  13.0691933  22.2379090   2.4524763  21.8823576  40.5973196  56.2566185
  20.9982562  40.4973936  55.9036112  22.4171877  40.8352089  55.4992580
  67.6705449  14.7268750   7.3865584  68.0332583  14.1965558   6.6770247
  68.1610304  15.5478932   7.3467615  60.1351752  40.6360270  17.7616814
  60.6464633  40.2889754  17.0306805  60.1091617  41.5805651  17.6086739
  43.0905860  12.5449969   1.2727097  43.6615973  13.0968787   0.7382944
  42.7594608  11.8837191   0.6650093  72.7810365  65.8024454  62.7302551
  72.4890476  66.2989092  63.4947824  72.4303585  66.2861109  61.9823742
  76.5240019  46.8979883  44.3459702  77.1086866  46.8363380  43.5906076
  75.8973867  47.5815582  44.1086674  82.8697758  22.6936318   6.3368920
  83.4723001  22.5144316   5.6150320  83.2612568  23.4361578   6.7969254
  37.0986199  40.8735228  67.1765709  36.4975047  40.7204485  66.4475584
  37.2858715  39.9999261  67.5200844   3.1009244  14.4163205   2.4489287
   2.9471921  15.3504969   2.3078325   4.0077471  14.2787768   2.1750906
  11.8254197  26.7649174  28.5851598  11.1644781  27.4507785  28.6799216
  12.1070981  26.5783548  29.4807529  23.5641479  30.0382853  49.1706991
  24.2322469  30.7184005  49.2562532  23.3790326  30.0010848  48.2323074
   9.1369206  61.3002586  51.9596243   8.5733092  61.2736225  51.1864042
   9.6610081  60.5013847  51.9016266  56.4156363   7.0469691  10.5838040
  55.4682020   7.1714570  10.6395081  56.5270166   6.1028029  10.4725483
  18.2388020  77.1510553  69.8058987  18.6607575  76.8963718  68.9853382
  18.9337564  77.0907831  70.4613686  33.0498147  67.2910547  54.4041872
  33.1369328  67.5465107  55.3225470  32.4802589  66.5219641  54.4225121
   7.5442693  73.4400607  65.5906391   6.6700360  73.3511794  65.2111006
   8.1391260  73.1951184  64.8818493  81.3737807  38.6108565  59.7408581
  81.2593305  39.5606637  59.7092485  80.9589240  38.2928061  58.9390039
  84.1582675  45.6042862  49.5270300  83.3173224  46.0348129  49.3731213
  84.5013183  45.4286289  48.6508465  38.8934135  69.3386698  70.0032091
  39.3530035  68.6853456  69.4757891  38.1229305  69.5673037  69.4832945
  65.1642611  64.3082686   8.5187176  66.0369804  63.9168616   8.4813908
  65.0694945  64.7625418   7.6815298  85.1488190   9.3115069  20.9347180
  85.6528025   8.5382058  20.6812695  85.1088529   9.2687918  21.8901280
  74.8125976  26.5519263   0.6637409  74.1668909  26.2038113   0.0488356
  75.5632787  26.7838456   0.1170042  71.6094011  33.8875224  15.0060299
  72.2827583  33.9015652  14.3258694  71.1826735  34.7416569  14.9382809
  79.7725394  60.4040142  15.8877209  79.4306329  61.2863465  15.7434300
  79.4134190  60.1437350  16.7359665  62.7985346  22.7214028  25.8812741
  62.1566158  22.1964098  26.3593510  62.2721552  23.2891156  25.3183678
  35.1203275  31.4930367  69.3897390  34.2946267  31.9710302  69.4670343
  35.0840044  30.8379579  70.0867224  82.9873806  51.2127806  48.6305168
  83.3426171  50.3942515  48.9769867  82.2132950  51.3839747  49.1669110
  63.9013820  52.9843165  26.4835098  64.7781783  53.3668925  26.4504936
  64.0104287  52.1787764  26.9889382  58.1246000  35.7163835  55.4917765
  57.9865652  36.5040016  56.0179329  57.5540501  35.8328152  54.7320747
  82.3882538   6.8675162   5.4419449  82.4395233   5.9191967   5.3223875
  82.8358060   7.2298695   4.6773365  17.5388813  32.5523663  64.7668362
  16.9522142  33.0065203  65.3716469  17.4259996  33.0106974  63.9341164
  77.0342153   1.9626213  33.1310776  77.5342160   2.7489354  33.3500317
  76.8973880   2.0213534  32.1855286  56.3820362  67.8022146  65.4494095
  56.2574148  68.4471369  66.1456728  56.0747862  68.2427454  64.6570969
  24.0544105  25.4751587  58.8826227  24.7498369  25.2393270  58.2686234
  24.1253901  24.8285007  59.5847797  64.4374159  71.0107561  36.5064457
  65.2089455  71.4313646  36.1268833  63.6999085  71.5314551  36.1883381
  38.2777413  74.1951533  10.7120541  37.5586000  74.3318053  10.0952938
  37.8975907  73.6595364  11.4083508  63.1552488  21.7209983  48.6314249
  62.8109389  21.9839334  49.4849730  62.7923685  20.8473396  48.4855747
   0.6956842  10.5085045  48.4213066   0.7345751  10.6728416  47.4791241
   1.5543869  10.1444774  48.6365891  41.3668227  17.7817418  24.2383507
  42.1655201  17.4594857  23.8206700  41.1163496  18.5456969  23.7188748
  47.6759564  22.9771258  53.6486462  47.9312711  22.9566122  52.7263573
  46.7632573  23.2654025  53.6381558  23.4018326  68.4892082  51.0995960
  23.5148096  67.5894928  51.4061499  23.9231443  69.0159130  51.7054415
  60.1340535  59.9768885   4.6531180  59.4281843  59.4008346   4.3596152
  60.7882336  59.3844696   5.0236824   0.1905308  25.3319049  53.2470179
   0.6233388  25.0383711  54.0487289   0.8553808  25.2322412  52.5656414
  64.3323332  34.5918179  65.9740067  63.4534603  34.8123717  66.2825012
  64.2585331  33.6883616  65.6665134  73.1657439  30.5222107  15.3522518
  72.2365492  30.6554057  15.5395630  73.2085794  30.4395558  14.3995884
   0.9754672  69.9921465  58.3918762   0.8688940  70.9433079  58.3787775
   1.7018409  69.8408318  58.9966202  11.0369492  13.5354304  51.3111687
  11.9266331  13.8879395  51.2904167  10.4815090  14.2718589  51.0554504
  78.6897140  20.0706984  10.8158997  79.4579416  20.1085259  11.3856629
  79.0503007  20.0219180   9.9305561   0.3597474  35.1509978   0.1333693
   0.5711150  35.8250500  -0.5125496   1.1622524  35.0496794   0.6451824
   9.0576369  40.3589058  53.1272840   9.1495299  39.8607779  52.3150873
   8.2084793  40.0904465  53.4781313  11.6623568   0.9094740  10.3583267
  12.4229168   1.4135100  10.0689724  11.1085939   0.8436037   9.5803574
   3.2804322  43.6453177  16.1800602   2.4101018  43.7982584  15.8121422
   3.1233167  43.4945132  17.1121624  83.1305080   2.3260428  16.6609982
  83.0214029   2.0018412  15.7670048  82.2701221   2.2106387  17.0642975
  81.4712432  75.5565663  51.4787129  81.5761950  74.7754379  52.0219067
  81.2124684  75.2189966  50.6212071  30.9841473  70.3888102  55.2500847
  30.3605175  69.9776860  55.8486584  31.6562548  70.7595654  55.8219555
  29.8402643  59.1026545  66.4140797  29.6878886  59.8704433  65.8631611
  30.7734585  58.9158201  66.3117361  80.6696185  73.4869023  10.1076058
  80.1783356  74.0487262   9.5082453  80.0031814  72.9405304  10.5242184
  55.1793695  26.7942263  41.3372544  55.3112178  27.7129961  41.1033657
  56.0403826  26.4956881  41.6301087  22.8997302  35.8862138  64.1283321
  22.5846434  35.7440829  65.0209427  22.7879024  35.0390005  63.6971092
  48.5639718   3.2311111  68.9170504  48.2407072   3.1852203  69.8168421
  49.1868928   3.9578682  68.9231205  50.1214855   2.7123524  14.0783146
  49.1959142   2.4920298  13.9734009  50.3376030   3.2180716  13.2948807
   3.1889009  39.4091584  17.0030335   2.8487610  39.7281577  16.1670998
   4.1374850  39.5158078  16.9320133   7.5408542  31.0194612  61.1853075
   7.6551408  30.0694680  61.2115145   8.3404434  31.3678598  61.5796471
  67.8629237  38.7578465  28.5207203  68.6789244  38.2901741  28.3427933
  67.4312573  38.8190819  27.6685837  35.2868319  67.7959347  18.3501279
  35.4880714  68.2647276  17.5402093  36.1422181  67.6015425  18.7332153
  20.4339123  29.7677493  50.6715488  19.9617898  29.0530324  51.0987616
  21.1864281  29.3444324  50.2583265  23.2643938  39.3385077  30.8448052
  24.1086507  38.9975238  30.5495262  22.6402736  39.0373898  30.1844764
  30.2228242  54.2961605  16.8040493  30.0504611  54.1663476  17.7366093
  29.3609555  54.2412003  16.3912609  76.2763989  58.0625486  53.2266665
  76.5280336  58.9807940  53.1279993  76.5819251  57.6427412  52.4225235
   7.1239054  43.1997395  61.2202358   7.7352905  43.7819386  60.7691431
   7.1899527  42.3701572  60.7473040  85.1979547  10.8489682   7.1156624
  85.7317382  11.6153218   6.9058922  84.6355944  11.1381985   7.8342226
  43.9920857  75.7854076  14.9575260  44.7535708  75.2146931  15.0607613
  43.7903943  76.0787340  15.8460644  61.5225884  27.5927903   5.3849724
  61.7571172  27.6614119   4.4594887  60.6094485  27.8774048   5.4223946
  83.0555421  62.4728870  60.2593136  83.5012263  63.3028126  60.0895500
  83.6243771  62.0182514  60.8805799   0.6380400  69.8260689  63.6232185
   0.7300894  69.9304533  62.6761913   0.4716850  68.8914824  63.7461233
  45.9517911  74.1682502  21.9791058  46.7198124  74.2396017  21.4122894
  46.2252345  74.5685406  22.8044728  14.8185181  34.3990447   1.9922522
  15.4570889  34.4479729   1.2808684  14.8980498  35.2393414   2.4437121
   3.2892513  54.0220000  20.9742478   2.5064969  54.5646502  20.8791187
   2.9651808  53.1228568  20.9217385  72.2291427  16.9176938   7.1029022
  72.8514260  16.8727328   6.3769749  72.5475972  17.6378752   7.6471022
  21.5210199  24.4108462  49.3579817  21.6832685  24.8219776  48.5089350
  22.2909236  24.6317363  49.8820877  16.0434484  37.8297901  68.7403202
  16.7275977  38.2464790  68.2163525  15.2363431  38.2703400  68.4743738
  81.3520604  31.2441826  63.8404465  81.5303284  30.3848958  64.2226505
  80.4369736  31.1979485  63.5634804  21.1503696  20.2313924  67.7443314
  20.9159946  19.9529052  66.8590355  21.2598419  21.1798501  67.6759577
   4.6100911  50.0242662  65.8082485   4.7280318  50.8864927  66.2068653
   3.8685808  50.1349258  65.2131462  67.8969293  10.2615429  10.5320481
  68.8320797  10.3359391  10.3418091  67.5032728  11.0184838  10.0981072
  47.9793339  10.1399256  11.0963181  48.3112972   9.8395087  10.2502754
  48.7584578  10.4327370  11.5690258  26.4450204  79.0874787  10.0317314
  26.3200868  78.5417600   9.2553213  25.7275286  79.7201606   9.9977711
  22.3283457  14.3548228  27.4428681  22.3827385  14.5068861  28.3863476
  21.3976836  14.4466425  27.2387341  65.3586745   1.7851759  10.9459618
  64.9241852   0.9382988  10.8447197  64.6489846   2.3963858  11.1434296
  44.3170279  23.4261586  15.4503849  43.4434586  23.0756356  15.2764824
  44.4983273  23.9983155  14.7047260  38.8115811  11.0062434  21.3276795
  38.4189152  10.7528759  20.4923084  39.3531060  10.2566792  21.5749195
  63.6708787  56.2865253  10.7677010  63.7905672  57.2287627  10.6489781
  62.8924229  56.2116345  11.3196305  32.8364777  22.0106770   4.9014834
  32.6795315  21.1422326   4.5308045  33.3375763  21.8434025   5.6996992
  19.1978287  16.8687607   4.6067169  18.9163470  15.9648682   4.4653872
  18.6704182  17.1710326   5.3461102  73.3859104  33.9421391  58.7505293
  72.6873130  34.5808148  58.6080837  73.0841166  33.1528020  58.3009768
  28.4046687  61.4529224  25.0850609  28.3790231  61.2659832  26.0234764
  28.9814760  62.2129055  25.0079087  60.0127986   7.9095389  10.9508541
  59.6365480   8.5454155  11.5594032  60.9549719   7.9493596  11.1150387
  50.9686830  59.6601756  25.0550678  51.4156487  59.1259011  24.3985584
  50.7447841  59.0444632  25.7529190  81.1088896   8.2242000  51.2318707
  81.3284734   8.1583452  52.1612120  81.1770585   7.3269480  50.9054899
  19.5985043  39.5004988  60.5091095  20.1565003  39.9775457  61.1233521
  20.1558900  39.3513465  59.7453642  12.4295900  77.5289259  64.8104239
  13.1187293  77.4894837  65.4735661  12.3517797  76.6295755  64.4920731
  25.8119988  14.2295863  55.0396374  25.3567528  13.5399081  54.5566014
  26.7304348  13.9600064  55.0335816   8.4572005  21.1115815  45.5993679
   8.7978291  21.6134573  46.3398579   8.3255553  20.2298666  45.9478977
  63.2087803  39.4735122  69.9748659  62.7608299  39.1126323  70.7399416
  62.5077438  39.8477960  69.4412994  72.7219060  62.3989960  11.6116074
  72.4412301  63.2678004  11.8990544  72.4134019  62.3344870  10.7077816
   4.1933414  66.9772454  20.4320744   4.8328897  67.6421829  20.6871632
   3.7503215  66.7454358  21.2483051  -0.3658939  11.4303280   2.0346955
   0.2704739  10.9162690   1.5376929   0.1307225  11.7723633   2.7780798
  27.7196908  77.3714924  51.5625143  27.1592927  77.4764061  50.7936335
  27.1104240  77.2080183  52.2824478  31.1874380  62.0695539   1.3762310
  31.2333578  62.4978848   2.2310141  32.0127368  61.5900870   1.3039473
  84.5558410   3.2393242   7.2415045  84.2926698   2.3542715   7.4938086
  83.8834553   3.8060690   7.6195648  72.1890538  17.8682352  22.0521000
  71.3905411  17.4119307  21.7867687  72.5182527  17.3625304  22.7951458
  23.4925723  50.6646849  18.8691071  23.4440016  51.1943556  19.6649292
  22.8929972  51.0938956  18.2587650  23.4032177  63.0790831   2.1983412
  22.5614905  62.6264311   2.2515324  24.0324425  62.3903300   1.9840506
  84.0357204  50.8461761  58.0373478  83.1240523  51.1012220  58.1789207
  84.5210412  51.6709757  58.0573034  84.0271240  80.7446028   1.9496134
  83.9033991  79.8617293   1.6010979  84.8887520  81.0103442   1.6283587
  12.7573347  58.9046097  48.9427805  13.0336618  58.8269138  49.8559284
  13.2989192  59.6095228  48.5877991  14.8653054  26.7474438  24.9867752
  14.0404343  26.3533522  24.7030285  15.5390667  26.1427952  24.6758488
  19.8355841  10.8879544  34.0482262  20.7861971  10.8350350  33.9494065
  19.7001862  11.0422541  34.9831513  80.5304625   6.1384063  62.9630756
  81.4480069   5.8958774  62.8385115  80.0872948   5.8085876  62.1813774
  27.1786690  68.6674070  63.6242914  28.0041337  69.0697098  63.8944626
  26.5594983  68.9042902  64.3147612   1.7124724   2.7258803  21.8268612
   2.6053643   2.4563242  22.0420769   1.6868424   2.7275540  20.8700112
  71.2442010  23.2267691  33.9721897  70.8508330  22.5104262  33.4738377
  71.0933178  24.0039517  33.4341839  57.6581501  21.1866785   5.2271441
  56.9436764  21.2376715   4.5921925  57.8184533  20.2488972   5.3325155
  76.5251973  80.8732386  10.1896218  77.3974088  80.7883282  10.5746773
  76.4243701  80.0892707   9.6497467  16.8940711  37.4225022   5.1981762
  17.6406121  37.1508576   5.7321385  17.1681475  38.2524134   4.8078373
  27.2747063  18.2971217  22.7640370  27.9361653  18.2775284  23.4556416
  27.1610903  19.2270209  22.5675514  20.8377480   3.9143397  26.2137058
  19.9817204   4.2894246  26.0069206  21.0955357   3.4518267  25.4163006
   2.2797455  64.0173244  56.4308453   1.7874415  63.7494659  57.2068119
   1.8644904  63.5453558  55.7090139   8.2294344  10.4723908   1.4865282
   7.4829101   9.9750115   1.1525419   8.7029790   9.8511197   2.0397070
  26.1520934  39.7543837  11.2650517  26.8786835  39.4168593  10.7412461
  26.3547349  39.4812895  12.1598080  62.9192089  15.6839301  50.6789902
  62.5842952  16.5762879  50.5908898  62.5881957  15.3864457  51.5264347
  81.9858938  28.8470341  36.7026070  81.3723522  28.4112956  36.1110523
  81.6259318  29.7267558  36.8155029   0.3991484  23.9615227  22.7115277
   0.7846164  23.6790301  23.5408905  -0.5452419  23.9369132  22.8656510
  31.9177437  76.4537573  55.1262474  31.2464213  76.9096565  55.6338978
  32.7351737  76.6404104  55.5879831  64.1342985  15.8200146  16.5263107
  63.3568084  16.1702277  16.0914639  64.0441912  14.8701502  16.4496449
  83.6853104  15.0882985   8.9776495  83.0682665  15.1133658   8.2463053
  83.3491879  14.3995310   9.5511082  81.3715106  28.2101323  28.3111027
  80.7699638  28.7986494  27.8550080  82.1035748  28.0987765  27.7045372
  16.3685822   4.3940379   8.4163836  16.9619345   4.7826315   7.7736119
  16.7567896   4.6126391   9.2635802  76.8510848  22.8894068  14.2603996
  76.4065450  22.1474816  13.8503102  77.7798801  22.7392699  14.0842369
  10.0936532  21.7266537  10.1574352  10.3014445  21.0232426  10.7724693
   9.7403311  22.4273993  10.7054737  57.9402804  35.3981329  11.5373257
  58.0323760  35.4329850  10.5852059  57.1395162  35.8901907  11.7186669
  70.0436812   5.2871300  23.1980446  69.5063811   4.9641634  22.4746922
  69.8536378   4.6909024  23.9223602  84.0295699  13.4806972  49.9191189
  83.3446124  13.5573917  50.5833340  84.6969512  14.1114193  50.1893520
  22.7223229  58.0317354  67.1449518  22.4023795  57.1422434  67.2955227
  22.5980425  58.4761381  67.9835749  15.6683993  13.6532666  12.7148560
  15.9467530  13.8754679  13.6033276  15.6407523  12.6965214  12.7047566
  74.4655090  38.0329396   6.2251785  73.6002498  37.8617121   5.8533743
  74.5270210  37.4380995   6.9725826   7.2828483  50.7151915  32.6541260
   6.7392587  50.1982809  32.0595291   7.4344468  50.1382185  33.4026936
   9.4561934  60.0311781  19.6640709   9.4012832  60.8640982  20.1325443
   8.6310172  59.5891406  19.8638848   8.5708469  67.7026653  60.6349945
   8.7533903  66.7630339  60.6330252   8.8872892  68.0099106  59.7854662
   1.7328119  28.4726883   8.7988690   1.3076305  27.7713229   9.2923620
   2.6687598  28.2892252   8.8799456  32.8962636  20.1755501  50.5140427
  33.3484530  20.0235726  51.3438919  31.9684195  20.0692297  50.7238892
  45.1621905  78.8469144   4.9372223  45.9014633  78.6136313   4.3757179
  44.4373253  78.3122369   4.6133068  80.9628134  27.5749184   2.1791199
  80.9573537  26.6566397   2.4492434  81.7032819  27.9584242   2.6490811
  70.1262191  74.9810072   6.5404108  70.8029607  74.4234653   6.9243410
  70.0123408  74.6424504   5.6523541  32.4569535  72.0996284  67.9738808
  33.0965757  71.9792128  67.2720146  32.0947266  72.9723024  67.8206968
  78.9868241  25.3891684   9.0913656  78.5611921  26.2118985   9.3325833
  79.4309717  25.5823494   8.2657507  63.6770462  24.5352723   6.3660696
  64.1623359  23.7228514   6.5099600  64.2238014  25.0369765   5.7614401
  65.0069332  37.9417015  17.5799397  65.9331512  37.7948834  17.7717617
  64.9945425  38.2344986  16.6687039   7.9832673  11.2592865  18.2733944
   7.4565243  11.1571337  19.0660694   8.6892032  10.6202437  18.3709267
  67.9417508   6.0311486  27.8136376  67.4251252   6.7998387  28.0553940
  67.5715202   5.7468964  26.9779614  74.0021556  13.7691904   6.9441393
  74.0087109  12.9249598   7.3952034  74.6659880  13.6805178   6.2602595
  83.7023192  28.3354165   8.0632523  83.1275206  28.9125897   7.5605467
  83.1355029  27.6159884   8.3414105  44.4762468  74.6427059  62.2660017
  44.9799061  73.9218235  62.6440144  43.7046289  74.7161388  62.8276491
   6.6135430   1.3111569   9.3473032   7.4511671   1.7093970   9.5839909
   6.5691947   0.5144907   9.8760679  71.7106491  52.6887156   9.8169544
  71.0200148  52.8789069  10.4518440  72.5241082  52.7823569  10.3126839
  61.4702290  71.3153483   8.6490324  61.4540556  70.5614401   9.2385939
  60.5561733  71.4390017   8.3932093   3.9589142  14.2126728  16.2938526
   4.0257620  13.2578398  16.2865284   3.0248999  14.3882634  16.1797646
   5.7236719  40.9750010   2.9403427   6.4133071  40.7069994   2.3330429
   6.0693526  40.7579829   3.8061598  80.6077796  15.0094439  31.1971405
  80.8849841  15.9254719  31.2139157  79.6960741  15.0297381  31.4880207
  31.5312901  55.7659813   6.6766098  31.4010733  56.6896911   6.8911675
  31.7115280  55.3476437   7.5184754  19.4301581  26.8511702  45.3175667
  20.1343703  26.7069889  45.9496525  19.7385382  27.5786044  44.7772244
  40.2999020  70.2624559  62.4778318  40.6204796  69.4269753  62.1380806
  39.7468281  70.0223255  63.2212543  36.6437468  71.1671897   2.1451691
  37.1747240  71.9464155   2.3097971  35.8453956  71.5030762   1.7376784
  23.1889820  28.0358505  56.2910938  23.4410453  28.7059355  56.9264507
  22.5387597  27.5036192  56.7495346  10.2639699  33.1789233  28.8291481
   9.4822192  33.7253930  28.9095524  10.8945703  33.7297465  28.3652809
  15.1359295   9.1000344  30.0571564  15.8171534   9.7204329  29.7978047
  15.4567027   8.2510640  29.7528675  68.8145876  64.5269632  59.7894239
  68.3095551  65.3248882  59.6329451  69.6560431  64.6885443  59.3627214
  57.9559282   8.9317967   9.1100004  58.6386741   8.9278532   9.7808769
  57.2656570   8.3732535   9.4674662  78.6546471   0.9490638  54.3231630
  78.5998729   0.1155048  54.7904968  79.5092919   0.9265953  53.8926888
   1.7620968   5.2466990   2.9762676   2.0448946   4.5928933   3.6156443
   1.7369198   4.7732712   2.1447256  64.9443739  43.7059523  13.5304764
  65.5185615  43.9772250  12.8142670  64.2429482  44.3572737  13.5349396
  27.0485733  33.3206421  62.3755932  27.1264131  33.9834076  63.0618286
  27.3620572  32.5141388  62.7848673  18.3203149  46.7842484  68.2910156
  17.8402305  46.0871649  68.7380314  18.2924378  46.5392256  67.3661232
  20.5210209  69.9498272  67.7988815  20.6585407  70.8849573  67.6477098
  20.3997302  69.5810556  66.9239378  84.7210937  48.4445216   6.2819508
  84.0207511  48.3431078   6.9265154  85.4050213  48.9279105   6.7454270
  59.8933270  23.3425404  18.2834938  60.4167777  23.3357455  19.0848664
  59.0897181  23.8024641  18.5262230  82.1259296  15.1774037  56.3863325
  81.7299923  15.9480798  56.7931795  82.6842609  15.5320334  55.6944275
  69.8993879  45.4232718  29.7855881  70.1764661  45.3652502  30.6999710
  70.2851217  46.2404276  29.4698265  69.0268472  23.7315040  62.9809666
  69.1197207  23.4415966  62.0734644  69.9159720  23.9608341  63.2513285
   7.7531313  47.3598315  37.0180538   7.6966953  47.6930548  37.9136017
   6.9944000  46.7831255  36.9288281  58.6877469  22.4206997  27.8810337
  57.9301582  21.8633868  28.0590656  59.3563687  21.8187548  27.5541714
  71.9984629  11.4894729  54.8852587  71.0910418  11.7738872  54.9944687
  71.9687989  10.8680969  54.1577721  67.5324875   4.9196698  16.1870602
  67.8397494   4.0608431  15.8968189  67.4658137   5.4345347  15.3828839
  10.7427621  68.2098198  55.9767771  11.4332926  68.7314224  55.5677176
  11.0717535  67.3114252  55.9470367  81.2086981  65.1860619  54.1987085
  81.2289283  65.3897524  55.1337671  81.3343647  64.2380476  54.1573238
   0.2277542  68.0473900  43.4480476   0.2118922  67.5749111  42.6157331
   1.0371463  67.7605152  43.8709211   8.2490444  18.2365014   0.5865362
   7.4835109  18.6042811   0.1450279   7.8845763  17.6460816   1.2459305
  19.1556906  21.8555142   6.6670588  19.2508530  20.9043051   6.7157725
  18.9918923  22.0327116   5.7407740  25.6974625  48.6957861  18.7744358
  25.4359221  48.0063940  18.1640557  24.9166035  49.2413546  18.8684300
  78.7771302  12.4354960   8.6838463  79.4938045  12.0231511   9.1661146
  78.7406235  11.9584252   7.8548125  22.5926232  60.8961058  45.0894117
  23.1750679  61.5732384  45.4336262  23.0905414  60.0835562  45.1792812
  79.4434314  45.3959967  11.1027077  79.0948039  46.0623003  11.6949299
  79.4028884  44.5830370  11.6063717  58.0591014  26.0561615  69.4613600
  58.2280948  25.6380897  68.6170340  58.2058218  26.9883114  69.3006992
   2.8775358  32.1274878  26.2913826   3.5218858  31.5061213  26.6304329
   3.3930635  32.8937365  26.0397366  66.1454611  23.9902665  16.6847637
  66.3592469  23.7562491  15.7815674  65.1904457  23.9401223  16.7255333
  20.1456570  16.4190079   8.4591988  19.3667054  16.9513442   8.6206988
  19.8193097  15.5196263   8.4301451  16.2339615  52.9479815  22.1264294
  16.3736891  53.8939024  22.0823124  17.0392966  52.6047064  22.5134972
  52.6784884  49.9241187  11.6851357  53.5808080  49.6206309  11.5854004
  52.1556907  49.2837359  11.2026242  13.3271622  12.5640799  13.8949040
  12.9536700  11.8671538  13.3554390  13.6574625  13.2040812  13.2644013
  48.4802335  49.2023207  27.4319962  47.7459776  48.8642909  26.9193295
  48.5143989  48.6365153  28.2033184  69.6219640  19.0776850  31.5784004
  70.0917714  18.9673878  32.4050453  69.7342604  20.0030114  31.3606957
  12.9223608  16.3254954  47.1322087  12.6115059  15.6208445  47.7005985
  12.9450249  15.9358527  46.2581948   8.2849454  52.8737856  24.3394402
   7.3434352  52.8119971  24.1782788   8.5663247  53.6320235  23.8274506
  78.2796317   8.8907172   2.4081209  77.9421979   9.0376641   3.2917336
  78.8125806   9.6641089   2.2235659  10.5651546  55.5770874  54.9526644
   9.6196336  55.4284334  54.9415064  10.9086215  54.8916769  55.5257893
  25.2675509   3.9485051  13.1419018  25.3164601   4.8566843  13.4403065
  26.1475205   3.6009528  13.2871369  22.3739362  59.5176697  64.8752785
  22.7947545  59.0655899  65.6065559  22.0536923  58.8139248  64.3109941
  65.4999688  50.0474532   2.4269894  65.0200107  50.4868873   3.1289652
  66.4149740  50.0789597   2.7062872  17.9570138  35.4772305  68.3010483
  18.4928524  35.6302857  69.0793037  17.6715112  36.3501525  68.0313683
  32.7591443  68.7347342  15.1732662  31.9498467  69.2450549  15.1441029
  33.4011006  69.2773749  14.7153691  38.8018965  42.4121691  10.3974465
  39.7454905  42.4184920  10.2367523  38.5664820  43.3364512  10.4782036
  85.6964498  59.3242289  22.2663048  85.5230957  58.4200789  22.0042351
  84.9164396  59.5854784  22.7557686  33.9854502  24.5900465  47.0003632
  34.2832303  24.3237235  47.8702000  33.8874077  25.5402590  47.0612839
  17.2844815  42.0895506  26.5108612  17.7379918  42.4890830  27.2531059
  16.8879580  41.2963606  26.8712166  17.8253460  45.7319736  62.8089809
  17.9294288  44.8410511  63.1431198  17.1843493  45.6495953  62.1028852
  19.5769978  59.5209646  59.6275568  20.1258826  59.6215010  60.4052734
  19.4497681  60.4139233  59.3071318  80.8131438   2.3698737  13.1895474
  81.7477947   2.5676466  13.1299713  80.5157762   2.8489758  13.9630249
  42.3717990  53.1469150   9.3305615  42.1900001  52.7318188   8.4874275
  42.0470491  54.0419169   9.2318657  48.2380894  24.3980938  68.2999277
  47.8488007  24.4138961  67.4256039  48.1268409  23.4944397  68.5953379
   5.8654046  20.0458743  36.4275959   5.7050371  19.7655894  35.5265167
   5.1130008  20.5963065  36.6447190  29.2616820  53.9017248  69.7269726
  29.4624662  54.2230463  70.6059885  28.9881325  54.6813440  69.2436552
  16.8308520  56.5186430  11.0383633  17.7378535  56.7012812  10.7929543
  16.9000840  55.9502436  11.8054035   0.6419870  26.0125690  50.3050613
  -0.1466349  26.3585430  49.8871994   0.6771919  25.0967174  50.0289917
  25.9908890  79.0595271  21.6217259  26.3689112  79.1016604  22.5001076
  26.7418742  79.1398074  21.0336712  63.6509827  74.5690509   9.8035935
  64.1254356  75.2652450  10.2579525  63.4369710  74.9433347   8.9489916
  11.0238099  10.7647110  33.2555321  10.3210544  10.1178481  33.1927994
  11.7645335  10.3580119  32.8059223  41.7687979  76.9852491  11.5839604
  41.3855424  76.4318963  10.9034088  41.1622622  76.9132467  12.3209599
  15.7491159  58.8761377  67.9999828  15.8034337  58.9785242  68.9501381
  14.9036467  59.2589712  67.7657747  32.7059099  79.2321606  35.3639820
  33.4157872  79.8368069  35.1478508  31.9665199  79.5320650  34.8352173
   2.5356912  23.0809905  28.1486061   2.1928572  23.6258151  27.4401882
   3.0834555  23.6738516  28.6630943  81.7277625  11.0555606  51.3103533
  82.0330050  10.1664787  51.1297798  81.0479024  10.9450107  51.9750357
  28.7678742  11.0037829   6.5329531  27.8541016  11.2120272   6.7276028
  29.0876984  10.5679108   7.3228625  53.4831896  20.8168580  25.4132679
  53.1545299  21.1863209  26.2328556  54.3863543  21.1285569  25.3552082
  56.4543294  48.2973315  24.8409775  56.9219507  47.6550127  25.3748158
  55.7704642  47.7915408  24.4019726  62.6690820   9.3064170  41.7090082
  63.0453542  10.1744705  41.8543530  62.3893431   9.0180927  42.5778294
  83.1670194  22.5408055  34.8147801  83.6319118  21.7884900  35.1810101
  82.7543598  22.9585387  35.5707100  74.5916322  80.8313628  20.7821587
  74.9386456  81.6259499  20.3766373  75.3685000  80.3352853  21.0402611
  16.3339543  53.3885218  18.5684136  15.8521533  52.9185606  19.2490318
  16.0334801  54.2941691  18.6442116   9.3943452  25.3256489  13.6275223
   9.5241808  24.9318768  14.4902542   8.6233496  25.8831622  13.7322739
  40.2347842  10.7119709  53.0634928  40.8933404  10.9767872  52.4212980
  40.7294562  10.2391391  53.7327862  45.6824255  64.4961786  68.1117868
  46.2978411  63.8284445  67.8090906  45.5500889  64.2973566  69.0387154
  19.7709680  75.5333900  59.5623446  19.2035162  74.9132299  59.1044903
  19.4361949  75.5474138  60.4589844  53.8089991  77.7771187  67.9672050
  54.5941734  78.1025410  68.4074688  53.1024551  77.9277897  68.5951614
  12.4028134  16.6471030   2.9685715  12.4609065  15.8228613   2.4853686
  12.0864844  17.2805668   2.3244503  34.0473795  73.8088465  49.2565727
  33.5517859  73.6109924  48.4619236  34.4379616  72.9724360  49.5097446
  77.4602466  34.9579932  45.0986317  78.1459623  35.4632498  44.6618965
  77.0639091  35.5744053  45.7144192  85.3700643  57.8170802  11.9038132
  85.2038961  57.5329234  11.0049942  84.5125299  58.0877520  12.2318485
  30.0847077  22.1404196   9.3031433  29.9634480  21.7448594  10.1663140
  29.7888588  21.4690758   8.6883238  19.4172049  56.7339277  66.3559818
  19.1798568  57.0824146  65.4966450  18.5974717  56.3878679  66.7088413
  42.2427130  73.7689495  47.0524836  41.6095400  73.0765438  46.8630266
  42.1479225  73.9298630  47.9912901  32.3784804  24.1085793   2.7923229
  32.5747704  24.9524285   3.1992987  32.3988652  23.4829165   3.5164526
  45.5085611  74.7540092  53.6075163  44.8200130  74.4448423  54.1962004
  46.2982750  74.7664452  54.1482830  77.3154786  19.9832969  64.5245647
  76.4345887  20.2169471  64.2318583  77.7324870  19.6046978  63.7506199
  75.5793732  44.1781451  49.1356877  75.4744857  43.4127165  49.7007969
  76.4803463  44.1195227  48.8178089   3.2438776  67.2698828   8.1724289
   2.4221679  66.9569846   7.7941111   3.8875744  66.6037579   7.9312542
  50.1721099  16.6077476  48.4965754  50.1361516  17.2520595  49.2035437
  51.0935381  16.5868812  48.2381773  83.0203324  29.2435242  13.3930424
  82.0696574  29.1560151  13.3238056  83.2096749  30.1034237  13.0175999
   6.6213750  28.6203600  33.7651184   5.7110071  28.4700228  33.5104397
   6.6516137  29.5448042  34.0115288  49.1193890  35.5706431   8.6927822
  49.4250374  34.9908663   9.3904045  49.8419684  36.1835553   8.5569409
  66.1857107   0.3560978  63.9007521  66.8529418   0.9383636  64.2640734
  66.4263037  -0.5132241  64.2211008  77.9437714  16.1803557  27.0937660
  77.6777273  16.7314841  27.8297737  78.6458879  16.6721274  26.6678265
  36.4167794   0.3239399  66.2266111  36.6725525   0.8129173  65.4444885
  36.4849159   0.9593349  66.9392586  64.5804575   3.1930214  63.3979130
  65.0412777   2.3557239  63.4509277  64.0792325   3.1394535  62.5841951
  29.9752617  79.1450453  65.4635763  29.5405459  78.8043356  66.2453508
  29.3267512  79.0460014  64.7665405  41.8518284  11.8512779  69.1425848
  41.8746343  12.8058296  69.2100382  41.2011125  11.5808731  69.7904110
  76.1428266  71.3580920  10.1561955  76.7730647  70.6676413  10.3618649
  75.7996290  71.1202933   9.2948559  61.8362978  18.9747482  45.3098869
  61.0876396  19.3269783  45.7912159  62.3415521  19.7466140  45.0546026
   3.2174682  51.1830450   7.1418169   4.1402459  51.1357523   7.3917750
   2.7480936  50.8064295   7.8861836  40.5967999  66.0415459  63.8744020
  39.7112489  65.8229303  64.1646385  40.9733295  66.5336323  64.6040010
  15.5217003  76.1663653   8.2909945  16.2756943  76.3961722   8.8340500
  14.7793602  76.1765505   8.8951948   6.0077905  63.6879755  20.7740811
   5.8081746  63.9979960  21.6574124   5.2010893  63.8355662  20.2804402
  12.6992297  38.1272198  20.5678585  13.5241675  38.1849982  20.0858238
  12.9207825  37.6457001  21.3649109  12.2038722  26.1872174  15.9838227
  12.3395800  25.4774071  16.6115025  12.4393963  25.8069111  15.1375797
  57.0487213  78.7188768  38.5760570  56.3680553  78.2538891  38.0895281
  57.3382282  79.4106054  37.9811382  29.5412922  69.7875834  63.9159775
  30.1141906  70.1295424  64.6023321  28.9917064  70.5316687  63.6699629
  16.3012862  75.9199072  19.7822788  15.8923888  75.5400969  19.0046051
  17.0991826  76.3350607  19.4547966  30.1808810  79.4043112  59.4456959
  30.2762365  80.1221180  58.8196802  30.3081369  79.8141956  60.3012848
  42.9896164  75.7116270  64.8332500  42.2805834  76.3433886  64.7133350
  42.7112675  75.1775551  65.5772352   5.4561826  73.0489202   9.2528990
   5.4755422  73.8048168   8.6659792   5.3806993  72.2941943   8.6690119
  28.6635899  60.2829100  -0.1004335  28.5567641  59.8810793   0.7617453
  28.6893677  61.2234999   0.0752238  75.3283137  43.9994742  10.1968888
  76.2199014  43.9244105   9.8567894  74.8205798  43.3759905   9.6775511
  26.5286183   9.9243523  10.4894474  26.1981320  10.7191445  10.9081486
  27.4790024  10.0376965  10.4768971  23.9813971  30.1357771  30.9259918
  23.4166407  29.3964268  31.1510399  24.8400521  29.8960568  31.2745217
  75.7834866  18.6325126  54.3960619  76.1050370  17.9767280  55.0147533
  75.6868699  19.4282680  54.9191856   4.6694397   1.5436245   3.4104422
   4.7459149   2.4821307   3.5824469   3.7757802   1.4315630   3.0863360
  17.1757388  78.3821821  58.0382824  17.7373648  78.2199049  58.7962246
  17.3274350  77.6324368  57.4628782  76.7435342  20.7533671  33.1698540
  76.2808078  21.4380862  32.6868656  76.5307468  20.9221817  34.0877083
  12.4007391  26.2593199  20.3557423  12.0387101  27.0475270  20.7605770
  13.3140158  26.4811589  20.1742295  50.2444434  13.1853558  14.0235546
  49.5083403  12.6970650  13.6548260  50.4782128  12.7034213  14.8168495
   1.4904548  15.7461357  45.6120300   1.3594118  15.6903648  44.6654844
   2.2003996  16.3792574  45.7186460  12.0643771  34.0751123  39.2128444
  11.3140357  34.5549750  38.8622022  11.6800332  33.3132100  39.6464515
  36.9854740  63.5241229  68.7641144  36.4036516  63.7012214  69.5032740
  37.6948932  64.1595275  68.8601255  50.9752944  20.4345413  12.2227982
  50.3569987  21.1511012  12.0796707  50.5597546  19.6746321  11.8152550
  32.4720683  67.7952905  25.4421547  31.8214884  67.8407760  26.1428002
  33.2912603  67.5828286  25.8893898  70.5461663   6.0532260  57.9550362
  71.1918563   6.7550468  57.8727913  70.3423434   6.0236317  58.8898182
   7.6877630  11.8824697  67.5070000   8.5062248  12.3219979  67.2764206
   7.6125515  11.1686802  66.8736935  51.8533802   8.8989884  29.5721412
  51.7356682   9.4962859  28.8334870  51.1737871   9.1532570  30.1964283
  78.4487468  22.3149657  62.6463175  77.8448325  22.0392799  63.3358955
  79.3156516  22.0864367  62.9817009   2.1689226  13.7486708  55.5393648
   1.5778300  13.1686389  55.0593567   2.9955599  13.6987591  55.0593519
  12.1344280   7.6868814  48.1537056  12.3883581   8.3085424  47.4715805
  11.9218791   6.8835729  47.6785707  16.3909698  12.1084559  40.7053804
  17.1593952  11.8337560  40.2050877  16.7508018  12.5010407  41.5007591
  30.1876855  68.0149456   2.6904515  29.9849686  68.8639136   3.0833796
  30.8250147  67.6212903   3.2863405  83.5096085  42.0765257  24.8489833
  83.6012326  41.8168259  25.7657123  83.8420902  41.3279963  24.3536139
  11.2559485  41.6434908  65.3367424  11.9892299  41.5698242  64.7259235
  10.8435667  40.7798195  65.3211832  16.1295950  20.5399966  44.9227333
  15.6829679  19.6939111  44.9526215  16.9977415  20.3403187  44.5724726
  70.8629852  10.9217049   4.8833159  70.3892904  11.7034508   5.1674202
  70.4481118  10.2034356   5.3610256  43.9878264  69.8624319  69.6886349
  43.4562841  69.7362966  70.4746246  44.7093013  69.2408211  69.7851086
   4.5008203  11.2617362  23.7401175   5.0886083  10.5612636  24.0230942
   3.6568826  11.0397649  24.1334748  11.4215684  26.7942810  49.1018438
  10.8984053  26.2059116  48.5574627  12.1226072  26.2413549  49.4468737
  48.0351510  54.1838272   6.5929344  48.8102391  53.6749168   6.3552788
  47.6940539  53.7496718   7.3748520  25.1621109  58.0583437   1.2913779
  25.3606909  57.3607667   1.9160250  25.2904340  57.6548227   0.4329279
  79.6398967  47.2674179  48.2262564  79.5878243  47.4181890  47.2824383
  78.7290436  47.2737408  48.5204268  45.5189004  78.4297581   7.4719361
  45.4061070  78.5936757   6.5356425  44.6325603  78.2683178   7.7953079
  18.4575701  15.2638936  46.6595888  18.0961704  14.7228920  45.9574938
  18.2055593  16.1576033  46.4271975  80.6866997  20.1540303  58.1274414
  81.0831696  20.8385348  58.6664152  80.0935727  20.6241012  57.5413799
  28.0844784   4.6656612  47.8246403  27.6544094   4.5667195  46.9752407
  27.5591063   5.3206128  48.2842684  77.8052783  34.7567987  60.2994251
  77.5490487  34.8480582  59.3816805  77.4454153  35.5339265  60.7269812
  24.6044215  44.7174402   3.1824473  24.5788297  45.6525423   2.9795674
  23.7227902  44.5162215   3.4962443  27.0896017  38.8913957   5.4301909
  26.9314582  39.4475490   4.6673563  27.6893513  38.2157852   5.1138333
  16.7582667  29.9590278  49.7522449  16.7584372  30.9030962  49.5942402
  17.5899649  29.6551824  49.3886709  11.6767919  10.7520795  51.7377424
  11.4389908  10.0593412  51.1214685  11.2670195  11.5404558  51.3816833
  39.7937837  49.1833593  17.8668431  39.7990229  48.2351710  17.7359131
  40.3373125  49.5261164  17.1573952   0.3999119   9.6883428  33.0345750
  -0.0193861  10.2409935  33.6941195   1.3103236   9.6207905  33.3223581
  74.3875649  65.1774760  13.2504872  73.5995105  65.4372330  12.7732876
  74.8270562  64.5580145  12.6679543  51.7366639  60.4107327  60.7868433
  52.3137686  60.4238791  60.0232887  51.2029907  61.2002975  60.6973314
  44.6279016  67.6817281  42.4371672  44.9498227  67.2906501  43.2493591
  45.3452769  67.5649125  41.8143082  49.5978337  17.7278495  60.3477144
  50.4168111  17.4834239  60.7787180  49.8484188  17.9075205  59.4415331
  32.2440505   9.8331952  65.8174515  32.0152640   9.9795151  64.8995876
  33.1057405  10.2379382  65.9169674  45.0338986  48.9191141  16.4430550
  45.2340463  49.5381494  15.7409313  44.6205595  49.4524481  17.1219757
  73.3509723  56.7441720  62.3838758  73.8484660  57.3232121  61.8064308
  73.6301318  56.9883842  63.2662964  85.0790223  69.3452545   1.2838200
  85.8265671  69.6861001   0.7926682  84.5277080  68.9279528   0.6218985
  83.2338124   2.6553894   0.9412602  83.7102848   1.9421460   1.3661030
  82.3226696   2.3622204   0.9313086   8.7121630   1.2118317  50.5801678
   9.3316031   1.8600091  50.2449179   8.8117981   1.2548046  51.5311956
  80.2029422  47.3698558   7.1651772  79.2661145  47.3824509   7.3612145
  80.6199935  47.1645184   8.0019215  20.0224903  62.4570700  14.1775826
  20.6486228  61.7403289  14.0752533  19.9567410  62.5843783  15.1239994
  18.4539759   9.2752993  48.6273146  18.9391470   9.0207744  47.8424215
  17.5769436   9.4880617  48.3082867  46.0843721  58.1682416   5.6348541
  46.2123421  57.4126693   5.0613001  46.5560391  58.8799806   5.2022007
  43.4087446  58.4409030  20.7541969  43.4269431  58.9436444  21.5685394
  43.9732995  58.9317282  20.1570347  13.9230192  37.8744555  60.6884909
  14.1227603  37.0027280  61.0297012  13.5690236  38.3503962  61.4397573
  61.2248117  51.0548735  41.5328407  61.5841705  51.2192869  40.6610250
  60.3478080  50.7081318  41.3689232  82.8341862  33.8982129  55.2169228
  83.7888324  33.8340402  55.2445698  82.6093730  33.7319922  54.3014669
  52.5280431  78.8319464   0.1552752  52.1991685  78.6987491   1.0442808
  51.9978597  79.5496412  -0.1912138  58.2185459  15.9283972  39.6150112
  57.4328613  16.4542186  39.7648239  57.8862381  15.0553823  39.4060898
  80.6687742   2.3142315   1.5012291  80.0338917   2.4084832   0.7911089
  80.2247482   2.6745058   2.2688750  10.9228814  44.1318274  56.7284060
  10.6228781  44.8178053  56.1320305  10.2177024  43.4845829  56.7230797
  67.5975921  61.9436165   7.4829272  67.1679523  62.4241801   6.7753247
  67.2066048  61.0704823   7.4513415   6.8615085  48.7001705  64.8897409
   6.3247037  48.0159140  64.4899130   6.2312853  49.2789221  65.3188086
  28.6331587  76.3583394  23.5100201  28.1250940  75.7000824  23.9841488
  28.6671381  76.0325666  22.6106003  60.7174694   9.7525383   8.0761173
  60.3489771  10.4101969   8.6659697  59.9923518   9.1517855   7.9042605
  31.9460249  26.9648933  67.9441118  31.0421848  27.1797609  68.1746197
  32.4570465  27.7110267  68.2577562  63.7120277  56.4798021  40.2063084
  63.3286291  55.9974337  39.4738030  63.5946232  55.9026146  40.9608269
  78.9078268  71.1969252  26.3380173  78.4860977  70.8274861  25.5622032
  78.2798585  71.8389889  26.6691426   1.4021312  32.9353857  68.7638330
   1.7932899  32.0703959  68.8863897   1.9992667  33.5340309  69.2124796
  36.9273734  42.9188347  69.2085648  36.8479013  42.2711229  68.5082912
  36.0946560  43.3906412  69.1940641  27.7167130  16.8309557  37.7280569
  27.2478962  17.6616681  37.6483059  27.7775097  16.6798401  38.6712956
   5.1281935  23.4000611  58.1683302   6.0835332  23.3438635  58.1483412
   4.8768327  22.9248881  58.9603233  40.1434627  70.9195300  29.7013596
  39.4702640  70.8728762  30.3802231  40.4567185  70.0194212  29.6124294
  36.4129385  43.3009120   8.4786776  36.0388294  43.1316741   9.3433359
  35.6536075  43.3992304   7.9042366  33.1104922  23.6899996  44.5167303
  33.3012223  23.7828040  45.4501295  32.4948382  22.9585719  44.4696331
  16.5014124  36.0493541  55.4553080  16.5019357  35.1198316  55.2267933
  17.2015297  36.1373854  56.1020851  49.6731618  52.5710841   0.4465368
  48.7484768  52.5704344   0.6939057  49.9571398  51.6666134   0.5789021
  76.6212123   6.6086604   6.3363007  77.3826414   6.0381962   6.4413193
  76.1444562   6.5262343   7.1622208  63.7718084  79.9828740  11.1994580
  62.9714229  79.8767181  11.7136028  64.3609336  80.4740687  11.7720726
  85.0679513  39.0092778  64.4312716  85.9193146  39.3452144  64.7115517
  84.8518981  38.3360434  65.0764894  76.2764552  59.7953900  39.5858219
  76.5940574  60.6975528  39.6240738  76.8336490  59.3190153  40.2013138
  17.6328996  74.2337676  26.7362908  18.3922532  74.2479368  27.3188904
  17.9258826  73.7359854  25.9730080   6.0040000  68.8258215  21.7115715
   6.7082885  69.4166251  21.4448097   6.0429862  68.8231369  22.6679733
  23.7881327  35.5022693  69.2257452  24.5515704  35.5801582  68.6536169
  23.9496136  36.1326170  69.9277544  60.4402497  71.3301726  33.2227352
  61.3433602  71.0152598  33.2608250  60.0077608  70.9076615  33.9647988
  57.1881424   2.3107792  11.4872673  57.8786842   2.1134068  10.8544758
  57.3029675   1.6584851  12.1783283  22.8597852  46.4066472  14.6066120
  22.9650387  46.6056879  15.5369595  23.7343022  46.5250965  14.2359093
  34.8369122  36.5196466  42.9129934  34.8829913  37.1773076  42.2190285
  34.9338031  37.0195341  43.7235212  74.3206280  10.4742648  13.3895806
  73.6599868   9.9786831  13.8735035  73.8290494  11.1769463  12.9643467
  78.7226563   6.7191245  41.1875656  78.4213024   7.1259810  40.3752354
  77.9736596   6.2058903  41.4905956  30.7343173  25.6698513  60.5126333
  30.2889562  25.1005912  59.8850727  30.1787519  25.6482625  61.2918091
  81.5410477  51.9948959  58.4263897  81.3507751  51.9834328  57.4883604
  81.2010193  52.8367710  58.7294769  34.7073069  46.3009944   3.6138943
  33.7890413  46.0434582   3.5320643  35.1550373  45.8147635   2.9215410
  10.2624774  36.4067912  63.4449768  10.4680729  36.0019350  64.2876244
  11.0811567  36.3609314  62.9511213  26.3705587   2.9543412  60.1533127
  26.4964342   2.3506695  59.4212151  26.9456315   3.6935985  59.9557686
  21.3209486  12.6018524  62.9930973  21.5156484  12.4223173  62.0732641
  21.3647866  11.7456186  63.4187365  78.0321956  12.5916576  53.3366680
  77.6048297  12.4011838  52.5016165  77.3101008  12.7522099  53.9441490
  68.6114865  33.7532593  18.4945515  68.3598333  33.6425234  17.5776795
  68.3427852  32.9373766  18.9168862  45.0535193  78.1234900  43.5378361
  45.3705064  77.2908319  43.8877392  44.5610944  77.8817344  42.7534199
  78.4868163   0.9401321  62.4583101  78.9259154   0.9387828  63.3088493
  79.1964775   0.8504445  61.8222523   6.9322163  17.1208405  63.0311441
   7.7616000  16.8026495  62.6746178   6.3232553  16.3927817  62.9073381
   4.5508924  47.2062111  36.9341230   4.3986708  48.0925989  37.2617984
   4.1864628  47.2121763  36.0490322  64.2894080  55.5245670  24.4592026
  64.6133092  55.2519091  25.3176811  63.9964130  54.7129341  24.0449169
  43.5661581  68.4195370  61.6414833  43.7934056  67.6854116  62.2121429
  42.6415268  68.2843811  61.4340687  51.8093920  35.0338912  63.2335854
  52.1431398  35.0048184  62.3369217  50.9203768  34.6848893  63.1696796
  23.7736350  12.6629330   7.1225002  23.3890587  13.2741000   6.4941624
  23.1142622  11.9763972   7.2231606  49.6240187  36.9819832  69.1844654
  50.2785015  37.4508691  69.7021770  49.8570251  37.1713328  68.2755709
  83.3291325   6.6289943  48.7862062  83.5909720   6.5179229  47.8722382
  83.5691392   7.5315255  48.9961243   1.8007322   6.3277781  46.9424725
   1.9751158   5.6025976  46.3425255   2.6668471   6.6053206  47.2408819
  81.8408137   4.0686966   6.9739226  81.1711651   3.8154246   6.3385895
  82.5003653   4.5299078   6.4557436  27.3101616  29.8730040  67.4252653
  26.6612434  30.0163364  68.1141758  27.9306865  30.5947137  67.5268269
  12.3246288   6.0518110  70.1174974  13.1489837   6.2389690  70.5665445
  12.3591769   6.5831542  69.3220615  64.4706080  80.0052330  28.0737805
  64.6567729  79.3146280  28.7098932  63.5754547  79.8290898  27.7841163
  29.3826127   5.9989935  40.0163555  30.2003908   5.5872524  40.2955294
  29.2885828   5.7463032  39.0979099   3.3661705  34.6387434  50.3424072
   4.0522498  34.0958381  49.9540997   2.5699639  34.3910241  49.8723793
  10.7850030  69.4214555   9.6927098  11.2302223  68.5833975   9.8178890
  10.0236848  69.2098709   9.1524676   7.3667377  16.1497927  47.8964329
   6.4223170  16.0436475  48.0106068   7.4939328  16.1575484  46.9477558
  80.8970395  63.1922770  51.1890888  80.0232577  63.5792017  51.1340570
  81.2079433  63.4262562  52.0636320  42.5710979  70.0814195  12.4737576
  42.6659789  70.7856770  13.1150368  43.4257272  69.6504589  12.4630860
  69.8708120  73.2449926  64.4093132  70.3927544  72.7950818  63.7449408
  69.3871668  73.9123315  63.9225101  16.8012571  37.5516891  65.3605556
  15.8695245  37.7137089  65.2127123  17.0409298  36.9072700  64.6945858
  12.0104766  24.3982601  63.3180857  11.8278301  24.9454308  62.5542307
  12.8068042  24.7719598  63.6955023  85.5925533  14.6235216  66.1267710
  85.7313895  14.2542255  66.9988823  85.3123109  13.8796580  65.5935144
   4.8644361  41.0020113  47.3959398   4.8294553  40.2548265  46.7986774
   5.7471925  40.9726143  47.7648687   8.8650906  26.8246651  57.1129990
   8.7000328  26.3984418  56.2719774   7.9943454  26.9684315  57.4836302
  54.0199116  80.5798833  30.7933497  54.6169478  79.8355120  30.8687925
  54.4176477  81.1392692  30.1261735  13.4955895  41.6617060  53.1177807
  12.6606369  41.2823725  53.3919954  13.2638180  42.5202656  52.7636814
  84.3883496   2.3187043  11.1127308  85.2015095   2.6000763  10.6934097
  84.2010623   1.4646460  10.7231930   6.1758279   1.0380103  23.0624607
   5.3051376   0.9232212  23.4431866   6.7636036   0.5868985  23.6684731
  21.1244440  33.6267996  33.6285353  20.5349898  33.5731268  34.3807936
  21.8032718  32.9766059  33.8092995   9.1813958  26.9059587  51.5008402
  10.0769520  26.8782711  51.8376541   9.2202115  26.4201093  50.6770182
  46.2850812  72.8769990   0.8061960  45.8381620  73.4824296   1.3977602
  46.9907894  72.5034591   1.3340977  34.9654603  18.0431211  49.9090624
  34.2579484  18.6214519  50.1940060  35.6514907  18.1623709  50.5658579
  30.0451636  26.7870426  39.3963265  29.9844074  27.3603606  40.1604271
  30.9687328  26.8177223  39.1467047  27.3187613  37.9110742  47.0629215
  26.6315198  38.4373665  46.6543293  27.0677400  37.0056677  46.8800068
  52.0462325  51.4060255  24.4501427  51.1759928  51.4468213  24.8466900
  52.3489597  52.3140653  24.4429329  19.6867445  79.7663589  17.7508190
  19.7207322  79.9060055  18.6971691  19.0731260  79.0404721  17.6377133
   6.0617850  77.1511841  31.1623359   6.2241265  78.0170671  31.5366673
   6.4045760  76.5401790  31.8145609  37.5242033  66.7364760  19.8384407
  37.7031341  67.3813172  20.5228356  37.9008731  65.9222384  20.1721600
  58.3294088  28.4546137  45.7732773  58.5960847  28.4705830  46.6924381
  58.9961988  28.9717579  45.3214073  22.1687457  78.4690233  36.8850830
  21.6304907  77.7261444  36.6118649  22.6238003  78.7410327  36.0881069
  14.4873595  58.6787653  33.1027842  14.9004877  57.8924227  33.4594727
  13.5672104  58.4380293  32.9950690  26.7629604  52.3739465  32.4293545
  27.0396036  52.0501657  31.5721062  26.6112718  51.5829488  32.9465988
  41.5488162  72.6667209  16.5222862  41.5469733  72.6677295  17.4794796
  41.0649875  73.4566112  16.2810066  68.9797801  36.9247484  54.6733427
  68.3307022  36.5071511  55.2395058  68.8019198  36.5695119  53.8024759
  34.9455357  19.2388904  26.4340901  34.2497540  19.7849691  26.8000364
  34.6542192  18.3411229  26.5933967  58.9700225  64.0873500  12.4911431
  58.7855914  64.5278736  13.3206967  59.9071911  63.8955136  12.5250080
  82.1435743   1.5176751  45.2645138  82.8358155   1.3941313  44.6150711
  82.3224741   2.3777701  45.6445912  62.1708476  12.2677590   6.6444996
  62.5605404  12.0037342   5.8110359  61.2549877  11.9978405   6.5768555
  69.3531134  64.7606679  44.5817116  70.1816848  64.5284220  44.1624668
  68.6832192  64.3669911  44.0227059  16.1272204  38.4090924  35.2844167
  15.5606687  37.6423383  35.1987362  16.8480349  38.1133509  35.8404684
  63.0114603  27.2693276  70.2990103  63.3035374  27.9573369  69.7010422
  62.7624464  26.5439820  69.7262144  30.4987311  39.6170139  42.4795628
  31.0898614  40.0388050  41.8559551  30.8782625  38.7496090  42.6202726
  25.1263309  20.2475286  68.3113813  24.8055458  19.7742963  67.5436687
  25.7932091  19.6721005  68.6860657   5.9000018  53.4535476   8.6106184
   6.1898258  52.5620981   8.4168366   5.1464942  53.3398338   9.1898659
  82.0062011  16.0589027  36.0109043  82.1716267  16.8331444  35.4729295
  82.5965738  16.1558330  36.7580962  83.9472442  21.1297680  25.5740479
  84.1956716  20.8636261  24.6887902  83.1837063  21.6933991  25.4493073
  32.1989676  75.1521822   9.7322634  32.3396429  74.9737140   8.8024309
  31.3519591  74.7513719   9.9276093  28.8403808  54.5708354   3.0709913
  28.1388633  54.9319788   2.5290707  28.9049628  55.1733502   3.8119629
  43.5305119  31.4399552  68.4636354  44.1199207  32.1594143  68.6899328
  44.1132212  30.7177162  68.2290077  82.9711941  60.9936077  35.8963370
  83.3571676  60.5769081  36.6668034  83.4009841  60.5690641  35.1538587
  83.9270073  29.0895058   1.0833910  84.1557651  28.7268616   0.2275923
  82.9789096  29.2153336   1.0445336  34.5619717  78.1961699  11.1600426
  35.2772584  78.2880851  11.7894486  34.9185195  77.6333328  10.4727867
  72.4531739   0.2237011  12.2734287  73.3243423   0.4852368  11.9752720
  72.5619167   0.0510146  13.2086209  66.4586848  56.4565516  57.7861595
  67.3868698  56.2625408  57.6555204  66.4320081  57.3988819  57.9521036
  32.6128101  15.8142853  53.1245613  32.0900083  15.0328064  53.3039999
  33.4987974  15.4818594  52.9805088  60.4629305  57.1164711  11.8236664
  60.3423789  57.1451577  12.7728108  60.8021238  57.9829069  11.5990189
  32.6415157  10.4994655  58.0875826  33.1914616  10.8299601  58.7979078
  33.2501078  10.0449443  57.5051212  68.6627772  66.5945359   8.3792475
  68.4713056  66.1709543   9.2159966  69.3196824  67.2576757   8.5912731
  46.0939887  71.1849130  53.8075781  45.7028774  71.4019120  54.6538496
  45.3472045  71.0846633  53.2172441  55.0808695  69.0068575  12.3363999
  55.0072697  69.8303052  12.8188446  55.7490065  68.5109373  12.8095749
  79.6015310  37.3580027  39.0555763  79.2118782  36.5870810  39.4679880
  80.1178443  37.0064235  38.3302855  42.3505068  11.6199505  51.4244461
  43.1549072  11.9323266  51.0102081  41.6684628  11.7762017  50.7712746
  13.4769562  49.0139385   7.4050835  14.1963401  48.7216695   7.9648140
  12.8299454  49.3709626   8.0134800  10.3824392  72.8223034   2.9836157
   9.9874869  72.1081348   3.4838274  11.2326255  72.9646083   3.3997467
  82.9633543  40.7631588  63.3230829  82.2231701  40.6022215  63.9082813
  83.6455053  40.1658392  63.6298609   4.6607617  15.5824959  47.2936678
   4.5237780  15.1733601  46.4392233   4.2351633  16.4368021  47.2211456
  73.9113837  55.3020525  59.8997927  74.7636789  54.8961639  59.7414398
  73.5934859  54.8866224  60.7014084   7.2702551  38.9300084  50.8131123
   8.0239731  38.4527779  51.1600876   6.5542138  38.7137914  51.4104128
  84.2375541   0.4044831  55.4480743  83.4349561   0.8952528  55.2714062
  84.0649544  -0.4702752  55.0998831  77.7023750  39.0599132  42.8912306
  76.8057305  38.7434721  42.7811098  78.1053609  38.4333682  43.4922934
   4.8682681  13.3902860  49.0812111   3.9282441  13.3350420  49.2530680
   5.0044692  14.2889464  48.7810612  18.8559687  26.7300034  67.4287271
  18.3938253  25.9955120  67.0247793  19.7586393  26.6425967  67.1224976
  34.8793074  59.6827241  15.9171036  34.4162389  59.3294915  15.1574829
  35.6691703  59.1465350  15.9867504  68.0260366  16.7241932  29.4125298
  67.4136573  17.0633866  30.0653485  67.5868326  15.9554125  29.0487984
  44.9161973  31.1304625  13.4599999  44.8008647  31.9341036  12.9529598
  44.4528582  31.2966414  14.2809323   2.9541039   6.7808129  11.0184029
   2.0049977   6.8835617  11.0882214   3.2978343   7.1824194  11.8163994
  70.2309182  31.7908587  21.0865524  69.9924662  31.3429751  21.8982056
  70.7476952  32.5444122  21.3717392  55.5661323   4.2602726   4.0491799
  56.3737848   3.9650436   4.4696167  55.7184151   5.1865121   3.8617638
   5.2373862  22.1408486  45.3748035   5.9340811  21.9894981  44.7360992
   4.9243656  23.0248165  45.1828384  25.4964447  24.0197301  43.0900669
  25.8497214  23.4877539  43.8031101  24.7466111  24.4715619  43.4771442
  45.4559532  61.4579531  30.5722645  45.9645083  61.3370438  31.3741234
  45.7321444  60.7397791  30.0029019  41.0568380  39.0628028  38.7002206
  40.4216576  38.3619452  38.8471007  41.1796093  39.4594026  39.5626974
  32.1866083  15.3801298  56.6358757  32.9264164  15.7285810  56.1383867
  32.3523283  15.6569755  57.5370550  50.8907488  54.9321981  27.3833206
  51.5473440  55.6249340  27.4556473  50.6930425  54.8863121  26.4478806
  13.5457584  71.2133761   6.3537625  12.6840994  71.1532493   6.7662743
  13.5309717  70.5441280   5.6695679  66.4221647  54.5314177   7.4337939
  65.5326226  54.7799965   7.6851013  66.3132646  53.7187346   6.9399098
  52.2266891  68.5248919  34.2350033  52.3004773  68.6368390  33.2872418
  53.0109551  68.9453860  34.5876339  26.3306875  44.5460786   7.2383192
  25.9031427  45.3311964   6.8962267  26.4450918  43.9828478   6.4728716
  62.1517279  43.5169380  34.2553738  62.9291847  43.1418615  34.6690300
  62.3888829  44.4278194  34.0813473  22.6978683  21.5112853  47.0841408
  22.2804666  22.3305511  46.8180323  22.9301763  21.6481304  48.0025816
   2.6956317  80.0280123  46.4249563   2.0646379  79.4678888  46.8769979
   2.4874971  80.9131489  46.7240286  39.7961846  64.4783469   3.1230524
  39.7556808  64.5702143   2.1711329  39.7835567  63.5330840   3.2732084
  35.0163465   3.2013489  10.3582314  34.2950421   3.6398484   9.9069336
  35.7227879   3.1763340   9.7128275  40.8667946   4.9255607  49.8038769
  41.3751268   5.4630774  50.4112530  41.3160706   4.0803656  49.7983885
   1.6740390  41.2063580  14.7869232   0.9862634  41.2303212  15.4522160
   1.4616939  40.4426937  14.2503002  39.4510245  25.7487440  63.6137247
  39.1892791  26.6194439  63.9130592  38.9939594  25.6344891  62.7804995
  47.5000003  72.6475466  56.5936565  47.2012726  72.7310378  57.4992085
  47.4080190  73.5277659  56.2289858  33.9286876  23.6193752  61.6881514
  34.7456050  23.1401443  61.5495396  33.9251566  24.2894554  61.0046244
   2.2349077  34.3571377  42.7657175   1.6666299  34.5496655  43.5115194
   2.5262216  33.4572506  42.9125929  16.5555563  66.8510886  14.3657330
  15.6103757  66.7227503  14.4456986  16.9165507  66.4806243  15.1711395
   3.9677745  16.1088657  63.7242126   4.5035321  16.4146531  64.4561195
   3.0691224  16.1511624  64.0511179  40.1393795  19.6635938  61.2052202
  40.4588890  19.1322637  61.9344902  40.9272242  20.0637126  60.8371973
  33.7538099  36.4346528  45.9259510  33.3688593  36.9218159  46.6544533
  34.4530606  37.0020175  45.6013298  63.8969543  60.9766289  44.8071411
  63.8433435  60.1157566  45.2221802  63.4709480  61.5684291  45.4272392
  15.8565092  36.7909884  43.1497240  16.8047738  36.8924236  43.0676460
  15.5203915  36.9609356  42.2697401  55.5654621  31.8910265  57.3919201
  56.5074539  32.0608211  57.3846054  55.2045631  32.5676560  57.9647684
  75.8240035  23.7364527   1.1198500  75.3608373  22.9383333   1.3742426
  75.1545146  24.4201215   1.1446408  74.9621314  37.5397563  57.9984426
  75.8994120  37.6795888  57.8635931  74.6236378  37.3297334  57.1280718
  76.8433001  59.2100092   3.3310583  77.2987225  59.0897795   4.1643456
  77.5000956  59.0010889   2.6668242   0.2303579  43.3772190   5.5715016
   1.0108617  43.9204790   5.6806448  -0.5004570  43.9698200   5.7474735
  26.7487431   7.3567599  69.8201275  27.2108865   7.2337437  68.9909601
  26.2236309   6.5629286  69.9217224  80.8755207   9.8321652  57.4251699
  80.1480579   9.8701590  56.8042183  81.2247181  10.7232773  57.4398088
  65.3483921   6.1793114   3.5965708  65.5382585   6.7595221   2.8593186
  65.9135490   6.4951207   4.3016222  26.6596460  12.6207757  29.2338490
  27.0931840  12.9949832  30.0008202  25.7585907  12.9390371  29.2889833
  52.8018915   6.3391282  38.9628437  52.8375264   6.7944504  39.8040608
  52.7208900   7.0390250  38.3149174  14.5024910  45.2388819  21.6259506
  13.8556078  45.4671555  22.2935322  14.9745789  44.4925379  21.9951847
   9.4166183  19.3519187  59.4128180   9.4404715  18.5801446  58.8471079
   8.5417402  19.7176588  59.2822266  24.1088986   4.6043326   0.6670979
  24.3953824   4.6900298  -0.2421972  24.9165463   4.6544243   1.1784056
  24.3620920   8.5057801  46.6106510  24.4633055   8.3364314  47.5473022
  25.1900196   8.2197571  46.2247038  79.4668424  53.3191204  31.8547535
  79.5209914  52.7018642  31.1251688  79.2732823  52.7729940  32.6166654
  70.3399509  15.8584762  34.5723772  70.1633423  16.4791024  35.2793884
  69.5544428  15.8877861  34.0261650  82.1250436  75.2944183  54.8304987
  81.8159044  76.1938906  54.9382830  82.4775693  75.0578880  55.6884098
  50.7855084  65.9719010  19.3116501  51.0422471  65.1368924  18.9203957
  49.9853113  66.2178942  18.8475350  40.7693100  35.8077598  40.7049322
  41.1224985  34.9375010  40.8897066  40.4733133  36.1316943  41.5556288
  11.5548816  57.9195507  16.0955265  10.9206965  58.0695685  15.3944233
  12.3545578  58.3484872  15.7909516  41.1512136  42.8850412  67.7353525
  41.5118599  41.9989300  67.7040529  41.4275265  43.2261801  68.5859442
   4.3469643  16.1549832  27.0933941   4.7243499  16.0201956  26.2241200
   3.4044647  16.0486771  26.9644478  81.9470689  33.2972074  59.2079782
  81.6074443  34.1152573  59.5708561  82.5503123  33.5734534  58.5180378
  72.3370975   4.9404837   1.1482695  72.2926729   5.7616879   0.6584910
  72.2644835   5.2044274   2.0654896  71.1696571  30.3851582   2.4407747
  70.6955033  30.0632788   3.2074574  72.0163065  30.6698014   2.7848604
  27.1791267  33.7010121  50.5935764  27.7102685  34.4959331  50.6407404
  26.2794876  34.0183735  50.5150890  29.9450755   2.9802538  39.3679741
  30.5869221   3.5350920  38.9247730  29.9693369   2.1537711  38.8857296
  17.2079527  76.0637045  51.9489908  18.1227422  75.8524799  52.1354771
  17.1677470  77.0187712  51.9986105  18.3923268   2.0503403   6.4351109
  19.3180823   1.8779828   6.2633398  17.9502558   1.8206335   5.6177691
  27.2897816  18.0814517  61.1749935  26.8394756  17.2378695  61.1322641
  27.2848558  18.4015417  60.2729130  77.8608325  63.4254738   2.0001057
  77.4404147  64.2685791   1.8308333  77.4529031  63.1122132   2.8073815
   6.2585139   8.9595915   0.2695492   5.7481789   8.2398869  -0.1016876
   5.6172299   9.4874836   0.7452706   3.7875983  43.7706614  55.8892345
   3.2617944  42.9709578  55.9046793   3.2487330  44.4024467  55.4131031
  27.9051185  31.6190624  52.1559811  27.6991463  32.3259664  51.5443468
  28.8615370  31.6043711  52.1917486  18.6018300  17.4702144  54.0841913
  17.9905617  16.7733574  53.8455009  18.7806594  17.3241556  55.0131226
  82.6895099   1.2836005  33.1303433  83.0680972   1.9842984  32.5993756
  82.0664149   0.8507945  32.5466755  25.8130455  45.2880621  60.3893614
  26.3298607  44.9038935  59.6811581  26.2067151  46.1485624  60.5335808
  19.2988408  40.3396320  54.7974443  18.5120404  40.8811569  54.7347784
  19.7067952  40.4091167  53.9343262  57.3685032  25.8036447  65.5158043
  56.6607815  25.5108714  66.0899544  57.1999174  26.7366838  65.3844738
  81.9161015  18.4768273  24.1618183  82.4194055  19.1768910  23.7460926
  82.5568133  17.7840496  24.3223694  74.9074525  66.9936562  51.8810987
  74.8172456  67.2403145  50.9606361  74.1693324  67.4198580  52.3167133
  10.0800705  22.9100370  60.3483057  10.1610506  23.6729574  59.7759199
  10.9666896  22.5527310  60.3980350   6.2511062   8.8575531   4.4117621
   6.3793540   8.2177664   5.1120880   5.4547953   8.5684945   3.9661530
  58.3418420  58.1365534  57.3229817  57.8763345  58.8734635  56.9273880
  58.8313701  57.7460392  56.5990475   1.7567199  47.3442268  59.9329424
   1.6837597  48.2157850  59.5439720   2.3657952  46.8769789  59.3611526
   3.6802458  10.8381201   4.0960100   3.5714936  10.0317408   4.6001509
   4.6200299  11.0167386   4.1296795  54.2257550  56.5524908  10.5660179
  53.8049867  56.1244818   9.8203638  54.5043567  55.8312269  11.1302784
   3.6403438  25.5567813  66.9318199   3.8729087  24.8982239  67.5863791
   2.7398077  25.8001494  67.1463823  -0.0178743  14.8982026  12.4279431
   0.4964518  14.5762898  11.6876152   0.4816532  14.6327139  13.2000950
  69.3293526  78.4915133  15.5968407  68.8892415  79.2675968  15.9435776
  70.2620700  78.6978336  15.6577423  68.9230635  74.8615261  19.5320919
  68.3015635  74.1341992  19.5010212  69.4455197  74.7643061  18.7359646
  16.0799336   4.4978119   3.1188753  16.7847752   4.2110421   2.5381926
  16.2856936   5.4125334   3.3117083  82.6128679  11.2822367   8.2845572
  82.6017528  10.3391339   8.1212691  82.2218090  11.6658474   7.4996069
  62.8025389  29.1710567  53.6295462  62.3185921  28.5532713  54.1775990
  62.1320772  29.5857477  53.0866432  44.0070772  11.6376603  53.7074995
  43.5358047  12.4687731  53.7656927  43.8472605  11.3337553  52.8140020
  77.6297769  79.4809862  24.1205147  77.9207429  79.8131843  24.9697617
  77.9645428  78.5848852  24.0863827  85.2725222  75.1540180  22.8934220
  84.4357684  75.2914997  22.4493817  85.1315310  74.3774315  23.4349659
  33.1998133  34.3354298   5.9704521  32.9011797  33.9618803   5.1412895
  32.6051068  35.0680663   6.1310747  24.7460127  33.7940502  53.1158876
  24.1715956  33.1270003  52.7399588  25.4615450  33.2976699  53.5131931
   0.8478212  12.8770329   6.2765482   1.2891483  13.2987000   5.5392101
   0.6957316  13.5857274   6.9017294  10.2320409  38.2941031  51.7497873
  10.5264938  37.4455881  52.0807695  10.2976525  38.2158160  50.7980537
  72.2284558  47.9656156   4.1166762  73.0763772  48.4061964   4.0605667
  72.3036673  47.2240212   3.5161665  53.4076860  68.7430163   6.9821146
  53.1425050  68.9811106   7.8704956  53.7044456  67.8359624   7.0557335
  74.7732991  47.7304697  69.7199154  74.9712676  48.6659479  69.7637272
  75.6277376  47.3021460  69.7719002  61.9924047  61.6636964  42.0277432
  62.5253918  61.8573590  42.7988842  62.0487788  60.7131501  41.9302014
  13.5932064  46.0193205  50.3903532  14.4733119  46.3467503  50.2047825
  13.1312013  46.7711544  50.7612085  41.2881866  59.2659505   7.6624563
  41.6320362  58.4148904   7.9339245  42.0573941  59.7505935   7.3630026
  72.1603363   6.5781428  14.7735909  71.2529724   6.6280915  15.0743035
  72.1098476   6.1192442  13.9350823  19.5919013  78.4503269  65.2792740
  19.8817253  79.3613958  65.3261042  18.6537158  78.5064602  65.0979185
  50.9775164  74.3657227  34.9324825  50.7048729  73.5821529  34.4550732
  50.3908828  75.0537916  34.6183899  43.9989343  52.4730333  13.5284451
  44.2912176  52.8442164  14.3609265  43.1373945  52.8633972  13.3814839
  12.0369813  80.6570218  57.0523691  12.0700547  81.0240801  57.9357767
  12.8297994  80.1250148  56.9842196   0.9503707  53.7345314  60.5919981
   1.8475047  53.4317827  60.4515505   0.8609567  54.4939518  60.0162220
  60.1872903  49.5198011  36.6337109  60.7275182  50.2912760  36.4628005
  59.9692923  49.1827726  35.7647347  74.0986258  12.6964748  43.2554579
  74.2074841  12.3187912  44.1282368  74.4143683  12.0172560  42.6594734
  23.2651973  21.3024902  49.8296690  22.4048328  21.6332603  50.0877380
  23.8180375  21.4484382  50.5973291  70.1835969  73.3308121   4.1725138
  70.0465348  74.1926785   3.7792805  69.8347762  72.7152057   3.5278538
  31.3470984  37.7290702  59.3396235  31.3252044  37.5816512  60.2851486
  31.6302323  36.8913746  58.9731073  65.3629511  16.4046790   6.0848501
  65.4697614  17.3282696   5.8572510  66.0815274  16.2225844   6.6904286
   7.2828627  67.6760101  68.1943750   8.0329490  67.1758461  67.8727531
   7.3868787  68.5427952  67.8018284  20.9480753  41.6395820   4.9467114
  21.0455337  40.9743270   4.2654112  21.1637142  41.1829994   5.7598952
  -0.2889196   7.7939755  69.1466379   0.1265880   7.8406382  68.2855892
   0.4036569   7.4843287  69.7303247  39.0150761  23.1065442  29.9861744
  38.9042258  22.7574374  29.1018227  39.0099549  22.3338343  30.5510929
  82.9458457   4.5719124   9.4438341  82.1731692   4.7556187   8.9095572
  82.7763324   3.7087704   9.8213032  35.2888617  56.5145059  28.6143330
  36.2364176  56.4550658  28.7361363  35.1744511  57.2010144  27.9571846
  61.3258031  75.4277321   6.3077906  60.9801748  75.9516044   7.0305184
  61.9442704  74.8261925   6.7223767  23.0761051  26.0555267  31.0262179
  23.9752603  25.9444857  31.3351250  23.1534243  26.0943055  30.0729346
  38.0365649   4.5210510  65.4678154  38.4641644   5.2204471  65.9620237
  37.1142968   4.7759014  65.4412365  10.4620838   0.6339385   8.0945423
  10.1199317   1.4591576   7.7507761   9.7554636   0.0040318   7.9526451
  28.0274987  16.5914297  49.0383101  28.4410977  16.0647571  49.7222567
  28.7297511  17.1538067  48.7114954  70.2193740  79.8377081  19.8057297
  70.8475831  80.1395841  20.4618195  70.3082278  78.8846489  19.8097256
   2.6605987   8.4400202  44.6544483   3.5246253   8.8348319  44.5369271
   2.5818944   8.3130146  45.5999211  39.4164681  35.4313016  62.2135401
  38.9691949  35.4807591  61.3687134  40.2043867  35.9625912  62.0988703
  55.3621939  54.0650018   0.9433010  54.8805311  54.0352209   0.1166514
  56.2781694  54.1633149   0.6833819  41.9462421  66.7785188   8.9923361
  42.5957921  67.4059292   8.6750439  41.1610129  66.9659539   8.4780243
  83.1969767  17.7138545   6.7163685  82.8141266  18.5609938   6.9444397
  83.9884477  17.6568009   7.2516707  39.7640681  25.8881855  60.5758190
  39.7710991  26.7595840  60.9718609  38.8904309  25.5460143  60.7653189
  58.2893946  70.5684896  27.7413300  58.1678584  69.6190472  27.7369812
  58.7392357  70.7485958  28.5668209  28.5165095  52.5456095  65.5923223
  28.2259917  51.6335678  65.5953264  29.4705081  52.4932909  65.6504774
  60.4279950  66.2439366   9.4960097  59.5904210  66.4605542   9.0864065
  60.4703739  65.2882214   9.4636419   0.7531976   4.7420336   8.4227350
  -0.1144004   4.3382479   8.4011629   0.5803203   5.6829573   8.3909825
  14.3549418  37.1084429   6.2574318  13.6894202  37.7813794   6.1143616
  15.1038002  37.3975016   5.7360056   1.6576412  79.1758152   4.6505669
   1.5653875  79.2538353   3.7010220   1.1283162  78.4122129   4.8806933
   9.2155230  72.8598499  52.8335047   9.6539181  72.5892210  52.0267820
   9.4744086  72.2021770  53.4790039  22.8912377  25.4389334  66.8078184
  22.7787161  26.3841176  66.9087887  22.8138328  25.0922132  67.6966524
  12.8155458  31.1085176  67.2498846  12.0293248  30.5760980  67.3707819
  12.8593564  31.6529226  68.0359745  17.5934064  25.6179595  69.4928837
  18.0439901  25.9355164  68.7103462  16.7455292  26.0619283  69.4778156
  83.2058936  41.0733725   2.4717453  83.5356837  41.4061953   1.6370609
  82.5653272  40.4055335   2.2270182  22.5461149  33.1159401  47.3124409
  22.8304577  32.8215098  46.4471722  21.8657160  32.4922562  47.5660276
  78.7185675  40.6754112  33.6774087  78.0433416  41.0145473  34.2650199
  78.6070633  41.1768484  32.8697205  13.8880813  54.4349527  67.2378016
  14.5636010  54.6927977  67.8650331  13.6348641  55.2523899  66.8089628
  24.9101496  33.6938262  60.4117441  25.4487443  33.4108233  61.1506987
  25.3226137  33.2921672  59.6470404   9.0842295  48.0788994  41.2871456
   9.6514618  48.5398626  41.9051981   8.7019455  48.7726021  40.7496738
  11.3788962   4.5409657   9.0496519  10.7644891   4.9258639   9.6746233
  12.1711516   4.3785740   9.5616940  79.0933161  13.4244038  12.9234055
  79.8376160  13.1199576  13.4426048  78.4374648  12.7335001  13.0169132
  56.2363508  80.6899377  10.1633957  56.0951259  79.8134442  10.5212334
  56.7158201  80.5414935   9.3483475  52.9265120  71.4530536   9.0310744
  52.2379902  71.9361516   8.5741404  53.3972385  72.1209451   9.5296410
  73.8728923  43.4171486  52.8445625  73.4149212  44.2358065  52.6540518
  74.8004359  43.6341572  52.7507401  10.1741731  34.5046711  56.1172342
   9.5149219  34.7520757  55.4688406  10.9438169  34.2700267  55.5987501
  52.3008230  50.9629663  21.8542603  51.4696958  51.3752302  21.6186836
  52.2407439  50.8259745  22.7996948  66.0806349  68.8531085  22.8087166
  65.6690195  68.1708594  22.2783020  66.3341787  68.4076734  23.6171368
  15.7486796   4.0764166  14.6645954  16.3472628   3.3500887  14.8388794
  15.6764340   4.1035820  13.7105110  15.4115701  23.7916732  69.7209740
  14.7676551  24.1530371  70.3300905  16.1685348  24.3721223  69.8004484
  84.8066288   0.4487397   1.9295672  84.8903924  -0.3802799   2.4006727
  85.3422909   0.3334023   1.1447170  15.5017054  47.5561047  57.3486662
  15.2443969  48.1858158  56.6752529  16.0440791  48.0613327  57.9543161
  79.0603548  30.6480004   4.0657261  79.4229346  31.5338398   4.0583685
  79.0204983  30.3978421   3.1426504  69.9145370   6.5651394   4.4481447
  70.7076793   6.4323355   3.9289931  69.3479782   5.8306242   4.2120817
  17.8258955  63.8256407  46.3364935  18.7718451  63.7212992  46.2339020
  17.4609280  62.9846096  46.0613632  76.6929295  75.1516100   7.8465775
  76.9486335  74.3047758   7.4808958  76.2102225  75.5814524   7.1405581
  67.7884727   8.1947018   3.2168225  67.6777547   7.6199175   3.9741781
  68.7342220   8.3281018   3.1536082  29.4403294  76.0375186  35.8108834
  30.3261322  75.7126375  35.6495217  29.3849265  76.1192485  36.7629746
  53.8950422  64.9193903  21.4810684  53.5721567  64.6523114  22.3416737
  54.1219595  65.8433028  21.5865353  24.1746115  29.8031594  15.1626995
  25.0191807  30.1133992  15.4893234  24.3050646  28.8668038  15.0128582
  26.7042828  42.8488302  68.4217978  26.1939645  42.0703173  68.1988144
  26.7498922  42.8395748  69.3778658  36.8340468  29.0611815  13.0859876
  37.1673608  28.9420438  12.1966410  37.3407531  28.4459829  13.6160922
  49.9323845  34.3425369  67.7758074  50.7035160  34.2543912  68.3360052
  50.0283766  35.2041197  67.3699856  61.9811153  56.2860203  65.3796482
  61.8698835  55.5520487  65.9839201  62.5927067  56.8723822  65.8250427
  73.5151389  64.0004392   6.4306238  73.1177047  63.4267159   5.7755497
  74.4574931  63.9050480   6.2924174  27.1973343  68.8671919  14.0002087
  27.3928834  68.9491530  14.9336270  26.5215239  69.5254632  13.8383702
  21.9826749  60.5662866  13.4082344  22.3825827  60.0525447  12.7065399
  22.7081004  60.7717605  13.9979580  57.3549106  42.7204589  21.3351563
  57.6188257  41.8673133  20.9905937  56.6407373  42.9996469  20.7622364
  60.2148425   5.4013945   4.0286854  60.5123752   6.1873652   4.4868925
  60.9000173   5.2264048   3.3835915  59.7804862  27.5519682  17.6036671
  59.2520597  27.5491358  16.8055466  59.2474962  27.0826746  18.2454708
  26.2927318  39.1640472  49.5061779  27.2170997  39.3190145  49.3118572
  26.2728405  38.9811850  50.4455376  85.7329657  73.3590360   2.7628163
  86.4476588  72.8132697   3.0908230  85.1283315  73.4311887   3.5013560
  26.1072969  43.8744307  64.6414471  25.9065199  43.6565399  65.5516386
  26.8237209  44.5066214  64.6989441  72.5808364  13.4017016  18.2356098
  73.2579058  13.8942505  17.7717045  71.9048994  14.0503718  18.4320000
  32.3036885  33.4937859  60.3841734  32.1704412  34.3399668  59.9570227
  33.0319571  33.0964875  59.9066687  53.0136564  63.8458725  14.2252186
  52.8321531  63.0213757  13.7741211  52.2852280  64.4172974  13.9821175
  54.7301677  68.0512329  24.6918896  54.1979339  67.9112693  25.4750660
  55.0639942  68.9434405  24.7854641  28.3018566  75.6963392  10.9718445
  28.4337614  76.0460921  11.8530396  28.4099748  76.4527198  10.3952721
  23.8965726  35.9655595  38.1345081  24.4875550  35.2128291  38.1153083
  24.4037080  36.6782069  37.7456880  82.4523166  61.5131814  25.9992075
  82.5121406  61.7883736  26.9140410  83.0236724  62.1201212  25.5286670
  35.6198892  51.1622449  12.7384976  35.2775147  52.0057400  13.0343464
  36.4316579  51.3805278  12.2806576  41.5668147   1.2519003   2.4430111
  41.4987319   1.7339732   1.6188791  41.7364984   1.9257332   3.1013373
  40.4062796  27.7151942  49.7252560  39.8337030  28.2713580  50.2535248
  40.2257490  27.9751635  48.8218975  36.5137076   2.2554556  64.2589521
  36.0401249   2.8015551  63.6314774  37.2380996   1.8847121  63.7549305
   6.5845227  22.7901722   0.5661801   6.6347265  22.6428009   1.5106323
   6.2224364  21.9763638   0.2156952  28.2347345  25.9338951  62.4110508
  27.5767374  25.9797835  61.7173910  27.8257728  26.3703537  63.1583691
  66.4845660  64.8972674  23.4075382  65.7178810  64.4634457  23.7820080
  66.1786416  65.2423759  22.5687721  51.5277349  19.5120789  14.6881130
  51.1732608  20.0293137  13.9648941  51.9163161  18.7456109  14.2664841
  40.3234911  14.1057801  52.3809385  40.2577448  13.8449645  53.2995701
  41.1546183  14.5772660  52.3247194  39.3116641   1.6948105  24.3104294
  39.2256188   2.5370718  23.8638619  39.7510218   1.9044663  25.1345852
  51.4208317  38.9144993  69.6630383  52.0524120  38.8700938  68.9451456
  51.3703775  39.8453188  69.8804283  28.9658260   9.7572678  29.7037077
  28.8675165  10.2264392  28.8751888  29.4658971   8.9731777  29.4770694
  47.4464083  17.1606791  66.1260939  48.0807686  16.9226396  65.4499674
  47.9807138  17.3778462  66.8900204  17.3320046  71.2835904   6.0658816
  17.3927834  72.2269150   6.2164810  18.2415178  70.9867426   6.0359028
   0.9225869  49.7563769  15.7314327   1.1056637  50.0971629  16.6069725
  -0.0320888  49.7709967  15.6635121  78.9768332  33.2574940  36.3648272
  78.2690310  32.7415133  36.7508507  78.7115484  33.3842230  35.4538965
  64.2900764  32.1504952  24.5595101  63.6753207  32.1607329  23.8258866
  64.1397172  31.3069750  24.9862412  52.8144646  21.2006474  62.2719049
  52.0672655  21.5622306  62.7485466  52.6823854  21.4855909  61.3676977
  14.3940404  70.6674023  15.8201054  13.5962811  70.3106161  15.4295757
  14.8690179  71.0534735  15.0841931  12.5747036  20.7140376  24.3610123
  12.6671624  20.4024102  23.4606960  11.7678380  20.3053023  24.6742657
  19.1299557  12.9491307  14.6597985  18.4083437  13.5372092  14.8826817
  19.8938632  13.5220171  14.5928601  67.7301317  27.9435898  27.0960167
  68.6588853  27.7167441  27.0492390  67.3898476  27.7407338  26.2246445
  29.7353291  20.2715517   7.2130707  30.6178402  20.0085427   6.9518450
  29.2993664  19.4512249   7.4437884  11.2251493  63.4238883  20.8576039
  11.6652128  62.6908084  21.2879112  10.2961370  63.1949302  20.8848408
  84.0076929  62.0707442   9.8167351  84.8933654  62.3448016   9.5785979
  83.9986687  62.0947958  10.7735851  14.6561551  25.8327509  12.6871422
  15.0951838  26.2316395  13.4383896  13.8849616  25.4052712  13.0596379
   1.7774078   4.2427688  57.8138161   2.6351568   3.8916832  58.0530500
   1.4679977   3.6646610  57.1164703  62.8561211  54.9098730  50.1228237
  63.4987879  55.4018879  50.6338358  62.3307753  54.4500160  50.7776356
  27.2104272  51.8905683  11.1449936  26.3115571  51.6074200  10.9773949
  27.7172813  51.0788449  11.1658886  77.4599486   6.2710263  12.7537945
  76.8577772   5.9091546  13.4039238  76.9094008   6.8231179  12.1985176
   7.4033546  43.6358261  68.3986759   7.2842979  43.4295559  69.3257761
   8.3322245  43.4731340  68.2344723  61.5364888   8.1798702  36.1909032
  62.4931195   8.2108837  36.1796355  61.2686875   9.0911728  36.3093853
  67.4465423  50.5848528  15.9367016  67.2809594  51.1226775  16.7110089
  67.0877039  49.7261073  16.1603668  52.6212793  30.1358773  18.4113625
  51.7310410  29.8883225  18.1615093  52.5442179  30.4198004  19.3222264
  82.1075493  15.1414896   6.1753252  82.6670008  15.9053685   6.3158110
  81.2360435  15.5074145   6.0242966  50.5184412  75.4097271  58.7103891
  50.8292437  74.8750591  57.9797983  50.1027679  74.7849321  59.3045950
  15.6045365  15.1741101  20.0821331  15.5150675  16.1141230  20.2389744
  16.1313176  14.8578907  20.8161286  28.4249425  63.8095617  57.1130323
  28.8718748  63.2375717  57.7369785  29.0854096  64.4568014  56.8658495
  21.7689919   3.2741858   2.2306374  22.3019433   3.8315894   1.6636303
  22.4043059   2.7374484   2.7044705  57.1264935  54.5496035  58.4090853
  56.7139292  53.9411736  59.0221405  57.1994305  55.3693914  58.8978148
  85.1151496  21.2636830   7.9147604  84.3071633  21.7768504   7.9077604
  85.6698375  21.6812970   7.2558573  63.7438768   1.2327553  14.3567303
  64.5567196   0.7395245  14.2460850  63.1255042   0.5975081  14.7177151
   1.2207460  32.7837731  56.4426163   2.1025848  32.4446274  56.5961388
   0.6396889  32.0959736  56.7674759  31.6645055  13.1205155  13.9425781
  30.8476024  12.7941061  13.5652760  31.5888673  12.9311348  14.8778084
  60.6837797  26.3023663  65.8854914  60.8947277  26.0493565  64.9867582
  59.8017406  25.9597898  66.0299921  76.5900021  21.7518355  10.6957749
  77.3594051  21.2001063  10.8366516  76.0990089  21.6919114  11.5152672
   5.3987503  20.4194857  -0.0099632   5.3349852  19.8368861   0.7468346
   4.6365141  20.2003027  -0.5458566  47.2884964   6.6871859   5.9899309
  47.6059746   7.5894238   5.9523657  46.3690781   6.7457892   5.7301882
  56.2994149   5.1954990  44.5971298  56.3247278   6.1296898  44.8042250
  55.6032422   5.1134449  43.9453316  12.3145747  18.0483557  49.7519901
  11.3862681  18.1092669  49.5266560  12.3590779  18.3360411  50.6638458
  29.4143724  36.8422365  65.1609612  29.1611147  37.5463152  65.7579279
  29.0379667  36.0522795  65.5489302  63.7831622  10.6012274  25.7494000
  64.1654974  11.1426569  25.0588158  64.2008495   9.7466160  25.6425980
   6.4354229  19.2332817   5.1040629   6.8818140  19.0210654   5.9237745
   6.9078469  18.7340523   4.4378641  83.2653814  10.7829453  19.4227722
  82.5231748  10.9701516  19.9975041  83.9361435  10.4275347  20.0058678
  78.5673383  78.4983941   8.3005884  78.7714484  77.9688664   7.5297669
  77.6340392  78.3500143   8.4528092  71.1921077   0.9456660  19.4761494
  71.0014897   1.8736674  19.3393734  72.0831233   0.9331585  19.8256806
  67.0482826  62.7001333  50.7937002  67.5151443  63.2830286  50.1949453
  66.1308908  62.9621220  50.7163334  59.2861798  12.7697521  62.5795937
  60.0386813  12.2129017  62.3798847  58.9337113  12.4127918  63.3948088
  49.8172572  13.3082157  55.7349014  49.4936254  13.4917884  56.6168261
  49.1204598  13.6158996  55.1552057  58.9892700  -0.0803227  56.5353680
  58.7098029  -0.0321240  55.6211424  58.8426497   0.8015590  56.8774509
  78.1751966  31.8210077  66.0837317  78.5473680  32.7017546  66.1285210
  77.5126886  31.8756771  65.3950167  68.5235336   7.8225952  60.3593636
  69.0394070   7.1256214  60.7647467  67.7208784   7.3889404  60.0696707
  63.9128020   6.6570812  49.9763870  64.8028186   6.8615680  50.2632427
  63.9559868   5.7433181  49.6945858  69.7534924  28.3061148  18.8795593
  69.0828949  28.2824685  18.1969383  70.3520649  29.0001227  18.6033371
  65.3933623  72.1032019  16.2438515  65.6521156  71.3465496  15.7177761
  65.9439590  72.8174849  15.9231117  31.4394211  39.5665003   7.2031620
  31.7038750  40.4858805   7.1710470  30.4889178  39.5943667   7.3127058
  10.6056547   1.1403967   3.0062512   9.7812247   0.8964135   2.5855139
  10.3414964   1.6363074   3.7811878  51.4863968  66.9022894  58.2164764
  51.1255884  67.5442219  57.6049423  50.8191824  66.2177753  58.2664824
  31.1587667  65.0018740  54.1713762  31.0967469  64.7913790  55.1030827
  31.1583638  64.1509390  53.7330389  44.7680044  72.7452230  66.8250322
  45.6019258  72.8205776  67.2888517  44.1053581  72.9153061  67.4945116
  80.4057789  63.7344980  58.6247683  80.5119991  62.9398155  59.1476727
  79.5875645  64.1198730  58.9382029  47.8993979  58.4178193   2.3287991
  47.7659061  59.0773781   1.6480663  48.3437660  57.6979490   1.8809632
  21.0410333  72.5717211  59.7952223  21.1427307  73.5185909  59.6986103
  21.6645312  72.1990252  59.1718626   9.2299842  10.7018448  10.2708748
   9.7822880  10.6823327   9.4893339   8.3392190  10.5942704   9.9374130
  27.9710269  11.4148070  24.8902348  28.9235234  11.3202836  24.8831967
  27.6834845  11.0034062  24.0751866  42.6371661  79.5988818  18.1224850
  42.3044839  80.4365321  18.4448078  42.0960048  79.4047447  17.3571804
  12.4516987  27.3322369   7.3878887  12.8055596  27.6875473   8.2032231
  12.8896355  26.4873578   7.2848252  40.9730029  34.4403340  17.1266297
  41.8139624  34.2511584  16.7104271  40.4961276  33.6111571  17.0908001
  44.4484642   7.7345520  58.7728977  43.8234988   7.9961830  59.4490623
  44.3756929   6.7808490  58.7355947  78.4737685  74.6519132  14.4275311
  77.6341203  75.0701376  14.2369965  78.6284592  74.8363753  15.3539684
  34.2744136  72.2057199  65.9612370  33.9332628  72.4226379  65.0935984
  35.0098753  72.8054762  66.0862350  49.6801233  27.2164917  50.8109045
  49.8802614  26.7806888  51.6393089  50.3201580  27.9258561  50.7527065
  81.1602166  63.3967419  24.4897392  81.5966275  64.2481752  24.5187500
  81.1030391  63.1255599  25.4059342  59.7572449  79.6603819  16.4758709
  59.7202518  80.5633326  16.1603668  59.3786218  79.1426917  15.7653263
  14.6162057  38.2492232  55.3024626  15.0722194  37.4282265  55.4875231
  14.5034099  38.6591315  56.1600685  39.3726325  67.6337051  50.6864691
  38.7933683  67.0338774  50.2164698  38.7805510  68.2507515  51.1164951
  10.0535500  66.5749216  67.6810598  10.2584124  66.4218950  66.7586422
   9.8126400  65.7124424  68.0191803  22.9405283  61.9388033   9.7639349
  22.6575970  62.3704840  10.5700615  22.2142386  62.0699622   9.1543940
  60.7186511  10.2811485  48.6898994  61.2961438   9.6487003  48.2624054
  60.0651052  10.4966121  48.0245543  64.5557445  24.9790551  35.2334336
  65.3228551  25.5283095  35.0719002  64.7349178  24.5587899  36.0745648
   5.7183408  37.5088431   1.8610552   6.3938617  37.7775361   2.4837187
   6.1156821  37.6485516   1.0015038  32.9514289  47.9032040  69.4687223
  33.2034826  46.9807482  69.4266844  32.0276308  47.8879166  69.7189188
  37.7760744  55.1693964  69.6606684  38.5433459  55.5783558  69.2603207
  37.0413470  55.7175970  69.3852043  36.4357090  68.9954281  57.3938894
  36.4074397  68.6275530  56.5106535  35.9920764  69.8400211  57.3158741
  68.6283398  64.4826412  66.9218206  68.2400894  65.2363157  66.4774513
  69.5384789  64.4726229  66.6255474  59.0444448  80.6179782  25.9951046
  59.7059729  79.9265571  26.0185078  58.7310365  80.6802388  26.8973950
  35.4608321  63.6926794  43.1250715  34.7897434  63.3386326  42.5415277
  35.1364231  63.5038471  44.0055990  16.5187478  31.8577506   4.2090681
  16.3938403  32.0972897   3.2907799  15.9759926  31.0785223   4.3292931
  13.0750107  20.6981541  21.3532189  12.9078650  21.6231753  21.5338639
  14.0276694  20.6359841  21.2839058  35.2861047  73.7192488  52.8888226
  35.6472993  72.8572512  52.6821041  34.4860554  73.5322046  53.3799124
  22.6652861  33.2231402  63.6439085  22.8123784  32.4805546  63.0581093
  21.8455744  33.0156231  64.0925074  64.6027284   8.0317713  25.4185513
  65.1747089   7.8595997  24.6706036  63.7974595   7.5542523  25.2191761
   2.1325373  21.9304587  23.3381203   1.6832256  22.3674799  22.6146820
   2.6886606  22.6095845  23.7198857  40.3748345  43.7377669  18.4492043
  39.6242594  43.8324667  17.8627804  40.4497456  44.5884253  18.8816384
  58.2730532  59.4505167  41.7838001  58.0085945  60.3632212  41.8989706
  58.8429642  59.4614935  41.0148335  55.0078729   7.4038559  66.5842676
  55.2861789   7.0050293  65.7598257  55.0823286   6.6995578  67.2281933
  74.3804878  37.7794027  64.8606777  73.8063365  37.0846963  64.5382404
  73.8172084  38.3161926  65.4181767   9.8504853  13.6045481   5.1290920
   9.4563388  13.3796336   4.2863062  10.5991220  14.1567685   4.9036339
  40.6163006  19.1243864   6.4816597  41.4795607  18.8159062   6.7570761
  40.7689613  19.5349051   5.6305435  16.8291783  34.1879345   0.2762011
  16.7993664  34.4108416  -0.6542036  17.5924706  34.6586491   0.6109265
  39.9973511  30.8181788   2.2523812  40.4039359  30.9519650   3.1085470
  40.6804299  30.4041459   1.7249182  16.0444441  67.3224779  25.7436588
  16.8030038  67.5136443  25.1920536  16.3813355  67.3682972  26.6384438
   0.6834814  64.2241450  18.3517769   0.5218336  64.9108382  17.7048233
   0.1885816  63.4706350  18.0300167  29.5400500  26.5192152  10.7547501
  30.3620314  26.7275740  10.3107193  29.1972088  27.3679425  11.0346726
  49.8237210  21.8002011  15.8236912  49.3113619  21.6089608  15.0381020
  50.2082866  20.9588314  16.0695294  32.5497460  31.7480732  28.3572033
  33.4701943  31.9730927  28.4927490  32.2994542  32.2284438  27.5680092
  28.9386129  72.2697115  60.1594591  28.4663725  71.8484926  60.8776474
  28.7618136  73.2037115  60.2717733  55.0540858  74.1657066  60.9596109
  55.4248625  73.3388186  60.6513691  54.2162305  74.2377090  60.5024004
  48.0198336  70.0529003  69.5111513  48.6348438  69.3346977  69.3622112
  48.1034565  70.2502584  70.4440403  40.5094936  70.1976343   8.4475115
  40.9086778  70.4183932   9.2890242  40.5071488  71.0214253   7.9600743
   9.2832160  34.4935919  38.6526612   9.1617655  33.5610415  38.8310745
   9.0490841  34.9269463  39.4734123  13.4378731  60.0666666  54.1115093
  13.0833089  59.3699217  54.6638346  12.6662946  60.4897022  53.7347603
  42.0273161  62.3542786  44.9985743  42.6220989  63.0086899  45.3649235
  41.9767666  61.6739893  45.6700468   2.9415679   7.9514958   8.3854511
   2.9393434   6.9949843   8.3492783   2.9483509   8.1558014   9.3205717
  16.9231868  70.5270576  46.1482620  16.0127890  70.3233576  45.9339905
  17.2239232  69.7737885  46.6565657  64.5069497  27.8069712  16.7145470
  64.7547227  28.5743500  17.2302654  63.8453406  27.3644949  17.2462586
  10.2026102  10.8311802  57.8764915   9.9572298  11.0413414  58.7775183
   9.5097276  10.2463108  57.5697756  81.2290316   4.2196347  22.7927426
  80.4880672   4.8000599  22.9668453  81.9992190   4.7807957  22.8829792
  46.0403016  75.7939597   5.7662991  46.6026011  76.1143680   5.0610426
  46.4005771  76.1912795   6.5591267  83.3433800  17.3703839  29.4169834
  84.1277533  17.7486731  29.8143318  83.3598691  17.6810051  28.5117367
  68.3545542  64.0200043  48.7042618  69.0609455  63.4297037  48.4419823
  68.6547375  64.8877573  48.4338379  59.3012928  58.7215544  36.1687973
  59.5613884  59.4828154  35.6500843  59.9295449  58.6975504  36.8905667
   0.4721999  15.2652384  17.0792893   0.4227471  14.7491147  17.8838947
   0.5310940  16.1721541  17.3797157  45.5545950  67.0238256  63.6088276
  45.1974249  66.3669395  64.2064524  45.5404377  67.8381157  64.1117859
   4.7481030  72.3328829  53.2804108   5.4956949  72.6121902  52.7518988
   4.9317715  71.4171600  53.4900618  53.9411282  -0.1077055  -0.2956316
  54.8243451   0.2205731  -0.1271650  53.4849858  -0.0076555   0.5399302
  22.0274949  35.6280161  48.4973553  21.8519330  34.9848153  47.8105477
  21.4544320  35.3699566  49.2193249  47.9674220  12.7260710   2.8446558
  47.9901289  13.1643750   1.9940022  48.3200860  13.3722140   3.4565047
  32.6291871  11.9027211   5.1613882  32.2739195  11.4080264   5.8998278
  31.9267201  12.5050379   4.9164656   0.7403871  75.9857841  13.7570790
   1.0288402  75.7697149  12.8703240   0.2064392  75.2376123  14.0242317
  17.3846042  59.7388172  66.1897564  16.8200576  59.2873144  66.8171787
  16.7779148  60.1447201  65.5705595  20.0430274  24.4757344   7.8435496
  20.0821995  23.5627200   7.5587633  19.1081786  24.6556784   7.9430941
   9.6602461  77.3733159  17.4358872   9.6738407  77.0618196  18.3408764
   9.7532674  78.3232423  17.5081185  51.7321014  70.9199905  64.0431595
  52.2297859  70.1023817  64.0355730  52.3805761  71.5969181  63.8495684
  38.0172944  17.0836855  24.6195248  37.3556399  17.1061017  25.3108624
  37.7319550  17.7489592  23.9932469  65.8183601  13.3348709  38.4372830
  65.7167986  12.4268394  38.7225842  66.7638543  13.4839206  38.4446573
   1.5619826  20.6459977  29.0801838   0.7038736  20.9325720  28.7675217
   2.1069455  21.4317919  29.0379933  17.5107789   2.6855589  12.6388386
  16.6308188   3.0140711  12.4544838  17.3673129   1.8278338  13.0387905
  62.9836538   8.2042270  55.0342131  63.1363347   7.3657661  54.5984459
  62.0564559   8.1856208  55.2712631  48.1609049  -0.0083584  53.6966610
  47.5460127  -0.0362629  52.9636097  47.7330520   0.5485016  54.3471050
  41.1959713  23.8430907  35.6269959  42.0644718  23.5437323  35.3580597
  40.8418434  24.2782475  34.8514584  60.0824308  78.9260292  44.4656467
  60.3271294  79.8017502  44.1665411  59.8603392  79.0418339  45.3894949
  83.4437113  41.9928099   5.2072361  83.5452991  41.5906455   4.3445805
  84.3278485  42.2693469   5.4481915  29.0635207  25.2031952  54.6966314
  29.3310875  25.8039432  55.3921413  29.7703345  24.5593124  54.6512413
  16.3911461  24.5567347  23.8101700  15.9794449  23.7345816  24.0762451
  16.4622902  24.4917561  22.8578308  67.4504805  68.9080620  63.6646748
  66.6764593  69.4676638  63.7276459  68.1558418  69.5027208  63.4095716
   6.6541600  61.2992026   9.7518328   6.2526583  61.4272524  10.6112698
   7.4910068  61.7605521   9.8072842  60.9764862  71.0288239  54.7638369
  60.3288364  70.9312725  55.4618835  60.9941149  71.9686365  54.5830965
  68.8683703  30.2446323  62.6755953  68.2936457  31.0052257  62.7616882
  69.7171262  30.6124073  62.4294662  81.7553761   9.6838718  35.4803538
  82.6113370   9.5019298  35.8682394  81.8275168  10.5794292  35.1501751
  76.5938883  17.3750235   7.3149088  76.3987988  17.6375987   8.2144812
  75.8141952  16.8983818   7.0300892   0.8603715  35.8451344  10.0744084
   1.6900610  35.5578972   9.6931723   0.6513524  35.1753546  10.7255104
  31.4850497  35.8493115  27.1288231  31.5266585  36.6813113  27.6002815
  31.0324931  35.2564312  27.7287510  22.6582312  25.8575512   0.7031420
  22.5106692  26.5894104   0.1041105  22.9861235  26.2661244   1.5042570
  59.0610504  61.7572212  65.4699469  59.1052055  61.7677021  66.4260674
  59.9245930  61.4503288  65.1936483  42.0129395  65.7777882  59.9027014
  41.9125175  65.0911093  60.5619574  42.8633356  66.1725426  60.0956583
  73.1786013  80.3848362  35.8133769  73.5500479  79.5317221  35.5887365
  72.3261356  80.3969955  35.3781891  52.7120447  64.9278688  45.6222057
  53.1208611  64.4696951  44.8879194  52.1725082  65.6039143  45.2122068
  56.6016030  29.0297295  11.5723541  57.1904206  28.3251549  11.3019779
  55.7595467  28.5971238  11.7138222  11.6008970  18.1990200  35.5903721
  10.9654161  17.7980953  34.9973702  11.5364954  19.1371875  35.4117060
   4.9657225  32.2513653  20.4634598   4.3771743  31.8096138  19.8513249
   4.3866086  32.6101757  21.1358479  40.7349396  61.2928534  70.0129604
  40.5761147  61.9223547  69.3095875  39.9317479  61.3075638  70.5334377
  42.6858401  42.1869208   5.5864504  42.5499224  41.2816073   5.8660248
  43.0501771  42.6232840   6.3565663  32.8829646  71.9292831  41.3845778
  32.7033091  72.8693295  41.4009142  32.9051661  71.7058182  40.4540920
  74.5573645  53.1684233  10.9246662  75.1176482  52.6696230  11.5192345
  75.1566833  53.7621523  10.4724148   6.0378527  39.9919058  37.4212959
   6.3819098  39.1035534  37.3281315   6.5324544  40.5082823  36.7849377
  69.9431372  44.2799330  66.2423325  69.5094681  44.7303104  66.9671249
  69.2325878  44.0506792  65.6433344   8.5929939   2.6818805  33.9536333
   8.2494995   3.5552650  34.1419053   9.2026922   2.8156047  33.2279491
  85.6380179   4.5230632  50.2514982  86.1297801   4.1228061  50.9685707
  85.2259686   5.2927452  50.6439829  21.8671584  43.8725401  14.5834377
  21.8739914  43.5060717  15.4676846  22.1652483  44.7751547  14.6959522
  82.4547195  62.2963953  56.9426441  81.5268707  62.4781179  57.0919847
  82.8992271  62.6854610  57.6958179  85.5769497  41.2404753  16.5877751
  85.6448942  40.3337981  16.8870381  85.9692197  41.7554594  17.2928646
  83.7005952  80.1686593  17.5572708  83.2094910  80.4472299  16.7843273
  84.0204909  79.2941876  17.3354653  36.7027497   5.3663660  17.5265434
  36.3027977   5.9284617  16.8629769  37.4824404   5.0102974  17.1004894
  18.9573168  35.8095814   0.3819063  18.4060835  36.5186669   0.0509051
  19.7791123  36.2373949   0.6224468  56.9904518  64.1302872  58.0661249
  56.0340452  64.1615629  58.0430222  57.2565794  64.2663860  57.1567917
  21.6788458  42.4851920   9.2831877  20.9676098  42.8668238   8.7686709
  22.0060277  43.2108714   9.8147610  65.8196884  18.4718539  24.8952225
  66.6930562  18.8218094  24.7191742  65.3591775  19.1869189  25.3343514
  77.8030634  77.8574324  58.9413929  78.1484509  77.5433779  58.1057453
  77.0923519  78.4510040  58.6989164  47.3003912  72.6541424  42.1989107
  46.9682455  71.8235111  41.8583870  47.7298641  73.0658293  41.4490414
  19.8668837  43.2255293   7.3648098  19.5203566  42.9160429   6.5279272
  20.0757956  44.1469790   7.2114971  56.0967875  41.8413877  59.4749308
  55.3686285  42.1695995  60.0024700  56.8419266  42.3851299  59.7305584
  29.5845243   2.4737220  67.1604156  30.3966924   2.8406673  67.5096369
  29.2403433   3.1575542  66.5858364  37.9076600  20.5477644  14.6676090
  37.9479861  21.0096909  13.8302162  38.8020586  20.5873467  15.0062969
  39.2050004  77.5115442  49.4762087  38.4382796  77.7120066  48.9393806
  39.8531628  78.1688023  49.2229700  27.7719044  35.1499630  24.2780045
  27.8574347  34.2692305  23.9129952  27.5300860  35.6966235  23.5303906
  33.2632709  76.1164951  22.4823666  34.1455221  75.8773279  22.7663755
  32.9606080  75.3607464  21.9789076  46.9033026  26.5420367  10.5449990
  47.3211026  26.4310194   9.6909741  47.6312184  26.6741444  11.1523751
  32.9954338  67.7607298  57.1108532  33.5440469  67.2034121  57.6628065
  32.7091694  68.4656000  57.6917505  29.4493269  50.4814936  25.8726910
  29.1633248  51.1971308  26.4403942  29.3722987  49.6982027  26.4174393
  63.2352069  18.6366039  48.4408379  62.8298476  17.9990821  47.8530645
  63.7779858  19.1788154  47.8684473  56.5785933  73.5837078  55.1715660
  56.6259098  73.2284641  56.0591412  56.5327835  74.5317888  55.2951622
  34.6461630  80.2241611  53.7736702  34.2605376  79.7390938  53.0441284
  35.3333592  79.6477461  54.1079378  74.7253323  62.0070362  66.5929270
  73.9323521  61.8049383  67.0894766  75.4355907  61.9148016  67.2279549
  79.8975375  79.8608585  33.9076164  79.3443110  80.5807610  34.2107800
  80.6238797  79.8382064  34.5306233  40.4949641  30.0084807  10.2584007
  40.0519681  30.5988385   9.6489266  39.7918248  29.4750811  10.6289700
  58.6541345   8.8737636  52.7516842  58.6645296   8.4386402  51.8991661
  59.2762640   8.3760505  53.2822227  66.1193800  66.8124342  41.4323664
  66.2185097  67.2397947  40.5816221  66.1355114  65.8762693  41.2334585
  31.3529607  30.0181442  46.9991064  31.2595388  29.1272216  46.6618395
  32.0627329  30.3972870  46.4807320   1.3495445  46.6322924  17.8701523
   1.1609029  47.1306254  18.6653355   2.2640371  46.3661505  17.9655674
  56.1560154  78.7652969  66.5234184  56.7890263  78.7735462  67.2413731
  56.6308308  78.3744097  65.7899427  63.0184057   1.0900360  65.7572365
  63.8986447   1.2447696  66.0999680  62.4343112   1.3710457  66.4615774
  28.9304423  12.0060278  10.3671959  28.0858016  12.3469235  10.6614807
  29.5562386  12.3209597  11.0194424  25.9307265  65.7383849  13.0217865
  24.9810004  65.8213259  13.1076554  26.1349034  66.1707236  12.1925476
  25.6638360  64.0173460  19.2968872  24.9635148  64.5455767  18.9137963
  26.3544440  64.0182520  18.6340931  45.7690954  78.3703804  56.0144329
  45.1037693  77.7053642  56.1914444  46.2714434  78.0171108  55.2802134
  83.0906516  15.8425547   2.3568133  83.0830937  16.4172150   1.5913466
  83.9783412  15.4851510   2.3792389  82.6836493   7.9275184  58.0927610
  82.0855620   8.6066204  57.7807617  82.2475627   7.5587898  58.8609409
  72.7099061  70.5711008  30.6614521  72.3816227  70.5627276  29.7623471
  72.9121422  71.4906336  30.8340386  27.0571732  18.4592606  11.3367203
  27.6746726  19.1722895  11.1738804  26.2237048  18.8982941  11.5064553
  47.0286822  51.6296317  17.9348877  46.8663287  52.0186831  18.7942532
  47.6977896  52.1894862  17.5410679  52.5359249  54.3579817  66.1120892
  52.6510048  53.8432312  66.9108534  52.5697184  55.2680874  66.4067078
  11.2186193  57.7023315  30.2304339  12.0508742  57.2301769  30.2047920
  11.3210094  58.3295012  30.9462571  69.0326264  13.9643722  60.5407047
  69.8363879  13.5896640  60.1804399  68.3323291  13.5834366  60.0108862
  70.8584237  28.9733721   9.5044449  71.7777848  28.7397362   9.3762806
  70.8715081  29.6180369  10.2118900  21.7061162  11.7252900  -0.0665161
  21.9541764  10.9004094   0.3509405  22.4469161  12.3089100   0.0973108
  81.2235981  53.1924273   5.3520325  81.3155108  52.5391127   4.6585205
  81.0369163  54.0089442   4.8886851  62.2705269  51.1756372  51.1561012
  62.7926779  51.2211704  51.9570494  61.4641953  51.6455460  51.3688135
  79.3603897  60.1526737  55.9712219  78.8506269  60.9180164  56.2369728
  78.8680220  59.7789478  55.2403784  22.0493242  79.8948570  12.7575710
  21.2883112  80.0027343  13.3280495  22.4006817  79.0345641  12.9870728
  83.0801182  12.2085597   1.0808733  83.9613920  11.9534995   1.3538769
  83.0829149  12.0992257   0.1299408  13.3115363  30.7319380  19.2012432
  12.3682808  30.6154658  19.0875271  13.6216092  31.0255696  18.3445862
  66.9768098   1.1724620  60.3866100  66.9778040   1.7630821  59.6333504
  67.3937443   0.3731781  60.0648165  43.0334639  33.3163334   1.8712023
  43.6738419  33.1434847   2.5613287  43.4636712  33.9516856   1.2989405
  65.7978439  49.3090057  62.0337105  65.5243587  49.9897575  62.6485395
  66.3326550  49.7704792  61.3877630  28.7225985  39.1295029  10.6971005
  28.8562893  38.2515313  10.3399876  29.5664048  39.5662810  10.5811432
  69.1488838  51.7237616  67.2708988  68.2788944  51.3706827  67.4571562
  69.3335390  51.4449549  66.3740110  72.6423502  66.4299011  56.7669678
  73.5245991  66.7231178  56.9947624  72.7511883  65.9650803  55.9373140
  66.1211803  -0.0555081  43.6703491  65.8371570   0.4202514  44.4508743
  66.3177779   0.6290870  43.0308819  16.0819885   3.0409961  59.2676067
  16.1835691   3.7716442  59.8775864  16.7698499   2.4236923  59.5166349
   8.0245327  35.1165749  19.1328552   7.8029465  35.0197913  20.0590161
   8.9806699  35.0777031  19.1100147  24.3913385  11.7384201  44.6833277
  24.8295042  10.9546619  45.0149488  24.8321077  12.4642521  45.1250648
  58.4955862   7.2288185  68.0079460  58.4727862   6.2732177  67.9575872
  58.1687358   7.4303203  68.8847542   4.6734666   9.2166640  19.5851353
   4.4189739   8.9497162  20.4684284   3.8479971   9.4407917  19.1554859
  36.4777874  46.0753085   7.4314573  36.0465550  46.6740729   8.0411652
  36.3970494  45.2149798   7.8432301  62.3146200  61.4129782  49.2254353
  63.0081987  60.8877611  48.8262844  61.5219069  60.8885002  49.1124916
  43.3524230  11.9963890  60.9701014  42.7334299  12.1629387  61.6809750
  43.9545408  11.3424354  61.3251066  72.2007084  63.1821251  52.4035406
  71.7464256  62.5633621  51.8317127  71.9401217  62.9262686  53.2883406
  84.0622809   5.8772712  41.0817099  83.3830502   5.2246528  40.9115124
  84.2335465   6.2731510  40.2272034   6.6199609  13.3230167  58.1563807
   5.6656191  13.3947616  58.1386280   6.9261667  14.0752750  57.6498413
  52.8840351  62.4081087  63.3930826  53.4790754  62.4415493  62.6440620
  52.8599930  63.3073521  63.7202120  13.5358977  52.8183199   0.4048136
  12.6230645  53.0659224   0.5519894  13.5731625  51.8908335   0.6385115
  17.1443438  19.2576481   3.6647347  18.0799078  19.0588499   3.7025049
  16.7399191  18.6192490   4.2521980  28.9344096  55.6416346   5.5018309
  29.7134614  55.6170870   6.0574463  28.2650876  55.1804091   6.0073164
  84.1975218  30.8759953   5.7305363  84.3183356  31.2558342   4.8602751
  83.2960563  30.5541445   5.7283571  26.6784930  55.9801413  10.9349278
  26.9529747  55.5337168  10.1339272  26.6760897  56.9087531  10.7027748
   4.1622421  32.8668743  57.0110273   3.9994260  33.5734897  57.6358557
   4.8491260  32.3397785  57.4191856  80.5124667  12.4792057  59.0866947
  80.0421336  12.4937111  58.2531452  79.8234084  12.4380832  59.7498226
  27.4643373  65.3586578  67.0382071  28.0019069  66.1280155  66.8502235
  26.8638825  65.2986717  66.2951756   9.5197916  47.7593638   7.5674942
   9.1495919  48.4434344   7.0096091   9.7922778  48.2192446   8.3615282
  83.5183054  63.3980299  37.4010876  83.3241611  63.1989886  38.3170155
  83.0947738  62.6951910  36.9082764  10.7180357  39.3998839  15.2349594
  11.5769982  39.1197325  15.5510834  10.2812480  38.5881020  14.9771622
  80.1519495  18.2328488   8.7477854  80.8303147  18.6848475   9.2495325
  80.2588587  17.3098637   8.9777973  29.8478293  24.5403220  33.2597569
  30.4538750  23.8566138  33.5452107  29.0473866  24.3739821  33.7576130
  61.3642931  52.9277706  56.6064596  62.2422075  53.2540798  56.4089155
  61.0999489  53.4104967  57.3896170  14.4748330  41.2845637   4.0865830
  14.6461987  42.0337607   4.6571663  14.3268227  40.5545546   4.6877602
  29.4108843  49.5006968   2.1535376  29.0822625  49.4367625   3.0502823
  29.7729134  48.6340834   1.9687489  36.4639258  14.2593028  12.4479225
  35.9087634  15.0167443  12.6331452  35.8715176  13.6186434  12.0544270
  81.4292338   5.5653053  50.4948807  82.0623782   5.8831077  49.8511696
  81.7730143   4.7152191  50.7694769   8.3517718  13.2544209   1.7822197
   8.7402749  13.7631585   1.0705450   8.4776496  12.3422028   1.5209892
  22.4448466   6.6338183   1.2236765  22.6641154   5.7621552   0.8945111
  21.5542578   6.5446688   1.5629891  12.4444458   7.9764801  16.3254619
  12.0172283   7.8759056  15.4748142  13.3710167   7.8136497  16.1488771
  74.8798054  11.9536997   2.9672888  75.3845184  11.5898634   2.2398833
  74.1853314  11.3131405   3.1209973   8.7809011  77.3614689  12.7186135
   8.7348577  78.3174439  12.7036503   8.6052009  77.1274586  13.6299923
  50.9301474  14.2939144  60.2913284  50.2366617  14.9240070  60.4870081
  50.5683139  13.7488132  59.5926380  49.4163752  72.9200506  63.5716867
  49.5501995  72.4011135  64.3648005  49.9756241  73.6877394  63.6905575
  22.9507562  31.8598514  51.7985916  23.5315725  31.0996204  51.8291092
  22.0751831  31.4881759  51.6915226  62.9323959  58.9880085  41.4582777
  63.1447744  58.2817936  40.8480358  62.1675110  58.6688328  41.9371414
  58.7758333  12.6991917  23.5479859  58.1824228  12.5078989  22.8216961
  59.3641287  13.3722378  23.2057217  69.5992854  20.0207477  69.7037888
  69.5994284  19.2080932  70.2095842  70.0443890  19.7946315  68.8871002
  81.8853646  55.6952883  14.9179199  80.9510260  55.5565478  14.7630242
  82.1231633  56.4081694  14.3250588   9.2191386  37.8711153  -0.1404878
   8.3091402  38.1357886  -0.2749512   9.1699624  37.1608902   0.4993466
  67.7763527  26.8479945   1.2920645  67.8200226  26.1829544   0.6050041
  68.6196523  26.7848278   1.7404917  23.6934683  30.6327205  58.0404615
  24.3796369  30.5362564  58.7008429  22.8972265  30.7992225  58.5449505
  72.7767324  63.0459356  62.2797060  72.9214859  62.9697704  61.3365889
  72.7610826  63.9887571  62.4442530  76.4985040  75.5752035   2.8609923
  76.0933020  76.4203497   2.6666430  75.9987929  74.9450012   2.3419836
  47.6557732  65.3925705  54.0858507  47.6973438  65.3323317  53.1314516
  47.3546600  66.2849808  54.2566299  11.1121845  58.9046027  32.7812794
  10.1756215  58.9992930  32.6077488  11.1757063  58.1263663  33.3349446
  11.0793757  44.6599509  33.4291008  10.6802082  43.7915541  33.3763912
  12.0187401  44.4973875  33.3430699  80.9729102   2.8722816  10.4762077
  81.0275605   2.2684436  11.2169039  80.7165053   3.7077480  10.8666980
  17.1772217  57.7800967  18.9191082  16.3264822  58.2185389  18.9348248
  17.3559880  57.6373888  17.9896382  78.0961781  36.2823130  15.2450779
  78.5371595  35.8081795  15.9500340  78.1609636  35.7003190  14.4878987
  54.3581414  54.3798567  12.3603275  54.1720986  54.5957018  13.2741287
  54.6158814  53.4582068  12.3796204  14.2538762  39.1552569  52.1707466
  14.0530562  40.0746943  52.3455361  14.4028401  38.7739588  53.0359963
  66.5079212  76.1171007  64.6266937  65.6553841  76.2168932  65.0503159
  66.6486025  75.1709461  64.5915127  33.0211639  73.1456232  46.8489122
  33.8464212  72.8288889  46.4816761  32.6940465  73.7690449  46.2003994
  77.0686436  60.2167177  43.2330608  77.3175287  60.0392866  44.1401482
  77.3076534  61.1331034  43.0939865  69.7662449  41.6283703  56.4439392
  70.6957722  41.5609074  56.6622496  69.4995737  42.4791861  56.7921305
  35.3964925  65.7843113  57.9011059  36.0051942  65.5535984  58.6028814
  35.7027602  66.6356707  57.5886631   8.6943173  39.4374157  11.0574749
   7.9603719  39.5833327  11.6543606   8.4813046  39.9593283  10.2838734
  15.0420832  12.0921494   9.0999487  14.6255040  11.3282610   8.7009886
  14.4197106  12.8055169   8.9585760   5.8370754  79.8242780  15.8462265
   5.2167675  80.3835936  16.3137844   5.6377432  78.9389058  16.1505535
  66.8081474  48.3915234  38.9240098  67.0481873  48.8319492  38.1087589
  66.2420464  49.0169048  39.3764019  43.8847944  27.3542171  65.2229071
  43.8963052  26.7096382  64.5153666  43.1559869  27.9354530  65.0055552
   4.7905227  69.0835686  28.0209091   5.1202032  69.9076219  28.3793476
   5.5501768  68.5011931  28.0214909  13.8890719  21.1038853  11.0695198
  14.1658663  20.1879574  11.0432175  14.5986723  21.5555169  11.5263870
  34.3055319  29.6537472  10.8559826  34.0576863  28.9740921  10.2291802
  34.9938893  30.1492478  10.4122761  64.3585062  78.9491987  65.1016140
  64.1739845  79.8013210  65.4966688  65.1543283  79.0902424  64.5887756
  57.5901627  42.0001437  11.7624882  57.8640961  41.4876963  11.0018280
  56.6742920  42.2168948  11.5880230  64.5309689   3.5576778  57.6266909
  64.9343422   4.2902332  57.1609831  63.9906600   3.1228405  56.9669867
  71.6219931  35.1648117  26.3301781  71.8602019  34.2425848  26.4249638
  71.1717277  35.2104117  25.4867199  23.5647464  65.9262562  52.4602127
  23.8299632  66.5225697  53.1604290  24.3230724  65.3567171  52.3306036
  33.5135149  46.6216780  24.0553597  33.4802889  47.4085738  23.5113648
  32.6289916  46.2591292  24.0063885  62.3673152  13.8061930  25.4010514
  62.9654747  13.3222414  24.8316410  61.6920819  13.1695296  25.6354645
  33.7587523  56.0302664  14.8348168  33.9850735  56.9062067  14.5221832
  33.3622145  56.1774565  15.6934956  76.8725684  15.4190307  56.9471502
  77.3397162  15.0542312  56.1955309  76.0126975  14.9992710  56.9214725
  48.0414644  20.8538204  57.6306820  47.7142694  21.6940456  57.3094559
  48.8446095  20.7031398  57.1321964  22.0309090   6.8277623  12.0672825
  21.5772461   6.1188246  12.5231674  22.8279805   6.4218975  11.7264202
  37.0945311  65.0759029  64.1916847  37.0851493  65.4760599  63.3221912
  36.1709332  65.0060272  64.4331646  59.1731215  64.3914652  43.7885857
  59.3691921  65.1142931  43.1925058  58.9704514  64.8165035  44.6219540
  74.0698343  16.9951035  32.8828076  74.2437666  16.4851262  32.0916680
  73.3618134  17.5892474  32.6339462  14.7929645  75.1277113  59.7419834
  14.3251991  75.5182981  59.0038300  14.1360092  75.0641298  60.4352331
  28.3275584   8.9940124  56.4698982  29.2417596   8.9364296  56.7476606
  27.9510513   9.6767002  57.0252562   2.2753736   2.3782020  55.3081465
   2.5427028   3.2153755  54.9288082   1.4129182   2.5508552  55.6857634
  55.6083965  58.6986399  33.8002801  56.1195087  59.4624424  33.5326934
  56.2510538  58.1039047  34.1869497  23.7809634  46.8703222  68.7826300
  24.1257715  47.2825766  69.5747042  22.8697181  46.6683960  68.9949703
  52.0427513  71.5427399  67.6174307  52.4789572  72.1980667  67.0729065
  52.0375872  71.9253683  68.4948111  37.7797890  67.4832916  59.2037392
  37.3532152  68.0706549  58.5798216  38.6280274  67.2866869  58.8061619
  76.2289241  15.0424152  51.1004019  76.2058499  15.0980144  52.0557022
  76.2880280  14.1049247  50.9164095   3.8787958   6.6179710  60.0469875
   2.9830238   6.9520145  60.0943565   4.4042846   7.2763496  60.5015469
  29.2757916  67.0651197  65.7232666  29.6017647  67.0545578  66.6231871
  29.3812323  67.9736471  65.4409742  72.2637129  70.3133154  50.3562784
  71.7737818  69.7781706  49.7319221  73.0000448  70.6574631  49.8506975
   8.0238697   6.0451179  63.3177233   7.1382639   5.9744411  62.9614305
   8.0607340   5.3769069  64.0020990  41.3730621  72.3782492  63.8242531
  41.0308838  71.6473246  63.3095789  42.2714329  72.1233368  64.0344524
  -0.2542573  77.6723003  60.7173872   0.3132457  77.4176264  61.4449263
   0.2029055  78.4032536  60.3015327  23.6117384  24.2072635  36.3686705
  22.6857492  24.3934780  36.2134337  23.6184713  23.6699443  37.1607995
  34.5204615  72.5258566  15.1103905  35.3891587  72.6224829  14.7201851
  33.9261317  72.9213263  14.4727257  20.7489082  19.8394733  19.5169544
  20.6251737  18.9672142  19.8912382  21.5376922  19.7602325  18.9805090
  69.0994599  16.2489372  61.7844534  69.0408709  15.4355770  61.2832117
  70.0303080  16.4716201  61.7716789   5.2534124   9.0613609  36.2195325
   5.1819297   8.9518505  37.1677566   5.7515070   8.2980400  35.9271526
  26.7759630   6.8986946  49.0411663  27.4133798   6.8281513  49.7517681
  25.9308836   6.7367893  49.4605160  79.5175698  16.0510307  50.8913231
  79.6237042  16.8276649  51.4406919  78.6662820  15.6935554  51.1438179
   6.8395066  28.0112816  21.2165764   6.4560341  28.6394717  21.8285969
   6.8854284  28.4840084  20.3855255  17.4018263  41.6834475  10.1187733
  18.3110785  41.4446665  10.2989796  17.0160412  41.8267657  10.9829834
   3.3219072   7.1480041  55.8911610   3.9463779   6.8590408  56.5565681
   3.6460611   8.0051475  55.6146431  50.0897264  66.7679977  68.0641079
  50.1852846  66.6670418  67.1170521  49.1694307  66.5675211  68.2346964
  41.5381073  47.7898432   4.5387724  40.7805562  48.3285071   4.3103340
  41.1781954  46.9120718   4.6661118  84.0502262  80.5508709  28.2897091
  84.1433525  79.5984697  28.2676435  83.9262581  80.8006859  27.3740339
  71.0006165  30.7464577  18.6553601  71.9081997  31.0291077  18.7677601
  70.5303883  31.1565901  19.3812493  78.1706765  25.7423931  35.1764798
  78.2394698  24.8461204  34.8475432  77.2292712  25.9101253  35.2195430
  72.2728329  28.1766106   1.0093859  72.4633365  27.5920130   1.7429951
  72.1145516  29.0282656   1.4166477  84.7352174  13.4458118  58.4144068
  84.0439847  13.1509166  57.8215551  84.2852881  13.6129432  59.2425776
   0.5681324  41.2025572  11.3742665   0.5320429  40.2529360  11.2595871
  -0.1262188  41.3942362  12.0046356  28.0656409  30.0892950   7.3859814
  28.2939648  29.1604926   7.4237898  27.6728415  30.2043463   6.5207079
  67.1631384  64.7494125  56.7061234  68.0385971  64.4060421  56.5275240
  67.2080660  65.6685925  56.4428282  73.5284140  10.5431991  58.9506197
  73.5780719  10.0921112  59.7934008  73.2817462   9.8598629  58.3273745
   1.1615440  18.8684230  57.9479074   0.4731580  19.3778854  58.3754683
   1.3307640  18.1427913  58.5487843  50.6836367  53.3806610  53.7540674
  51.2578440  53.1361246  54.4798183  50.0663853  54.0042448  54.1366482
  58.9466381  71.3211966  66.4522743  59.8158503  71.6678286  66.6536570
  59.1103077  70.4320288  66.1379147  45.1372885  69.2877604   6.1799362
  45.8011221  68.6230780   5.9961966  44.5841431  69.2961718   5.3987864
  77.6071456  39.0948825  61.5283966  77.1740010  38.9212852  62.3641443
  77.2767308  38.4146934  60.9415388   4.2336055   0.3512817  66.0516644
   5.1864263   0.4231887  65.9952259   4.0832302  -0.3303379  66.7066574
  34.0141463  74.7990729  16.7503861  33.1161808  75.0089098  16.4937618
  34.1582894  73.9139677  16.4156368  37.0795893  47.8851534  27.6394776
  36.7605853  47.1640421  28.1821182  36.5366864  47.8505732  26.8518856
  15.9447643  43.8536888  64.1557360  15.3033611  44.3910461  63.6908817
  15.9561893  43.0255561  63.6758566  61.6479874  72.5059938  63.7178230
  62.5174236  72.6444960  63.3421516  61.8180656  72.1709394  64.5981884
  13.9733338  64.7124602  21.7077473  13.4558701  63.9323832  21.5079048
  13.6603426  64.9937178  22.5674942  34.1358494  32.9699494  25.1476792
  34.2174601  32.7610232  24.2171314  33.1995606  32.8899599  25.3298882
  73.0370906  41.8503433  22.4308586  72.1030953  41.7538505  22.2449017
  73.0720713  42.4473720  23.1782317   6.1615633  39.8584105  20.2895191
   5.2658438  40.1807238  20.3896931   6.6553139  40.6164576  19.9767903
   8.9230463  15.5444294  42.3377037   8.8618967  14.8441558  41.6880131
   9.8360988  15.8290058  42.2979069  82.0100596  32.2726303  67.5755072
  81.2309602  32.3528247  67.0252323  81.7183259  32.5464206  68.4450817
  52.9465225   2.5787909  17.9856137  52.9859426   3.1196768  18.7743595
  53.8028886   2.6933271  17.5736073  31.9625639  45.8824088   4.6651915
  31.1107945  45.7080676   5.0655964  32.5897765  45.7754828   5.3803137
  49.4120812  25.1958300  13.2841519  49.3227028  26.1225487  13.5064820
  48.8695502  24.7414757  13.9287022  20.9478256   1.1747985  30.6499338
  20.6805059   1.3754230  29.7529817  21.6922638   0.5812984  30.5509186
  24.9102568  21.1262680   3.7694004  24.7600674  22.0140625   3.4446076
  24.1629529  20.9508063   4.3412235  34.7371172  20.8877064   8.9717272
  35.3995537  20.7215668   9.6423987  34.5782685  21.8303849   9.0203074
  25.6490778  36.9078900  15.6597832  26.0589432  36.0976435  15.3568962
  25.1428103  36.6471363  16.4291504  13.0197924  64.5195675  67.9106569
  13.4071845  65.3948355  67.9027843  12.1299476  64.6544123  68.2365799
  75.9050909  80.6012820  69.2549372  75.3993014  79.8739897  69.6175051
  75.2781370  81.0839864  68.7162781  76.4798224  41.6665030  61.0289431
  75.5834955  41.3449907  61.1261988  77.0293087  40.9184551  61.2628698
  45.9811917  44.9006807  17.3395470  46.3740912  44.4452997  16.5948990
  45.1713314  44.4209843  17.5134686   7.3012569  44.2361506   6.6587284
   7.4974087  44.2159956   7.5953987   6.3564589  44.0909471   6.6086987
  14.4245064  28.4287047  64.4685650  15.0024819  29.1655445  64.2704678
  13.6977804  28.5220098  63.8526154  35.7355499   9.5422906  16.8905926
  35.2834916   9.8516381  16.1056209  35.0700140   9.5726299  17.5778878
  -0.0846341  46.1551875  20.4787850   0.6723592  45.8646292  20.9874797
  -0.4639819  45.3478951  20.1315022   3.6396286  68.7332768  42.6940012
   3.3051798  68.7729234  43.5899925   4.4998810  69.1504187  42.7407789
  65.1465473  79.6672676  69.7773933  64.9533645  80.2850132  70.4825878
  65.6684122  80.1717173  69.1533566  19.7162864  53.4167213  66.0068607
  20.4553363  53.9914054  65.8074188  20.1137683  52.6496333  66.4189434
  22.2760320   5.3346825  28.5353518  21.7859030   4.9879459  29.2808557
  21.8361878   4.9682382  27.7682209  31.5488252  20.8058174   1.7941502
  32.1991944  20.7188733   1.0972336  31.0490699  21.5876575   1.5591982
  65.6021860  67.3426791   2.0868424  65.1467183  66.6124340   2.5057963
  65.9424785  66.9761463   1.2707022  83.9773610  70.2886063  55.7581472
  83.9989665  69.3693370  56.0240650  83.3601192  70.3119737  55.0269175
   6.4684889  70.3710873  56.4419222   5.9396956  71.1641592  56.3544846
   6.1340854  69.7842581  55.7636595  59.1790485   9.1225660  59.0371513
  58.3244562   8.9670396  59.4392824  59.0960789   9.9814868  58.6229038
  76.8459454  46.3561649  38.0019498  77.4979928  45.6566591  37.9600334
  77.0149949  46.8880910  37.2243190  60.2904138  69.4291121  20.2901268
  59.9477825  69.2230410  21.1598206  59.7643891  68.8969535  19.6931863
  17.8541780  12.2894740  23.3214664  18.6911047  12.6829016  23.0744839
  17.7300978  11.5770257  22.6943684  75.7153800  16.5859862  14.1180733
  75.5050662  15.9080263  14.7602299  76.0829356  16.1067410  13.3754662
  43.7391224  39.0370583   5.6607035  42.9929819  38.4554105   5.8062771
  44.4949940  38.4512398   5.6193855  60.7884169  45.0641603  50.2318382
  61.0529170  44.6901817  49.3913555  61.3487637  44.6291680  50.8745098
  57.4364784  65.7738753  26.8737057  56.5929630  65.5589839  27.2718647
  57.3602822  65.4662867  25.9704807  27.7579975   2.5601998  64.5171356
  26.8224692   2.6889873  64.3608189  27.8925848   1.6193859  64.4031715
  28.4788162  48.3386101   6.9673422  27.6834289  48.8048967   7.2245720
  28.7705179  48.7835010   6.1715964  26.4692664  34.9062061  47.1106339
  26.8538404  34.0453506  47.2757483  25.8989263  35.0621152  47.8633881
  80.7248547  21.4901992   9.1046551  81.0973265  20.9322735   8.4218577
  81.4617017  21.6838749   9.6841219  84.8707178  59.8381276  54.5915413
  85.7488421  59.5687360  54.3221712  84.4490817  60.1248164  53.7814426
  85.0036529  69.3462808  35.8410478  85.8561686  69.0552110  35.5174327
  85.2026561  70.1015157  36.3944459  27.8337264   0.2679762  39.1810107
  28.5957932   0.3969646  39.7456765  28.1431508  -0.3195873  38.4916234
  30.1786327   1.1484519  57.6116800  29.5948124   0.5590649  57.1341753
  30.4407763   1.8025824  56.9638920  68.3361271  34.6214684   6.8769673
  69.2151168  34.9977901   6.8323925  68.2963255  34.0174021   6.1355141
  36.0681057  28.1844616  48.7343979  35.1278448  28.0056095  48.7468195
  36.2172675  28.6239934  47.8972626  23.3083725   4.7351730  48.4653568
  22.9098439   3.9709175  48.8816738  23.7395215   4.3855363  47.6855516
  77.4636439  65.7965726  23.2730055  76.9404558  64.9964053  23.3203101
  77.1351460  66.2520522  22.4978542   8.1289703   1.3584386  55.1642895
   7.3889315   1.7137302  54.6720076   8.8237756   1.2586668  54.5135021
   6.4596897  14.8845303  32.2522235   7.1259010  15.5472660  32.0700812
   6.7141044  14.5152700  33.0978894  64.0409282  52.1983167  22.0622376
  63.6084607  52.5544675  22.8383568  64.9198606  52.5768419  22.0829037
  33.9273739  26.3625932  64.9912977  34.4500065  26.9816756  64.4815683
  34.5091295  25.6151938  65.1298094  47.6077366  16.3979232  34.1971159
  46.7272711  16.0274673  34.1357017  48.0426979  15.8717680  34.8680878
   0.5060343  29.8101163  36.2928224  -0.0151705  30.4823732  36.7317390
   1.0817121  29.4686508  36.9770932  83.7137054   4.2791292  38.1268024
  84.3002146   4.5519871  37.4212623  82.8808585   4.7052109  37.9241896
  58.8796948  75.1458610  56.6955566  58.3223386  75.7692314  57.1613836
  59.3340188  74.6665347  57.3884249  80.6221751  63.8907666  34.6163940
  81.5721944  63.7782604  34.6485853  80.3393153  63.8003666  35.5263662
  37.2705007  36.5285850  63.7024641  38.0800724  36.1367583  63.3749056
  37.2992897  36.3826871  64.6480417  12.1113825   3.0920142  57.8828335
  12.3701906   2.3830786  58.4716129  11.1544812   3.0850503  57.9056835
  21.2501594  26.3534375   5.2874783  20.3101787  26.1753889   5.2563885
  21.6343000  25.5512734   5.6413153  18.4432435  12.4936295  61.0714388
  17.7630877  12.8136802  61.6640472  19.1262054  13.1633663  61.1067200
  23.8139272   7.4551654  49.2126513  23.7731481   6.5117240  49.0561628
  23.6751461   7.5478315  50.1551914   5.7256987  63.6719938  15.6150368
   5.3665736  63.6260267  14.7289494   5.0689366  64.1569038  16.1147907
  52.2794655  31.8841817  14.3483761  52.4910667  32.3955371  15.1293781
  52.8847387  31.1431601  14.3760136  36.8242076  68.9278943  45.1512289
  37.3867741  69.3864829  44.5271730  36.0104946  69.4319600  45.1554775
  39.3701625   1.5208235  63.1843138  39.7625327   0.7036858  63.4918261
  39.7501302   2.1955775  63.7469530  55.1744655  19.7841831   1.1304548
  55.7504299  19.0527602   0.9079292  55.3983238  19.9983664   2.0361260
  15.8881068  14.4275296  42.4940252  15.8911157  14.6610439  41.5657520
  16.2170184  15.2088118  42.9386044   1.5515802  57.3179883  39.0335202
   0.8808992  57.9691119  39.2395687   2.3065374  57.8333849  38.7495518
   2.6821277  70.8691306  27.4201441   2.5364372  70.6494779  26.4999485
   3.3822319  70.2790779  27.6992893  59.5425394  75.7477136   0.5333451
  59.6135500  75.5536457  -0.4012796  60.4434064  75.7107874   0.8547571
  65.0883356  70.0193114  25.5420423  66.0143212  69.7778482  25.5638885
  64.7351417  69.6890599  26.3681293  20.2280474   4.4720110  58.7151098
  20.1991606   5.3374046  59.1231441  20.5443573   3.8913283  59.4071960
  23.3284471  63.5139531  25.3856921  24.0460727  63.6657912  24.7707200
  22.7890393  62.8450972  24.9639034   5.1318333  73.1566662  64.4503927
   4.9211571  72.6626438  65.2427244   4.2937109  73.5204584  64.1650200
  44.6101046  24.6070981  63.8650179  44.6043921  25.3226089  63.2292175
  43.7870646  24.1432762  63.7110233  74.1123691  55.3962845  28.2640529
  73.1655768  55.5310935  28.3045840  74.4315019  55.6793613  29.1209388
  50.1222944  29.5632124  57.2383833  50.0159454  29.7290969  58.1750822
  50.1573944  30.4343820  56.8433332  63.6140347  19.2342794  51.1797285
  63.5082865  19.0478969  50.2468252  64.3679857  19.8224640  51.2225008
  82.8496063  34.8017740  40.2439213  82.7402860  34.6714854  41.1858892
  83.5069767  34.1550279  39.9873734  78.3614892  29.1449499  48.3340073
  78.2709753  30.0960159  48.2747364  79.3031496  28.9890194  48.2619429
  53.0060675  46.1937066  17.5997570  53.2825020  46.2783196  18.5122517
  53.3310654  46.9882878  17.1763733  18.7519252  24.3864465  52.7608156
  18.4536469  25.2410626  53.0720901  18.8844681  24.5069242  51.8205261
   4.9471706  38.8268805  56.2585354   4.4521186  38.3107615  56.8947554
   4.4127885  38.8050747  55.4646873  52.9764130  59.0393813  10.0072602
  53.1144002  58.0953487  10.0846699  52.1614673  59.2020686  10.4822663
   9.3553084  18.7925017  67.1078539   9.7326237  18.9580476  67.9718304
   8.4590286  19.1226053  67.1706676  67.3774031  36.4555882  23.7594631
  68.0764869  37.0097812  23.4124973  67.0925238  36.9008638  24.5574597
  23.9536595   4.0048546  31.1403632  24.4875765   4.7891915  31.2667727
  23.0726218   4.3393311  30.9726429  38.6626354  66.4450473  65.8510780
  38.1434396  66.6868538  66.6180182  38.0282763  66.0675306  65.2417326
  19.9271095   9.8942757  52.3136282  20.5284834  10.1620269  51.6187239
  20.4970217   9.5821613  53.0164909  64.5342642  24.5549893  21.6350889
  64.7333151  24.0188670  20.8675051  64.3741995  23.9215827  22.3346639
  43.9795873  66.7051215  11.0961926  43.4637782  66.6873772  10.2900553
  44.4418046  67.5427992  11.0663998  25.1457381  16.9560122  41.7588377
  24.8722506  17.1474779  42.6559305  25.0148463  17.7789140  41.2877417
  66.5386096  72.7107853  35.3105807  67.2851065  73.2706857  35.5238533
  66.9021532  72.0342059  34.7393489   2.3089647  23.1151056  20.1411748
   1.4546719  23.5051084  20.3264117   2.4720134  23.3215451  19.2208326
  16.7415309  79.6087518  12.4149445  17.0784163  78.7631002  12.7109459
  15.8905947  79.4050183  12.0268372   8.3470223  80.0234029  30.2610946
   8.6341140  80.2358270  29.3730164   7.4906633  79.6120962  30.1440287
  32.6874876  38.6444783  43.7821102  32.5184011  37.8265405  44.2496777
  33.4568620  39.0136051  44.2157459  58.2400849  50.0885346   2.6152447
  58.9389780  49.9382605   3.2517937  58.1242230  49.2425938   2.1825865
   1.0086637   7.9773933  60.3238106   1.5258086   7.6148331  61.0430765
   0.5893528   8.7525821  60.6972980  27.5857663   9.3691057  47.7788830
  28.4341717   9.3830186  47.3358822  27.3662806   8.4398931  47.8468752
  73.8954356  36.5509101  34.6440914  74.3135789  35.7588877  34.9818638
  73.2988360  36.8228211  35.3414849  80.9367591  37.0213246  69.4526196
  80.2504837  36.3764858  69.2810345  80.7862908  37.7094555  68.8044977
  29.9121428  37.3145509  47.1695709  30.0477171  37.1248579  46.2412024
  29.0138793  37.6415992  47.2185183  12.7848065  10.4647744  23.8169861
  13.3930218  10.6344652  24.5363688  11.9634902  10.8685172  24.0974569
  18.9880824  37.0527053  61.3426161  19.3903339  37.9207158  61.3112545
  19.7146654  36.4466381  61.1977434  54.8455077  15.0745702  67.4458981
  55.4195934  14.9447143  68.2007504  54.4797069  15.9502220  67.5710249
  23.4055993  60.9147496  61.3016844  23.9282701  61.4434237  60.6987333
  23.8378188  60.0607080  61.3077497   9.7856877  72.7622301  34.4625878
  10.1608202  71.8829227  34.4143510   9.2880461  72.7657986  35.2802491
  36.8898294  76.4469308  50.8490133  36.2671516  76.8963874  50.2776194
  37.6075217  76.1933172  50.2686453  34.0780330  31.9412804  66.8176746
  34.5549774  31.4965081  67.5183392  34.7414160  32.4704671  66.3748217
  19.4391489  19.1040027  44.5094299  20.1855803  18.6726570  44.0934849
  18.8613915  18.3860803  44.7683048  43.3731365   6.8633693  66.0811234
  43.8414049   7.1168554  65.2856970  43.6035919   7.5378990  66.7199755
  82.6811668  19.6112216  40.0500441  83.5079011  19.1408169  40.1571035
  82.2931355  19.2366517  39.2592478  56.2400248  78.8685771   2.8176525
  56.0709670  78.6588784   3.7361696  56.7897346  78.1499620   2.5051716
  40.8857050  58.4127708  11.1696079  40.0942281  57.8745457  11.1800984
  40.8176282  58.9231022  10.3626564  27.1862340  18.4744227  54.7615099
  26.4142251  18.0157924  54.4300127  27.3041415  18.1346631  55.6485796
  69.1225544  70.5803663  31.3395834  69.1949383  69.6394271  31.1795020
  69.4891098  70.9858955  30.5538249  25.2930903  11.7187011  59.7076464
  25.4676580  11.0213923  59.0755749  26.1080694  11.8028772  60.2025795
  36.6973591  18.9642274  61.8488312  36.0982633  18.2178009  61.8360090
  36.4732838  19.4646931  61.0642576  29.4136381  14.8767364  51.1328220
  29.2617822  14.2549205  50.4211187  29.6161699  14.3284106  51.8908119
  81.4537615   0.9826034  57.5433969  81.9725102   1.6754317  57.9521990
  81.3224560   1.2810336  56.6434336  68.2273954  10.4644978  39.0171909
  67.7710503  10.0581944  39.7540069  69.1045803  10.6507146  39.3520069
  53.4582779  74.5109559  53.3398294  53.9393571  74.2697096  52.5482512
  52.8653899  73.7753237  53.4933233  63.9937735   3.1730229  67.7249384
  63.5428619   3.4294334  66.9204712  64.8751545   3.5343859  67.6310778
  49.7447920   0.7239057  60.3484535  49.4486380   1.0615187  61.1937618
  49.8300457  -0.2198027  60.4840183  75.7145801  40.3506894   6.5805948
  75.1875261  39.5582861   6.4779258  76.5730182  40.0327916   6.8603396
  60.9383395  40.4283068   1.3516548  60.3517177  41.1097378   1.6799191
  61.7232278  40.9010016   1.0746315  56.2505086  61.2612898  65.8943844
  57.0519746  61.2951869  65.3721428  56.0932539  62.1699364  66.1510229
   7.4548608  54.5416021  64.0892792   7.5035387  55.4276133  63.7303257
   8.1375563  54.0572405  63.6249971  51.6123295  12.0296645  66.2616777
  51.8618059  11.1281729  66.0584307  50.9943485  12.2687006  65.5708838
  85.6771925  56.3177246  24.0518308  86.1307124  56.8929309  24.6680188
  84.7824934  56.6566176  24.0219188  11.6820264  21.2533569  41.4206123
  12.2582614  21.4634180  42.1554995  12.0718122  20.4732418  41.0259962
  21.0833070  78.2285300  60.7034111  20.3179881  78.7288529  60.9866095
  20.7967994  77.3156730  60.7323456   0.1434647   3.0710766  43.7617159
   0.6334212   3.1805852  42.9467440  -0.4192651   3.8439748  43.8085747
  27.1937248  50.4262068   0.4447773  27.7112458  49.7032275   0.0902298
  26.4323431  50.4814937  -0.1326916  70.6494597  35.8554882  45.3748989
  70.5658630  35.8036417  46.3270283  71.5007594  35.4600949  45.1873255
  21.5087652   3.2276729  49.4914007  21.5697670   2.6928690  50.2829123
  20.7686090   3.8124695  49.6539259  74.2831722  62.1265394  15.1927984
  74.8429409  62.1265239  14.4163382  74.5538250  62.9027588  15.6831670
  65.0222662  14.5981880   1.6799048  65.1164534  13.7049957   2.0109156
  65.4307463  14.5772239   0.8144930  65.3790018  69.5930368  20.0314832
  65.8668557  69.7890968  19.2316127  65.2757040  70.4411847  20.4629970
  42.8009826   3.9782324  56.2200594  42.9143315   3.9048597  57.1676874
  42.5296813   3.1031513  55.9428263  55.9714201  48.2984223  15.7153156
  56.4518597  47.5221427  15.4275635  56.3921740  48.5493340  16.5376595
  15.6407878  65.2365405  29.9981475  15.9640548  64.8697407  30.8210611
  14.8063752  65.6446773  30.2292538   6.6941285  49.9766970  47.5951433
   6.2490809  50.2040672  46.7787695   6.2035352  49.2283297  47.9349852
  21.6801667   5.1989156  23.2978344  22.0114255   5.7542062  24.0036321
  21.5878296   5.7904345  22.5509667   2.0017001  78.1377107  38.9315462
   1.6221616  78.6869808  39.6174645   2.6532886  77.6034529  39.3856716
  42.2091341  17.0716536  55.9432459  42.0148611  17.6804399  56.6558933
  42.7567577  17.5750411  55.3408003   7.8099826  35.5750500   3.3721474
   7.9543188  36.2510480   4.0342835   8.5738781  35.0027104   3.4437063
   4.0287635  73.0503399  58.2455111   3.5901258  72.5816817  57.5354481
   3.3618328  73.1305850  58.9274168  48.3393097  26.8004584  48.1758976
  48.8536310  26.9187450  48.9744663  47.4944353  27.2048736  48.3730459
  33.0938148  13.0367970  66.5159893  32.3739243  13.2058704  67.1237755
  33.6028790  12.3427665  66.9348097  71.4662558  11.6296172  22.1031308
  72.0955592  11.0340416  21.6963148  70.8918601  11.8975830  21.3858485
  60.7176688  60.7314988  15.0375775  61.6601899  60.8207293  14.8964241
  60.5710938  59.7868200  15.0858620   5.6373417  18.8526070  64.8825169
   6.1142159  19.5683670  64.4623804   6.0339379  18.0581927  64.5249557
   6.9713753  15.7936645  60.4554129   7.7641875  15.5099404  60.0002432
   6.2861729  15.7577562  59.7880030  68.1178397  36.6794634  33.5529804
  68.6550122  36.2476397  32.8887463  68.5731810  37.5022936  33.7314391
   2.9277799  35.0694418  52.8784180   3.1613588  34.8305655  51.9814157
   2.1473432  34.5491529  53.0693340  68.3845368  75.3293545  33.8307405
  68.4738317  75.8879322  33.0585670  68.0424646  75.9115065  34.5092058
  45.6737041  23.8603354  27.2818947  45.0418282  24.4660711  26.8945336
  45.5276537  23.0344677  26.8205452  71.9907335  74.7492087  41.5045834
  72.8977326  74.8612965  41.7892265  71.7574445  75.5901522  41.1113644
  42.0077982  72.4651166  -0.1569626  41.8807307  73.3542224   0.1740578
  41.5605202  71.9066187   0.4788473  30.7463384  39.3340850  49.5207834
  31.0788012  39.2347932  50.4128838  31.1745954  38.6352134  49.0264082
  20.9973407  47.4237204   2.8929645  20.4680181  48.2071114   3.0424383
  21.7376781  47.5169086   3.4925050  16.1743686  80.2315162  47.7717686
  15.7173822  79.4227845  48.0027390  15.5503890  80.7122686  47.2279310
  31.9657191  36.7915227   5.8486345  32.7183830  37.3799851   5.9072951
  31.4247426  37.1633043   5.1519612  19.6213481  72.4401516  41.6890001
  19.2492768  73.2557959  41.3535595  20.4422900  72.7043594  42.1043158
  32.4792004   7.7171791  53.2006025  32.7908683   8.4609681  53.7162304
  32.3300028   7.0249689  53.8446665  27.5760555   6.3277042  36.1790729
  27.0073700   6.1207169  35.4374647  27.2325301   7.1529967  36.5212941
  57.4408102  13.9143193  32.3529720  57.3714876  13.3315265  33.1091309
  57.4793434  13.3253682  31.5993905  15.9361088  18.9356136  55.6744146
  16.6508317  19.5723128  55.6702900  15.8004665  18.7218225  54.7513056
   6.0559404  32.7086592  37.5532222   5.8012205  31.7932963  37.4372029
   6.0474867  32.8413224  38.5011482  24.6830773  48.3086777  47.5673103
  25.0732946  48.9400339  46.9628668  24.6361518  47.4946070  47.0659971
   8.5110277  18.0102944  37.3502898   8.8010752  18.0202103  38.2624316
   8.4499025  18.9343917  37.1083379  56.4478970  10.4193127  52.4141359
  56.0629988  10.5054879  53.2862902  57.1888733   9.8259175  52.5369072
  76.9541076  71.6563058  67.4262857  77.5471261  71.9497604  66.7345905
  76.5092948  70.8951432  67.0534515  38.3558154  19.9864459  43.0712366
  39.1801691  19.4999564  43.0731153  37.8009152  19.5198393  43.6962128
  26.3549232  32.0653200  54.4047594  26.5314674  31.2542295  54.8814106
  26.7691898  31.9367075  53.5514879  40.6877616  64.9448605   0.2870825
  40.9400525  64.8168774  -0.6273577  41.3739231  65.5058666   0.6485871
  49.6738386  22.3496008  61.3991594  48.8140202  22.0192552  61.1387444
  49.8796034  21.8737364  62.2037983   9.5126241  15.9792054  50.0071144
   9.3022984  15.9867454  49.0733385   9.1273445  16.7872822  50.3459454
  35.1389194  39.1174936  36.1388183  35.5145216  39.8384070  35.6334090
  35.8203506  38.8872004  36.7703605  43.7890196  22.2733402  23.8656044
  44.2012644  22.0429969  24.6982074  43.0594969  21.6593575  23.7815952
  84.4433001   9.3109113  49.6665335  84.6929713   8.7344617  50.3887558
  85.2724580   9.5457923  49.2499304  14.1888714  25.5954599  64.3716812
  14.4188797  25.2914929  65.2497053  14.3307865  26.5416288  64.4009542
  21.4400816  35.6627870  40.6416988  22.1188211  35.1963282  41.1295080
  21.6358829  35.4784822  39.7230458  57.9139709  22.7378345  48.8760233
  58.4073400  23.5496259  48.9935398  58.3105183  22.1248078  49.4950390
  50.7199990   3.8521124  16.6344765  50.2520310   3.5688664  15.8489731
  51.4035546   3.1932856  16.7566708  70.0293067  68.6655207   2.1323231
  70.5703833  68.2547565   1.4579752  70.0950482  69.6035953   1.9536379
  25.3007698  10.3415430  16.8988013  24.7458529  10.7529306  16.2361860
  24.7144890   9.7467840  17.3665273  49.8903349  37.2364618   3.5225609
  50.3923276  36.5241726   3.1264809  50.3215888  37.3953583   4.3622091
  40.7424593  26.3741565  20.9058189  40.0848484  25.7669401  20.5666041
  40.6746531  26.2936616  21.8572164  34.5001173   7.1530408  56.5203094
  35.1347637   6.4422226  56.6108179  34.2813325   7.1615851  55.5884886
  48.4381056  17.1358752  69.3729210  48.1339312  18.0110574  69.6132660
  49.2030478  17.2918797  68.8190651  30.5777357  63.4323998   3.8963488
  31.3689026  63.0461021   4.2719296  30.4285472  64.2236157   4.4139889
  59.9289253  68.8972636   3.8596562  59.4241932  68.9767977   4.6690682
  59.2725160  68.7288519   3.1836394  48.9635318  28.9362456   7.9432228
  49.8546153  29.1500403   8.2198027  48.5776257  29.7794320   7.7058485
  79.7248787  30.5839324  14.4718981  80.2820671  30.2898526  15.1925159
  80.0457865  31.4613748  14.2637050  57.4124673  57.0181795  42.1448830
  58.2177761  56.6705867  41.7616204  57.6605180  57.8780826  42.4843910
  67.2725728  72.0292485  69.5622921  67.1908340  71.1627788  69.1638184
  67.6780966  71.8641389  70.4134798  71.4820450  25.2692820  10.1163033
  71.4347392  24.3183781  10.2152088  70.5865663  25.5328967   9.9045113
  25.5092573  25.5914545  31.9473743  25.8656120  25.4927731  31.0644770
  26.0213280  26.3015676  32.3343563  37.0075679  25.1235151  53.9050102
  36.8229437  26.0527325  54.0417671  36.4167452  24.6708250  54.5068645
  80.5868494  42.4569893  63.0891657  81.3671040  42.6282263  63.6165285
  80.3222471  41.5702295  63.3338594  57.8426292  51.4085456   0.1670817
  58.1855133  50.8947714   0.8983114  56.9695022  51.0489519   0.0103214
   5.6284028  39.4885612  23.4979916   6.2970966  40.1145792  23.2201743
   6.0805273  38.9132690  24.1151261  27.4767876   1.9930549  48.4433699
  27.4565601   1.8769805  47.4934530  27.6760483   2.9210767  48.5670805
  33.1430793   6.8690944  44.5752335  33.7588716   6.2211490  44.9175787
  32.6653600   7.1760458  45.3458166  21.8793702  30.0279164  55.0105238
  22.1293187  29.7403121  54.1324329  22.2888112  29.3914628  55.5966234
  32.0241690  22.7237654  29.0343714  32.9763770  22.6669478  28.9549541
  31.8043399  22.1033144  29.7293139  50.3065205  20.9479880  41.2203598
  49.9009418  21.6302133  41.7554331  51.2412119  21.1535811  41.2382460
  78.2179979  74.4055284  60.3878832  79.0403846  74.8527784  60.1881886
  77.6052883  74.7234756  59.7247648  39.6613598  25.0940633  42.2482014
  38.8501048  24.7799563  41.8489075  40.3086662  24.4215226  42.0362711
  79.0009835  41.1355221   3.5683516  79.3812611  41.9056492   3.9908770
  78.0825284  41.1435149   3.8378075  40.5693913  23.4683967  54.2926645
  39.8504591  23.0861092  54.7958803  40.2943325  24.3705869  54.1294861
  10.8621595  79.7044170  54.6109056  11.2465546  80.1007894  55.3928041
  11.2990544  80.1427607  53.8806963  59.2641261  50.7197221   6.5193680
  59.7508433  49.9357106   6.7736605  59.6740678  51.4277788   7.0161942
   3.3379474   6.7231858  66.9698191   2.8379235   6.0751921  67.4661160
   2.9440492   7.5626880  67.2071218  39.4957638   7.8252238  32.9222727
  40.1248741   7.4714786  32.2935295  39.0334868   8.5100764  32.4390435
  18.9482057  21.7287374  20.7014179  19.3967891  21.0001111  20.2723408
  19.1288936  21.6058350  21.6333389  38.7003708   9.1313195  36.8320823
  39.0335250   9.6490091  37.5650477  37.9166722   9.5997560  36.5446591
  64.3030024  18.9550030  54.5963287  64.5443344  18.0287290  54.5937061
  64.6574354  19.2925286  55.4189348  33.1210327   1.1505561  44.1264153
  33.0967927   0.5643378  44.8827171  32.7683640   0.6274703  43.4065294
  17.6196897  12.8263533  33.5688949  16.7079711  12.7041817  33.3041787
  18.0045629  11.9517183  33.5130620  72.4265149  32.4364414   8.6729553
  72.5182631  33.3866485   8.7431029  71.6719773  32.2273715   9.2235878
  -0.3683839  18.3715832  30.8374834   0.1811009  19.1341388  30.6563568
   0.2272201  17.7360392  31.2344360  10.8288715  79.2440314  26.3424397
  10.0312636  79.6711614  26.6548705  10.5876681  78.3220113  26.2533832
  60.9727430  25.1214576  63.2746744  61.0590267  25.5465031  62.4213743
  60.6488514  24.2435241  63.0732822  76.8339303  37.5575935  24.2534378
  77.5201228  37.4744575  24.9156025  77.2806361  37.3911264  23.4233883
  76.1516994  12.4391448  26.3209391  76.0784256  11.8405473  25.5776072
  76.8680584  12.0823514  26.8460679  63.8230994  36.2930738   9.3882683
  64.5532277  35.7192691   9.1561201  63.8567856  36.9973796   8.7409285
  68.3526900  40.3461950   4.6814707  68.9968064  40.1911188   5.3723362
  68.3402589  39.5319248   4.1784409  31.7521691  27.5783181  45.7929325
  31.1178422  26.8967032  46.0148907  31.4260101  27.9515457  44.9740601
  76.5091136  64.4142944   9.9341768  77.3278359  64.2588968   9.4632447
  76.6422680  64.0030224  10.7882011  24.6921277  26.1628795  48.6777878
  24.6414781  25.5493855  49.4107866  23.8495278  26.0740089  48.2324123
  19.9194286  71.2182820  44.6813726  19.9345157  72.1750713  44.6577501
  20.8035371  70.9583349  44.4225073  82.4238995  80.5482326  43.2830334
  82.9363731  80.9487193  42.5807428  81.7587522  80.0308234  42.8290558
  20.9110975  46.3576698  69.3813133  20.7800484  46.7865038  70.2269840
  20.0400329  46.3385153  68.9849424  42.6291561  26.2257290  39.2770028
  43.0357790  26.0226822  40.1194143  43.3478594  26.5550184  38.7373114
  20.4863090  62.5732683  68.8605748  19.5299048  62.5395320  68.8802012
  20.6901181  63.1741761  68.1439137  76.0852218  23.1503248  53.8633680
  76.7326885  22.9215860  53.1965113  75.2406543  23.0091977  53.4355593
  17.8862095  29.1882968  45.7607889  18.1692147  30.1019430  45.7980967
  17.9462409  28.8818240  46.6656113  35.3146291  27.4046612  61.3699198
  34.7740149  26.6997814  61.0133886  35.3792644  28.0406785  60.6575012
  11.6538858   3.2528672  64.2084217  12.2215581   3.4884948  64.9422169
  10.9569299   3.9087811  64.2245436   7.8824207  61.0622901  61.2054491
   7.7562663  61.7664093  61.8414736   7.0481751  60.5930108  61.1990404
   3.9935717  21.6561031  37.7311015   3.8899350  22.4501014  38.2555604
   3.2851958  21.0822177  38.0228090   3.7286543   3.4219290   6.3301638
   2.9569697   3.0856873   5.8744457   4.1415572   2.6450468   6.7072561
  39.2960286   9.4743925  60.1747036  39.4152689   8.9124739  59.4090271
  39.2219996  10.3579903  59.8141384  17.8100982  59.9304767  12.0073918
  18.3930185  60.4647609  11.4679650  16.9744709  59.9418648  11.5406731
  54.7539139  10.2561951  45.1746225  54.4785929  10.2966619  46.0904789
  54.1602850   9.6211708  44.7739029  61.5187433  20.5364521  36.8838051
  62.2713402  20.1956006  36.4004353  61.5137747  21.4737018  36.6894558
  18.6015048  53.2888242   4.5637301  17.7150824  52.9730209   4.7391060
  19.1604861  52.5250002   4.7063616  33.4875989  31.2282562  45.6258631
  33.4462643  32.0077515  45.0718689  34.3334770  31.2939668  46.0690403
   9.6009302   2.5796820   5.0263670   9.7140026   2.8372456   5.9413031
   8.7383937   2.1655442   4.9989727  58.6795288  24.3927312  33.3003545
  57.8280717  24.6854687  33.6252522  59.2703515  24.5008636  34.0456510
  19.1012108  27.4749613  51.3891840  18.9141679  26.7124343  50.8416414
  18.5304880  27.3690891  52.1502972  33.0976510  35.2308226  41.1896706
  33.7780476  35.3430629  41.8535233  33.5309434  34.7558331  40.4805374
  27.0651531  22.0841956  54.0896606  27.1187615  21.1348867  53.9793301
  27.8348017  22.4223590  53.6319256  63.0550888  44.8585479  11.2857655
  62.6950291  44.5885917  10.4409531  64.0038493  44.8255574  11.1633232
  27.1363544  36.3111234  39.1150236  26.8987942  37.1108365  38.6457109
  26.8626451  36.4729691  40.0178623   6.0482022  80.8464995  59.6694374
   5.3457305  81.4283118  59.3791628   5.8631346  80.0130548  59.2365980
  20.2191544  28.5679889  37.0338249  20.6582785  28.0806613  37.7308989
  19.8192191  29.3149877  37.4791050  26.7313123  39.2061496  52.1924496
  26.0403943  38.8607478  52.7577496  27.4703002  39.3564963  52.7819633
  10.1262617  24.9850750  21.6303182   9.5000637  25.4194355  22.2094870
  10.5381477  25.6993508  21.1441183  34.7494292  43.9870405  66.0129786
  35.1846600  44.4509840  65.2977419  34.9375868  43.0630159  65.8486414
  36.3375640  32.7201438  38.3754349  36.4032197  32.4534059  39.2923689
  36.2554598  33.6732411  38.4085417  34.4149089   0.7961395  51.8894100
  34.3711615   0.9949514  50.9541082  33.6284471   0.2782744  52.0612335
  28.8356468  56.3985046   0.7510117  28.2853503  56.9158264   1.3390425
  29.5582799  56.0977419   1.3019875  70.0493291  65.3637834  40.8999661
  70.7070449  65.8593579  40.4120568  69.2676499  65.9157534  40.8767632
  16.2847471  50.1526880  64.7558308  16.4310336  49.2317390  64.9718952
  17.0725632  50.5994511  65.0656366  29.3620205  39.5883369  32.7922177
  29.3162847  40.5155849  32.5590849  28.4915638  39.3840885  33.1340075
  24.8905969  36.4540386  60.6444693  25.8147526  36.6591573  60.5027151
  24.8632312  35.4989195  60.7013083   6.4097261  27.2509170  58.2399130
   5.5523789  26.8272758  58.2813549   6.2399912  28.0945945  57.8208303
   6.4995360  52.5099945  65.6046677   6.6912395  52.5958443  66.5385389
   6.8200368  53.3250713  65.2184486  20.5202436  18.3799040  50.4489803
  21.2409639  18.5967016  51.0404110  20.7676673  17.5370038  50.0688076
  85.5194893  22.6668477  46.7065334  86.1698886  23.3530402  46.5570307
  85.7070275  22.3472762  47.5891066  37.1996117  33.8290572  43.3277416
  37.0246196  34.7662616  43.4129333  38.1544590  33.7622309  43.3331156
  39.1437292  13.2286513  63.3061266  39.9831820  12.8009379  63.1369829
  38.5165882  12.5083780  63.3704185  80.5506939   5.5130750  35.4896760
  81.4471033   5.8463252  35.4493594  80.5695474   4.8589131  36.1882091
   6.4398264  25.4154135  13.3540085   5.5153727  25.4195429  13.1058243
   6.9114422  25.4141833  12.5210598   3.0308604  25.0367594  31.4653921
   2.3423466  25.2687216  30.8421946   3.2772100  24.1427016  31.2283230
  34.5300674  39.9881816  61.7187881  34.2953682  40.4151201  60.8948517
  35.3389668  40.4214716  61.9911385  13.0808377  41.3461876  58.5341883
  12.2028804  41.6765022  58.7247515  13.3361185  41.7954826  57.7284575
  46.3070059   9.5787042  45.2609444  45.5561590   9.0632749  44.9663305
  46.5055609   9.2361438  46.1324120  58.7522608  17.1975267  28.6155105
  59.5779115  16.9802153  28.1827188  58.1638700  17.4405837  27.9007030
  83.3133086  25.5598577  -0.0571510  84.1727480  25.1417311  -0.1097271
  82.7307543  24.8706277   0.2619436  12.4325511  52.5818700  61.6027117
  11.8972823  52.0233697  62.1664429  11.8114278  53.2018084  61.2204552
   9.4123089   1.1471504  18.6880147  10.2641356   0.7572365  18.4915709
   8.7811840   0.5786654  18.2467246  17.1466172  33.4355736  54.0931654
  18.0178404  33.3549428  54.4813681  16.6033542  32.8285027  54.5957232
  22.0060372  10.0697827  30.3863597  21.8184209   9.1311508  30.3850555
  22.9376793  10.1275182  30.5983472  21.6778803  10.8096933  50.3491116
  21.9991350  10.1376426  49.7479677  21.2115431  11.4295626  49.7882891
  46.9406319  15.1346445  45.3210831  47.0701361  15.8782411  45.9097481
  47.7173567  14.5900023  45.4487371  33.2807541  20.3522229  59.7147989
  34.1194153  19.9578071  59.4753981  33.2691884  20.3281355  60.6716251
  46.0350275  13.9239633  63.4579992  46.4770842  13.9006829  64.3066931
  45.2088833  14.3755591  63.6305666   5.2188540  27.1797800  48.9390945
   4.5048240  27.5520277  49.4566107   5.9454280  27.0986199  49.5569420
  17.4192998  70.4612262  54.1822720  18.0116698  71.1393411  53.8574791
  17.7695701  69.6456022  53.8240814  75.9327352   0.5369795  47.5808620
  75.1850492   0.9306661  47.1311855  76.6956407   0.8441123  47.0910931
  62.7141574  58.4377321   1.8891075  63.6621311  58.3228656   1.8229225
  62.4401119  58.6813947   1.0049322  27.0177698  11.8428850  52.0112705
  26.2854457  11.2281203  52.0559978  27.6507998  11.5079296  52.6463366
  40.8412838  18.5874331  49.4177866  40.7629824  19.2511487  48.7325287
  41.7705870  18.3581054  49.4240427   9.4864428  32.9034662  25.7881737
   9.1785252  32.6980567  24.9054360  10.3899717  32.5879598  25.8061361
   1.7701650  30.0802350  52.2115183   1.3166404  29.4202757  52.7359247
   2.6620990  30.0906038  52.5587606  85.5434063  71.5746260  65.7227135
  85.2260235  71.0616261  66.4659023  85.6474880  70.9356744  65.0176334
  31.0657883  37.8808951  28.9102173  30.8073902  37.5233984  29.7597241
  31.0300326  38.8300371  29.0288925  47.3755264  24.2031670  62.0147419
  47.5310040  24.1779613  61.0705900  46.9682360  23.3599353  62.2130060
  19.5850017  75.8522912   6.1149243  18.8487330  76.2418576   5.6433562
  20.1613131  76.5908595   6.3114241  66.7181924  58.1252285   1.5880564
  66.7170194  59.0688844   1.4276055  67.6349786  57.9132636   1.7635706
  19.3458307   2.2364862  45.9279060  20.2027464   1.8679941  45.7131052
  19.3242693   2.2507407  46.8847561  29.5784807  11.4543688  66.0623837
  29.3219519  10.5588245  66.2824392  30.3134680  11.6431928  66.6457987
  22.0160404  66.6728302   3.8190821  22.5261512  65.8657404   3.8870981
  21.1422255  66.3825603   3.5575035  57.5698283  62.5869818  30.2054814
  56.9704225  62.2376939  29.5459774  57.0745113  63.2853981  30.6333950
  26.6432452  26.1109996  60.1998806  26.7018652  27.0378494  59.9680519
  25.7569504  25.8556747  59.9439096  15.3525182  78.3697005   4.6584681
  15.0227281  79.1176482   5.1565102  15.1973316  78.6040397   3.7434605
  76.3882640  28.4599646   2.3537472  77.1985677  28.6154314   1.8684939
  75.9104636  27.8218385   1.8239048   5.6199914  21.6986585  41.5021467
   6.3491565  21.9263148  42.0789671   6.0068917  21.1223269  40.8430719
  44.5349264   7.4714631  35.5619407  45.3199720   7.2327143  36.0548210
  44.8469210   8.0856788  34.8973870  23.9236212  29.0149665  46.4787579
  23.4985137  28.1754947  46.6542673  24.8155689  28.7824345  46.2207031
  13.7652910  18.2967150  32.2375655  13.0976450  18.7804210  32.7238894
  13.3410704  18.0689669  31.4102817   1.8342137  10.7153489   0.3631857
   2.7722215  10.5753685   0.4927090   1.7790985  11.5449311  -0.1111433
  20.9031102  74.3306274  45.9131670  20.3743694  74.7576780  46.5871763
  21.1407754  73.4856088  46.2948608  13.5223910  77.1463433  20.2026343
  13.4394214  78.0854494  20.0370216  14.4599673  77.0089046  20.3378916
  69.0331045  74.0353490  22.6119685  69.5544675  74.8151047  22.4211955
  68.1441990  74.2706091  22.3460174   4.5367363   3.3582950  58.1918240
   4.8077106   3.7162784  57.3464489   5.3062850   3.4585753  58.7521553
  52.6521349  17.5910115  34.4227147  52.0532084  17.5711179  33.6763072
  52.2781229  16.9687915  35.0465631  67.0732596  41.0843087  17.5027683
  67.8889826  41.2442001  17.0281532  66.7141106  40.2927680  17.1018913
  37.4076724  35.4160142  40.6965017  36.8120933  35.8482599  40.0843906
  37.4491739  36.0072279  41.4481497  27.4274325  37.7462292  67.8671741
  27.6650500  36.8536758  67.6159430  27.1105480  37.6655102  68.7667847
  27.7527332  45.8613443  21.0626984  28.1660223  46.2536335  20.2935886
  28.3085561  45.1121998  21.2773561  49.6776083  56.4211615   7.5208214
  49.4319442  55.6538649   7.0039681  49.4053629  56.2061723   8.4129503
   1.4975521  53.9263267  63.6368799   1.2806508  54.7378415  64.0958261
   0.9369132  53.2647652  64.0421629  71.1099818  48.5473295  29.3416622
  71.5627816  49.3854084  29.4356373  70.3792527  48.7346389  28.7524441
  75.1511576  66.8246027  10.2300194  74.7114089  66.9619652   9.3909815
  75.5433228  65.9546300  10.1552990   4.2285559  63.4365804  29.4624782
   5.0984332  63.1000835  29.2472744   3.8210485  63.6074836  28.6133814
  76.6293195  65.0644762  29.7240591  76.5119687  65.3825945  30.6191897
  77.0397940  64.2058904  29.8268819  23.3573222  14.1925991  63.8591433
  23.2763290  15.1193857  63.6338902  22.5506091  13.7950695  63.5313988
  48.8980865  13.0641544  69.8425913  48.0562735  13.3154404  69.4625425
  49.5460129  13.5485697  69.3309593  55.6487656  29.9124956   7.2432578
  56.1146688  29.2501187   7.7535713  56.1027431  29.9288249   6.4007217
  66.3811424  29.4703396   4.3847540  65.5391720  29.3276604   3.9523676
  66.8203595  28.6210378   4.3399599  13.6255896  22.2643852  47.0917797
  13.0038428  22.6511812  47.7082634  13.2130933  21.4452195  46.8178415
  31.1956835  41.3650179  40.3204679  31.9823050  41.6320086  39.8448873
  31.0906649  42.0291948  41.0016966  27.6229811  20.9580541  62.2646332
  27.6340413  20.1186371  62.7245140  28.4860992  21.0182333  61.8551970
  26.6396213  23.3366466  62.8216887  26.7355490  22.4502373  62.4733973
  27.5239420  23.5852623  63.0907631  64.0355876  31.3338073   4.1448382
  63.2175091  31.0550113   3.7334374  64.1370490  30.7495936   4.8962572
  39.4231549  44.0224545  15.3657273  40.2786341  43.9696555  14.9395779
  38.8825062  44.5247742  14.7561386  45.6099796  22.0840645  61.8922520
  44.8726130  22.6735806  62.0503378  45.5749273  21.9032073  60.9529495
  51.1165693  35.0917151   6.3289145  51.0016253  35.2579971   7.2645262
  50.2255586  35.0528457   5.9813240  50.8490422  42.8528427  19.7076252
  51.0599950  42.5540554  18.8230637  50.1471951  43.4917953  19.5835999
  17.0800397  60.5028767  45.8048534  17.1054504  60.4462928  46.7600393
  17.9105422  60.1215214  45.5201483  13.0873844  43.3621075   0.3198794
  13.9572736  43.2868566  -0.0723717  13.2378599  43.2534139   1.2589052
  17.4017358  52.1398497  69.3720627  17.9017544  51.3660717  69.6318388
  16.7739952  51.8139648  68.7271070  81.9584065   6.9647051   2.2572926
  82.5686770   7.1584584   1.5457705  81.8755584   7.7909352   2.7334383
  16.1995351  20.4949594  38.9457560  16.8252361  20.8572674  38.3184886
  15.3625882  20.5035353  38.4813452  63.4909201   0.2284493  33.2011700
  64.1186476   0.9495852  33.2475877  63.2163239   0.2085681  32.2844195
  77.2642043  36.4524924   7.0058754  77.3565533  35.5152016   6.8350247
  76.8825772  36.8059595   6.2023476  29.6497726  36.4537048  41.0143328
  29.2847919  36.0187340  40.2437353  30.4272962  36.9066334  40.6879187
   6.2315309  46.6919756  63.0519199   5.4091549  46.2022686  63.0627775
   6.5787548  46.5574837  62.1701145  34.0446782  10.8263969  41.6487408
  33.1084704  10.7708967  41.8402290  34.4525647  10.2244210  42.2712278
  29.5176220  39.8803782  38.6124158  29.5582056  40.5721807  39.2727160
  30.4317451  39.7169590  38.3802414  63.6862853  55.3363605   7.9241398
  62.9513076  55.6043967   7.3725966  63.4875467  55.7061656   8.7843588
  71.2533429  63.8421841  16.7060593  70.5972960  64.1073533  16.0614517
  72.0869735  64.1234728  16.3290051  74.9040681  40.3148460  68.6211252
  74.4396752  39.7339654  69.2237425  74.7592610  39.9290228  67.7571821
  21.3010189  36.8246411   1.5794256  21.2015649  36.9228237   2.5263670
  21.7170068  35.9695743   1.4696673  18.4124422  30.1030707  68.3930254
  18.6048341  29.2238188  68.0672407  17.4910212  30.2430511  68.1748056
  23.5939336  40.2351475  27.9510903  23.2166338  41.1148500  27.9504585
  22.9308963  39.6904683  28.3752823  31.3692951  15.5328286  34.7483826
  30.8819079  16.2437844  34.3321776  30.8142519  15.2568495  35.4777646
  16.6321516  18.3334589  22.2463274  17.2000182  17.9913259  22.9367661
  16.2923312  19.1550624  22.6008987  14.4238532  26.5325975  37.2409511
  15.3278172  26.7061353  37.5035644  14.1930270  27.2696090  36.6754723
  81.3379380  15.5928946  59.7583485  80.5286336  16.0194552  59.4767380
  81.2997660  14.7219968  59.3629837  84.7074424  42.0017719  66.5923882
  84.7052216  42.9258490  66.8420124  84.0448101  41.9378805  65.9045887
  49.0908623  31.0597849  46.2590122  49.6635818  31.6661811  46.7285967
  49.4718122  30.1966786  46.4207411  12.2098517  13.7926651   8.8817099
  11.3028454  13.9022519   9.1672972  12.7182745  13.7950922   9.6927193
  36.1716390  43.6822033  63.5006237  36.6519737  43.2763481  62.7789640
  35.7035494  44.4125509  63.0960083  44.8636308  77.8904100  39.3222073
  45.5731335  78.3279749  39.7927120  44.0908375  78.4256883  39.5024803
  22.7222657   3.7591463  43.2196522  22.1549129   3.0769822  42.8604937
  23.5197711   3.7094161  42.6926422  20.3520489  40.7009602  20.8437610
  19.5193517  41.1112642  21.0772157  21.0136747  41.3520575  21.0773325
  16.9406426  26.7712831  53.0908012  17.0228016  27.6180673  53.5294771
  16.0008502  26.5896058  53.0948877  13.3676803  27.9137421  67.2289038
  13.9782166  28.1023645  66.5162325  13.3002722  28.7379289  67.7109861
  28.4319162  58.6830854  63.3047819  28.8401961  59.1880274  62.6015186
  29.0617061  58.7222767  64.0245438  32.9701376  24.3967104  56.7366409
  32.5287318  23.6589122  57.1574068  32.3223209  25.1012969  56.7476463
  36.3933444  33.6313224  31.2937188  37.2389531  33.8607264  31.6791463
  35.8248520  34.3717384  31.5054536  18.2180640  76.0708014  29.6469402
  17.3623941  76.1340759  30.0712729  18.0725047  76.4077172  28.7628961
   3.5528633  72.7400156   6.9410446   3.2776663  73.4838982   7.4768952
   4.0218469  73.1348511   6.2059286  34.8150161  65.3071781   0.8845642
  34.0441993  65.5556222   0.3743199  35.3453168  66.1032506   0.9203842
  42.7714157  21.3533497  47.7550650  43.2916355  21.5120411  48.5427332
  41.9603443  21.8400908  47.9016209  18.6376703  15.9447825  62.7150917
  18.9496565  15.5916286  61.8819189  18.5494637  16.8849921  62.5587082
  65.5723288  65.8903237  15.7586411  65.2552369  66.6379233  16.2653759
  65.0588897  65.9132357  14.9511269  78.1966639  23.9403749  70.1455069
  78.8316584  23.4534359  69.6202469  77.3446035  23.6641479  69.8079824
  69.2872828  28.5952091  58.9373493  69.4603199  28.1217599  59.7510672
  68.4694546  29.0643740  59.1024923  28.1675386  20.5129004  25.3737712
  28.6316895  21.2764335  25.0305343  27.2563434  20.6500697  25.1146579
   9.5742935  11.8380249  42.9291725  10.2628207  11.1800003  42.8334332
   9.8550010  12.3720241  43.6723280  35.9141135  26.1972857  41.3951397
  36.3444376  25.3428364  41.3639593  35.1165414  26.0454178  41.9021368
  59.1185954  74.5517846   4.7839955  59.5699337  73.8678380   4.2892817
  59.7970584  74.9302288   5.3431872  17.0205867  27.9559159  26.8102169
  16.2420344  27.3990989  26.8037057  17.4852848  27.7085543  27.6096535
  51.1836243  14.4925046  32.1933508  50.9028101  13.8001359  32.7916813
  50.7573938  14.2791569  31.3632631  50.5922842  25.0920987  46.6551924
  50.8547544  24.2182446  46.3658524  51.2244701  25.6808400  46.2429333
  43.5014429  76.7959567   3.6963824  43.8231852  75.8954306   3.7384394
  43.8367143  77.1314975   2.8649739  55.8209327  68.4298249   4.9264696
  55.0196054  68.9472981   5.0060156  56.1548283  68.3662816   5.8212927
  80.7723000  57.5850340  18.5542324  79.9380496  57.1216651  18.6287239
  81.4138844  56.9861003  18.9361790  39.8430037  19.7418749  69.7126389
  40.6236935  19.3568885  70.1108074  39.2465448  19.8873746  70.4470062
  45.8033037  41.7409468  62.7054930  46.1784840  40.9986544  63.1792784
  45.0421953  41.3766527  62.2535658  83.5055306  62.9979869  28.1960705
  84.2447856  63.5671445  28.4100655  82.8140595  63.5982033  27.9170731
  40.9466600  41.2172222  37.0168591  40.9385443  40.4082394  37.5284386
  40.0363684  41.5131521  37.0222425   9.7415039  47.2796830   3.2125118
   9.8072883  46.5765264   3.8586357  10.6495592  47.4965068   3.0011919
  73.8342899  13.1247403  23.5742405  73.5655957  13.5668398  24.3795803
  73.1377464  12.4902512  23.4054783  57.0380354  61.1022663  58.6721563
  57.0787001  61.9754219  59.0622473  57.5492382  60.5511427  59.2647552
  78.3871698  65.7943010  60.9534168  77.8663540  66.4903212  60.5527401
  77.7402020  65.1955605  61.3264799  47.8395796  47.4837875  56.1391401
  48.1379795  48.3666849  56.3575029  47.1108103  47.3222303  56.7383242
  44.6120167  51.6173601  60.6729937  44.1059589  52.3826456  60.4000807
  44.2368174  50.8917475  60.1740503  21.5637421  17.0570494   6.1413267
  20.9037613  17.1064879   5.4498032  21.0594201  16.9320752   6.9452408
  62.4185848  71.9274521  56.9435263  63.2919312  72.1703768  56.6361427
  61.8235302  72.2989130  56.2922525  78.2312870  70.6700230  56.3289785
  77.4185848  70.8913136  55.8742476  78.5410261  71.5028715  56.6848707
  60.1038742  73.5403872  54.7831583  59.7665405  73.9694405  55.5695105
  59.7433805  74.0511227  54.0582943  45.5582118  37.1626498  10.9189060
  45.8053135  36.3734700  11.4009503  46.3394236  37.3896815  10.4145268
  55.9981966  46.1167431  21.2442875  55.1552057  46.1538839  20.7923794
  56.2255812  45.1869678  21.2510276  40.4732060  24.4897915   7.3230341
  40.5682110  24.1200663   6.4452484  41.2523150  25.0335289   7.4395159
  67.1492577  77.3694992  57.4212837  67.0426035  76.4452076  57.1964693
  66.2942171  77.7600956  57.2408009  30.1967072  34.0313412   7.8545073
  30.5780816  34.7953631   8.2870081  30.6582951  33.2847382   8.2362822
  41.4114475  73.9680910  12.3846066  40.7092953  74.6053314  12.5154924
  41.0825396  73.3867264  11.6989946  60.8942464   3.8040977  53.4101152
  60.1740578   3.6805492  52.7918196  61.2250212   2.9206138  53.5721731
  70.3093195  67.5983906  66.9795465  70.0631094  68.1863689  67.6936150
  69.4799232  67.3726511  66.5583849  58.3898067  56.2852001  45.4048824
  57.5165415  56.2272930  45.0172138  58.8062334  57.0166063  44.9489594
  66.9844437  79.7073126  48.9544392  66.1178923  80.1047707  49.0401125
  66.8160105  78.7650871  48.9459658  13.4570330  72.4739647  51.9298840
  14.2092055  72.9114962  52.3286819  12.8443354  73.1825829  51.7331696
  70.3820229  57.3637295  36.3125014  70.7514095  56.9243336  37.0784736
  69.7934484  58.0250740  36.6764116  47.1707869  47.4207830  39.5856452
  46.3399506  47.3560858  39.1147351  46.9288921  47.3496771  40.5090427
  57.6531961  20.4269176  60.8000183  57.8141263  21.3659340  60.7074308
  56.9375661  20.3678184  61.4329624  69.4557571  73.5173130  57.9267025
  70.3758955  73.7808943  57.9165745  69.1130352  73.8753939  58.7455750
  66.2486792  60.1953697  64.7393274  65.9980965  60.9805346  65.2261066
  66.2302971  60.4665327  63.8215208  80.2241757  18.8347583  65.0509787
  79.3255570  19.0887695  65.2612257  80.1330569  18.1922012  64.3473864
  58.6275148  55.4247904  21.5538645  58.7483835  55.4975080  20.6071138
  57.7167177  55.1496363  21.6586041  68.8421505  59.3241526   6.5508679
  69.5332497  59.1623999   5.9086397  69.3079227  59.4479395   7.3778895
   7.2940561  10.7211166  20.8414578   7.3255274   9.8106819  21.1353135
   7.7553674  11.2090545  21.5236139  74.4710827  52.6362038  48.0427122
  74.5758867  53.2798100  48.7434387  74.7749853  51.8133545  48.4258556
  29.7932929  65.0396538  61.3876867  29.5516795  64.6586466  62.2318983
  30.1954383  65.8793068  61.6101599  55.7779169  49.4596529  67.5539970
  56.2394619  50.2975845  67.5868511  54.9358177  49.6333981  67.9746103
  77.6631263   0.4932075  67.5526667  77.3477033   1.0488277  66.8399000
  77.9272321  -0.3204388  67.1231842  28.5461592  44.5559718   8.7449387
  28.8664412  45.4579855   8.7490061  27.7674174  44.5808245   8.1889036
  12.9154986  42.9032707  25.6902552  12.5290603  43.0167150  24.8219061
  12.2239035  43.1682253  26.2966633  78.0272532  44.3945456  33.3495307
  78.0730772  44.7776937  34.2255044  78.6394119  44.9141836  32.8285003
  49.9315929  71.3659143  15.9033144  49.9073029  72.3078299  15.7346857
  49.7882891  71.2876749  16.8464863  58.4073782  59.6893167  54.2279625
  58.5618448  60.0845909  53.3699799  59.0852261  60.0645399  54.7900724
  28.0510640  23.4848954   4.6723917  27.6756119  22.8499152   5.2823666
  27.3592877  23.6363484   4.0283945  13.8636562  27.1001011  50.9356451
  13.3343145  26.3395935  50.6955338  14.3901655  27.2809272  50.1569796
  71.1218360   3.6615234  33.3747292  71.4966252   4.1947609  32.6737118
  70.2835896   4.0796142  33.5716367  61.0404348  63.5802984  48.1324530
  61.6345024  63.4528112  47.3928165  61.3001108  62.9116344  48.7662411
  49.9795485  70.1220560  39.8710060  49.3419170  70.4821110  40.4874611
  50.7720709  70.6385660  40.0171709  80.3985119  76.8099594  68.4841967
  81.2636185  77.0438576  68.8205099  79.9344873  76.4554882  69.2426586
  57.8151369  77.9653454  35.1399922  58.6060333  77.7265406  34.6565843
  58.1343794  78.2476854  35.9970808   1.7847937  68.7115431  40.7361555
   2.3606128  68.6247540  41.4958429   1.2127894  69.4480371  40.9520769
  77.6616049  67.8622246  59.1026354  77.8557730  68.4636259  59.8215580
  77.8244972  68.3748913  58.3108854  19.2441386  43.5607910  13.3669651
  20.1360053  43.7615204  13.6507130  19.1990870  43.8885260  12.4687493
  56.3425446  67.1374178  44.3485546  56.3811111  66.6402054  43.5315323
  57.1078348  66.8447161  44.8434114  61.3966417  48.5656452  51.7271471
  60.4509163  48.4884214  51.8531370  61.5145016  49.4227076  51.3175249
  20.8451101  14.9478202  58.2300806  20.4498836  15.5359989  57.5865984
  21.4173052  14.3790203  57.7150154  58.1324720  36.4539099  50.2180719
  58.4970045  36.4717197  49.3331814  58.3296633  35.5745530  50.5406857
  74.3462276  49.7173452  45.7858562  74.6320772  49.3692064  44.9412727
  73.9708948  50.5729103  45.5776072  65.0323296  62.2870779  33.2092834
  65.7727957  62.8490734  32.9810214  64.6313143  62.0660925  32.3686981
  13.4267828   5.1466709  61.1565495  13.6483881   5.5913692  60.3384018
  12.6315948   4.6540027  60.9535980   2.1682855  54.5639949  51.1625338
   2.5501796  55.4228550  51.3435173   1.9037458  54.2337566  52.0211315
  57.7700377  78.5597944  60.2025747  57.9006243  79.0369034  59.3830967
  58.6551571  78.3567190  60.5051517  57.3225689  64.9963093  55.5429459
  57.9098701  65.7072783  55.2863646  56.4700985  65.2504826  55.1894999
  25.1914331  37.0216709  65.0142241  25.1893541  36.4143043  65.7540464
  24.4812318  36.7149311  64.4505262  61.0824203  73.3232975  51.6851425
  61.3264036  74.0586042  52.2473097  61.8775892  72.7938700  51.6247034
  55.9924316  57.9332113  49.6353769  56.2563801  58.1900311  48.7518597
  56.8172073  57.7985048  50.1021051  38.3383822  70.4105043  47.2639656
  38.4165430  71.2931728  46.9019985  37.9688668  69.8907566  46.5501356
  74.3475103  51.3968515  22.9058075  74.2786312  52.2053385  22.3980331
  73.4669733  51.2570381  23.2541394   4.0875930  74.9070358  26.9545698
   3.4670085  74.5830154  27.6073480   4.7673053  75.3449106  27.4669003
  24.1255402  23.8596608   3.1312969  23.1808972  23.8325097   3.2834271
  24.4115996  24.6736552   3.5458115  74.5549300  68.3781977  23.1167534
  73.8411572  68.9976426  23.2685593  74.6151784  68.3110448  22.1638134
  61.6057301  52.9991817  46.6462803  61.6789007  52.1936369  47.1581173
  60.7349443  52.9538107  46.2514353  60.1110077  71.0276175  59.6635294
  60.4058456  71.0863352  60.5722904  60.8619690  70.6687069  59.1907978
  69.1205906   9.5216586  16.2031487  68.3625817   9.9630000  16.5863827
  69.6381592  10.2275349  15.8157280  33.9559004  13.2531219  40.7411098
  33.1905958  13.4335189  40.1952314  33.9052412  12.3145252  40.9219408
  35.3799223  16.9605996  13.1369427  35.2631926  17.3815514  13.9886502
  36.1254048  17.4155070  12.7450970  54.7401524  61.0598993  60.5859327
  54.6530914  61.9595718  60.9009647  55.2121878  61.1409473  59.7571707
  39.0820097  19.2610384  19.4734028  39.9908089  19.0166308  19.6482781
  38.8545823  19.8613860  20.1834038  11.1820817  38.4794117  11.1639240
  11.4249491  38.7956692  12.0341137  10.2314448  38.5851599  11.1273506
  59.8513079  39.0284014  54.2171288  59.7972202  38.7327266  53.3083487
  60.5695868  39.6610904  54.2208052  26.7493033  23.4822346   1.8022516
  25.8024096  23.5702015   1.9112709  26.9860577  24.1807009   1.1920717
  33.0904126   9.8661257   3.1623295  33.0870556  10.4038979   3.9541796
  32.6492190  10.4045321   2.5052860  37.3553109   4.0003563  29.7810391
  38.1322312   3.7839343  29.2654923  37.0765423   3.1650664  30.1562813
  78.7099171  58.7812662  49.8437262  78.7185335  58.4412718  50.7384634
  77.7884769  58.7539244  49.5859814  28.2572054  36.4094426   9.5377854
  27.4692559  36.5244414   9.0066174  27.9310297  36.3142659  10.4326561
  39.6708512  72.6077461  21.5178800  39.1930580  73.3758974  21.2050009
  38.9887333  71.9674540  21.7202854  56.4099431  10.0693537   4.4315842
  56.2073445   9.9140288   3.5090569  56.4844822  11.0209347   4.5035151
  38.4738111  79.0030193  64.8218727  39.1945648  78.5420656  64.3926096
  38.4840870  78.6780453  65.7221651  79.9468374  32.4205589  45.8661127
  79.2875004  31.8891907  46.3123798  79.8201418  32.2288275  44.9369049
  54.4017792  68.0576992  39.7052956  54.2893600  67.6487255  38.8471961
  55.3267860  68.3020735  39.7348189  36.1903211   3.7603527  59.0284681
  37.1296331   3.8867336  58.8945150  35.8734914   3.4159904  58.1934404
  25.1182699  54.0750217   8.7699807  24.6012211  54.8295021   9.0522140
  24.9774933  53.4192276   9.4528747  49.8230314  53.9983177  48.2650709
  50.4742479  54.4970846  48.7584066  49.6127701  54.5548725  47.5152254
  59.8395491  56.2902021  34.4076395  58.9734364  56.2013865  34.0099096
  59.7511196  57.0271349  35.0120735  70.7638454  79.5138168  59.0817118
  70.5057001  80.4350281  59.1127539  70.1139212  79.0646076  59.6221256
  61.6116524  76.7583036  47.9140711  61.4937353  77.6319027  47.5410318
  62.3186874  76.3709545  47.3980427  43.6622262   6.8935420   0.8583906
  44.5402693   7.1810271   0.6081370  43.7099862   6.7760970   1.8071583
  75.0349569  76.0085440  25.8170509  75.0704718  76.2895727  24.9027228
  74.7082567  76.7737484  26.2902951  28.0239462  20.5076243   2.4344233
  28.1401610  20.5994345   1.4887503  27.1735882  20.9098698   2.6114014
  84.4657993  52.5037050  51.0146475  84.1556835  52.7440214  50.1415443
  83.8815022  52.9693985  51.6129446  69.6202707  69.0656376  40.2897263
  70.1244164  68.5509253  39.6595311  68.9786673  69.5352030  39.7567272
  75.4295540  73.1984520  33.0618572  75.8395576  74.0429688  33.2487297
  75.9372473  72.8417873  32.3329735  12.9985308  39.4586207   5.9161976
  12.6364493  39.8319079   6.7198113  12.4582028  39.8261095   5.2167538
  60.2238083  68.7675047  49.8282146  60.2810001  69.7107697  49.9805641
  60.8049536  68.3832073  50.4845810   2.1526164  66.5803242  38.4459972
   2.9956263  66.4788389  38.0041075   1.7125148  67.2807312  37.9643607
  71.1353350  66.0111952  46.5068436  70.6111097  65.5395699  45.8595467
  70.5329466  66.1692190  47.2337484  51.9146538  64.9387550  25.6904864
  51.2687302  64.5772123  25.0836039  52.7588701  64.6598816  25.3358626
  27.5999188  21.5469958  17.5504330  27.4395632  20.7904841  18.1145313
  28.4673905  21.8586184  17.8085163  46.2243580  15.7238938   8.5118225
  46.5898299  15.5331541   7.6479462  46.3003516  14.8990418   8.9914873
   6.2414503  22.3945118   3.2984284   5.3953790  21.9670083   3.1656292
   6.0212445  23.2581355   3.6475590  68.0620718  51.7270136  34.8809576
  68.6131334  51.6873598  35.6626129  67.1664810  51.6977453  35.2175570
  37.0492339  21.3472964  17.4063519  36.7166209  20.4516913  17.4654797
  36.7785620  21.6464926  16.5383366  66.5453482  50.7601070  67.3923779
  66.5238285  49.9061680  67.8243017  65.8076382  50.7388592  66.7828178
  11.6306659   5.0873428  46.9094419  12.5706789   5.0190502  47.0765972
  11.5084430   4.6722561  46.0556269  21.3190147  80.6158324  28.7310055
  21.6245195  79.9919935  29.3895844  20.5086776  80.2323576  28.3955506
  30.5830740  21.6580512  31.2691715  30.0313544  21.0317398  31.7377594
  30.7095789  22.3764016  31.8890122  54.6624112   1.1221720   5.1556423
  54.3492245   1.1496569   4.2515448  54.9934315   0.2310206   5.2674607
  49.3993855  79.7763443  60.0549316  49.1496134  79.0178156  60.5826426
  50.0925589  80.2015877  60.5598164  54.1360017  23.4237819  28.5769796
  54.0879461  23.6188656  29.5128560  53.2628080  23.1009155  28.3544707
  14.7153866  67.3174906  67.6606655  14.8374999  66.7571640  68.4270573
  15.5947101  67.4206257  67.2968197   8.6707279   4.8716407  58.9368105
   9.5423719   4.5919185  58.6571312   8.7980863   5.7627922  59.2621851
  68.3877134  49.9639845  59.9135160  68.9626980  49.5186090  59.2912102
  68.2474375  49.3233824  60.6107855  10.3679198  70.0360584  40.3065348
  11.0454673  70.6794453  40.5144024   9.6215075  70.5598307  40.0153828
  52.3214579  53.9657450  70.1007462  52.6958466  54.8253107  70.2936363
  52.8090572  53.6581182  69.3366480  78.7213326  63.3293724  46.7270088
  77.9753304  62.8681564  47.1104050  79.2491579  63.5978556  47.4790382
  31.7699265  11.0055758   0.6300619  31.1521554  10.6642081   1.2766388
  31.3065695  10.9349181  -0.2045271   0.3297061  78.3610773  50.0998449
  -0.1956445  79.0901661  50.4294968   0.3777045  77.7491283  50.8343172
  60.9618044  80.5273151  61.5805292  61.4485216  79.7406864  61.8265915
  61.5291309  80.9730148  60.9514666  55.4386759  50.9432411  58.0250645
  54.6364069  50.4723454  58.2505798  55.8761549  50.3793049  57.3872423
  71.8650630   2.8342205  59.8969173  71.7151931   2.8453880  58.9515877
  72.8145030   2.7535587  59.9879599  69.7475934  25.1526762  15.7137230
  70.5727601  25.3998972  16.1311176  69.4239640  25.9645440  15.3233937
   5.8109259  29.5330359   1.5192822   5.4458260  28.8882090   2.1251944
   5.1019740  29.7086169   0.9005812  53.3442831  65.2518845  59.4861984
  52.8000641  65.9824228  59.1923094  53.7688255  64.9337959  58.6894417
  30.4805016  41.2582709   4.2234066  30.3405642  41.8884207   4.9302080
  30.4129147  40.4031111   4.6480873  12.8997015  45.6844546  10.6698349
  12.5846934  45.9661795   9.8109797  12.8159022  46.4615466  11.2224129
  30.1233244  76.7339611  48.0891895  30.6551123  77.1607971  47.4174404
  29.8012114  75.9366083  47.6688290  15.2282306   8.4925132  36.4249516
  15.2388689   9.2541843  35.8453178  16.1147043   8.4522205  36.7837977
  74.7655010  71.5771627  50.2402067  74.9322748  72.0308781  51.0663795
  75.4427958  71.9026136  49.6472597  60.4312658  39.2792606  46.8007278
  60.1187849  39.6328926  45.9679461  60.4093456  40.0247002  47.4007893
  53.6888123  53.0167580  56.6681194  53.7803555  53.2120371  55.7355309
  54.4986582  52.5612354  56.8980646  31.4441606  28.8219219  54.0093184
  32.3714754  28.5916477  54.0666437  30.9859678  27.9824978  54.0501118
  22.7161812  44.4826914  11.0384968  23.6141753  44.7205187  11.2693241
  22.4858021  43.7888838  11.6563919  11.5803548  78.1641837   0.7952622
  12.2248336  77.4613686   0.8784798  11.1851284  78.0260416  -0.0655195
  73.9054060  59.5716047  40.8048153  74.7507477  59.6156836  40.3579521
  74.1011810  59.1628027  41.6478968  34.7797275  71.1959648  45.6788635
  34.4610500  70.6803226  46.4196682  34.1142631  71.0780191  45.0010204
  33.4998011   4.0852763  41.1012295  32.5925517   4.3135430  41.3037804
  33.9581751   4.1600253  41.9382027  19.4429228  29.0482383  34.4411969
  19.0866110  29.9352985  34.3922067  19.5004150  28.8646656  35.3788686
  44.6941042  64.7220373  50.9010553  44.7400522  65.6763029  50.8419371
  45.4333258  64.4137239  50.3769112  55.2587414  72.2349834  45.8435154
  54.6346903  72.8264141  46.2642336  55.9395599  72.8119516  45.4973602
  11.2538931  64.9897500   4.4670370  11.8811056  65.5299850   3.9864329
  10.6605884  64.6556874   3.7942627  58.1190514  33.8146712   1.4404133
  58.3670926  33.8838793   0.5185011  57.6079487  34.6058203   1.6109732
  65.8645010  58.3120060  26.3871479  65.0571823  58.1742287  25.8916855
  65.5815649  58.3480549  27.3008657  35.4098963  30.5204894   3.3032110
  36.1435484  31.1324860   3.2445553  34.6811223  30.9794928   2.8855589
  68.9516592  62.6143265  64.2669916  68.6335754  63.2308817  64.9264717
  68.5440302  62.9048729  63.4511137  21.8508267   6.1230589   7.8146294
  22.1961522   5.9971978   6.9308117  21.0463595   5.6046893   7.8335217
  15.4311058   1.3171821  45.1588631  15.7663461   0.7912307  45.8849621
  14.4990274   1.4223629  45.3496456  83.7137318  14.5913136  60.7972765
  84.4470024  15.1829219  60.9662485  82.9861259  15.1704156  60.5704308
  48.2744002  16.5352656  13.3982208  47.4321532  16.0805060  13.4050015
  48.9208292  15.8443381  13.5430649  20.6565022  45.7586123   6.3121393
  19.7782778  46.0100008   6.0262039  20.8940339  46.4179732   6.9640949
  37.7099916  12.3512416  25.3052473  37.7189657  12.9673343  24.5727348
  38.6039087  12.0110756  25.3430653  84.3898773  77.2824955  42.1204090
  83.7153816  76.7056513  42.4789381  84.0060425  77.6277733  41.3143778
  63.5660219  57.4167490  60.0892448  63.8485289  58.3196545  60.2348089
  62.9771185  57.4684620  59.3364143  54.6119452  70.0830078  52.6564455
  54.9833155  70.7106447  53.2764339  55.2713776  69.3922949  52.5908995
  63.9213514  45.5301714  48.2131004  64.5926046  44.8999023  47.9515457
  63.8643599  45.4385328  49.1641951  83.0215075   3.5198455  43.0489254
  83.8186076   3.4973770  42.5194359  82.3546079   3.1138378  42.4951839
  19.3823737  52.9118872  26.4390945  19.4712275  53.8644075  26.4069152
  19.0997142  52.6677895  25.5577588  78.7918043  80.2462196  52.0594215
  79.4786358  79.5875788  51.9560289  77.9989958  79.7398090  52.2361612
  67.9897833  66.6805649  45.5889082  68.5195780  65.9812164  45.2062035
  67.2670364  66.7982101  44.9724436  44.2479467  53.8414335  58.7160158
  45.0371075  53.9494371  58.1851721  44.2566442  54.5895767  59.3130398
   1.6884345  40.0337553  48.0441523   1.0484141  40.7378483  47.9399824
   2.1295756  39.9836826  47.1961451  59.7369194  69.3142033  39.4103003
  60.1408911  68.4974146  39.1172171  60.4587793  69.8161077  39.7887611
  76.4749765  63.9243460  61.2951899  75.8739758  63.5942793  60.6272984
  76.0271406  63.7565422  62.1243572  16.6899478  56.2273121  67.2469997
  16.7522013  56.8385410  67.9809999  15.9128451  56.5101910  66.7650032
  15.5191535  52.2347069  28.3796120  15.1438540  53.0834770  28.1451583
  16.4640254  52.3869514  28.3961344   4.4510338   1.5079551  49.8547506
   3.5874435   1.7059951  49.4924974   4.5829412   0.5790001  49.6653080
  59.7434044  74.7994041  43.3574629  59.0335798  75.3940535  43.1150389
  60.2819300  74.7351503  42.5687313   7.0063514  79.7735500  56.1298561
   6.3127631  80.3976345  55.9161329   6.9468516  79.1060209  55.4464102
   5.0173065  18.4711986  51.7117929   5.0845882  18.7310367  50.7929945
   4.1997549  17.9758411  51.7613554  59.1418078  11.8611103  56.0347271
  58.8425186  10.9570842  56.1315966  59.3223360  11.9547229  55.0993776
  22.3194193  44.0019061   4.5116356  21.8245530  43.1913973   4.6316841
  21.9970726  44.5835520   5.2001265  78.8359928  67.6060486  38.7583566
  78.9809465  66.6757870  38.9311004  78.6980867  67.9916620  39.6235251
   3.2479641   0.0808292  56.2037945   2.6698991   0.7796245  55.8976078
   4.0295049   0.5363708  56.5167046  73.4412241  67.3042440  46.0205221
  72.6322985  66.8223286  46.1926317  73.4499550  67.4262810  45.0711775
  68.8510060   4.9638583  34.2733601  68.7494206   4.5778538  35.1433686
  69.3239903   5.7815625  34.4278744  56.4968109  43.1580305  66.6661835
  57.0248413  43.7233257  66.1023951  56.2286758  43.7245035  67.3896790
  81.0616589  57.2030401  69.3265533  81.4176083  57.7507257  70.0262499
  80.1967049  57.5728130  69.1494751  57.0076990  55.4201937  27.0925331
  57.8252792  54.9358273  26.9777131  56.6398859  55.0793886  27.9078841
  43.7922668  63.4906673  52.9375601  43.3210421  64.2136240  53.3517027
  44.1135359  63.8553476  52.1129227  80.5832723  60.2673980  19.4687203
  80.7631781  59.3522604  19.2533425  79.6686986  60.3971692  19.2178372
  15.4586672  71.8787028  22.7505997  15.5486464  71.0605170  22.2620228
  16.1642050  72.4343134  22.4193314  64.6744251  55.3762960  67.4380112
  65.3930998  54.8846388  67.8355217  63.9103699  54.8089743  67.5409508
   4.4053668  63.0707455  41.5120173   4.0221614  63.8471079  41.1037874
   5.1049346  63.4132814  42.0683575  68.5505533  40.6963968  51.4961481
  68.3042812  39.9350786  52.0214891  69.2163897  41.1429882  52.0190763
  32.2573256  15.3059937   9.7281960  31.8057036  15.8679320  10.3578785
  31.5579628  14.9503256   9.1799048  64.8431063  56.3507175  36.7560410
  64.6841288  56.5368891  35.8306789  64.3418503  55.5539417  36.9296074
  25.0647566   8.3985954  37.0991850  24.2832777   8.4764534  36.5519667
  24.7390005   8.4826141  37.9953170  30.4159164  67.5497723  62.2132826
  30.0432372  68.1549358  62.8544664  31.2853622  67.3430681  62.5561666
  56.7541218  57.8144836  53.1024075  57.4795103  58.2769251  53.5221481
  57.1687174  57.0816565  52.6470947   8.7418479  41.9652748  56.3365316
   8.1059474  41.2686777  56.4996719   8.4157294  42.4087000  55.5534267
  57.1677685  60.9193659  32.9443336  57.5673103  61.0797596  32.0894217
  57.2384167  61.7567492  33.4026241  72.3759460  66.7718935  43.1827974
  71.6144133  67.3117113  43.3946896  72.0765781  65.8725405  43.3160925
  78.2966614  47.2753477  52.8534651  79.0336084  46.9376850  52.3444223
  77.9059696  47.9460526  52.2933340  35.1637911   9.5553948   1.1102942
  34.6900105   9.5611645   1.9419983  35.7827591   8.8298680   1.1922720
  58.6051512  56.1240959  52.1506453  59.4969940  56.3704920  52.3958683
  58.7133694  55.5742407  51.3746405  49.8651695  63.6266661  48.8166571
  50.7924366  63.3893871  48.8268852  49.8614168  64.5812416  48.8874292
  64.8055506  30.2836204  54.7606325  64.1960335  29.8619938  54.1548634
  65.6643915  29.9406695  54.5136404  82.1879959  49.9893236  40.3533220
  82.5051212  49.2305708  40.8431816  82.6730919  50.7295942  40.7178879
  81.6438293  63.2673073  44.8731232  81.9949532  63.7743235  45.6051588
  81.3616753  62.4418020  45.2670288  49.6303558  76.8348885  55.1960659
  50.0817347  76.6849232  56.0267258  50.3325701  76.8848944  54.5475101
  81.1259082  44.8146206  14.1684484  81.8775323  45.3424411  14.4380748
  81.5017989  43.9677482  13.9281452  84.7007373   0.3973823  43.8090706
  85.1714995   1.2195926  43.6727619  85.0408938  -0.1883454  43.1327200
  46.2753558  47.2476126  18.5166195  46.0999321  46.4624621  17.9979637
  47.0386767  47.6455618  18.0980423  57.8073168  68.9686060  33.9094138
  57.3700333  69.2708540  33.1133842  58.3570385  68.2407665  33.6190844
  46.8844461  68.7036276   0.9420882  46.7936707  69.5597458   1.3604817
  47.8216982  68.6212826   0.7659788  63.5472584  56.1057472  43.6630917
  63.1768179  55.6487751  44.4181967  63.2327318  55.6115294  42.9060888
  79.8532295  67.7308798  48.4070683  80.2885723  67.5472784  49.2395353
  80.5693531  67.8432512  47.7819490  70.0991011  25.2875161  38.4884977
  69.3526983  24.7157907  38.3089280  70.7299662  25.0815558  37.7986979
  28.6585021  23.3177878  25.0696018  27.7035594  23.3290173  25.1343182
  28.9228129  24.2153813  25.2713421  59.5086622  55.5529928  41.6520309
  59.5217228  54.8661995  40.9854174  60.2719307  55.3696537  42.1997929
  81.4798260  60.0122595  45.6712246  81.6205311  60.2576303  46.5856838
  82.3581505  59.9898529  45.2913904  75.9255841  18.9483505  15.3362477
  76.0801795  18.0861812  14.9502456  74.9996236  18.9397102  15.5786419
   2.6024028  74.8480602   8.2293966   1.6784689  74.7285553   8.4491518
   2.6140997  75.6093880   7.6493338   7.8106612  64.3340683  65.4291582
   7.6696318  63.6742544  66.1081171   7.1990222  65.0371742  65.6477213
  82.2597936  12.0099598  34.4787645  81.9173911  12.2800594  33.6266875
  81.6557887  12.3961979  35.1129794  65.1296806  67.0920229  36.7438650
  65.2555847  66.5805817  35.9446120  64.2623663  67.4842501  36.6430998
   0.3548831  40.7974339  39.7176838   0.7540244  39.9451876  39.5427799
   1.0869235  41.4137650  39.6958899  63.8458729  53.8158274  55.8682966
  64.4786406  54.5309114  55.8012819  64.3686008  53.0569315  56.1272526
  83.8096905  77.6178789  45.4638720  84.3616486  76.8595600  45.2727604
  83.3985615  77.8320122  44.6264029  38.1371998  74.2010809  15.6396893
  37.9513049  73.7259509  16.4495781  39.0867781  74.3215300  15.6452301
  57.5687790  70.1099300  51.1247778  57.2662449  70.9303904  51.5140772
  58.4369278  70.3152609  50.7777977  65.3212881  59.8045397  34.5073915
  65.2428913  60.4627705  35.1979089  65.4447556  60.3122759  33.7053990
  76.7469835  55.4915714  48.4743547  76.8347692  55.5373859  49.4264174
  77.6258564  55.2751827  48.1629229  13.7695426  75.9418106  57.4881124
  12.8322905  76.1211061  57.5632095  13.8990420  75.7269812  56.5643644
  34.8783135  11.9931199  19.5135620  34.1610884  11.3613440  19.5653084
  35.5030941  11.7010809  20.1773384   0.3421038  65.2715302  36.4629006
   0.0275725  65.6700277  37.2743797  -0.3343660  65.4765749  35.8174825
  76.0072899  79.1351223  28.2342315  76.4834690  79.6228075  27.5621843
  75.3518438  78.6349344  27.7479815  53.6885094  26.9354559  14.0512112
  54.2577004  26.2100102  14.3080643  53.0630040  27.0156695  14.7713021
  63.7518549  77.5482845  68.8618135  64.2062378  78.3598471  69.0879393
  62.9365015  77.8366041  68.4515715   9.5986530  39.2325073  64.5097923
   9.2693826  40.1104980  64.3175888   8.8849327  38.6478859  64.2547226
  35.1855683  47.9974772  18.2787636  35.8970427  48.4958102  17.8766373
  35.6271433  47.3572947  18.8368061  77.6886463  77.4451828  38.0944705
  78.2996416  78.0583239  37.6858449  77.0083904  78.0017757  38.4735322
  81.1198666  23.9537769  52.2186375  81.8441537  24.5389324  52.4405050
  80.3952887  24.2499500  52.7695513  28.0085396  61.6391016  17.6245812
  27.5791287  61.2956072  16.8410900  28.9143681  61.3382079  17.5526455
   4.3416568   2.8490692  61.7882919   3.8952371   3.6957317  61.7777824
   4.1445038   2.4850517  62.6513386  81.7897561   7.7512317  70.0680494
  81.1581090   7.1409946  69.6874285  81.6266301   8.5784298  69.6148729
  31.5010476  46.7108656  20.7129505  30.9236025  46.3136221  20.0610378
  31.6708922  47.5912215  20.3777340  84.2546990  19.8694187  56.1542749
  84.8602918  20.4405742  55.6817579  84.6678546  19.0064388  56.1258507
  82.5141907  80.1489449  66.5969896  83.2022667  80.6225777  67.0643950
  82.8340244  79.2480659  66.5485382   5.1927396  32.4182850  40.3807497
   5.1226160  33.0863243  41.0626841   5.5238363  31.6444832  40.8366394
   3.2664531  18.3103539  13.6313942   3.3880084  17.9912735  14.5256165
   2.3520320  18.1127955  13.4288147  16.9310111  77.8880024  64.3014288
  16.1569232  77.9401731  64.8620558  16.6765517  77.2924662  63.5965729
  56.0940695  54.0880108  48.6064386  55.2631044  54.5231962  48.7970686
  56.1758661  54.1346407  47.6538801  82.4770546  77.5320816  60.6443357
  82.0686054  76.6969490  60.4164028  83.4139919  77.3830986  60.5170727
  78.6291790  70.9958792  49.3665600  79.0480328  70.9356833  48.5079718
  77.9524374  71.6638327  49.2566061  71.5611267  71.9851637  39.6961236
  70.8738184  72.1735573  40.3351402  72.3366117  72.4278498  40.0409317
  76.9768336  13.3749824  69.4373178  76.3206485  12.7627426  69.7702074
  76.7033484  14.2271476  69.7768068  29.9059698   5.1819378  45.1954317
  29.1386625   4.7900158  44.7784424  30.5887529   4.5159584  45.1147699
  66.2526989  69.9815035   8.3281720  65.9892273  69.0615034   8.3080232
  65.4570484  70.4531670   8.5745668  70.7054332   4.9661403  53.5602951
  70.0495818   4.7230392  54.2137432  70.9702018   4.1350704  53.1660128
  25.1158261  28.8757636  28.3516148  24.2337679  29.0755726  28.0381230
  25.3414225  29.6134354  28.9183357  52.1453881  40.8070589  20.4030827
  52.6578164  40.5788256  19.6274880  51.6356015  41.5721728  20.1367310
  40.9546232  77.8282833  64.8681402  41.3469219  78.2699060  65.6213379
  41.4325857  78.1718969  64.1133451  38.2608532  45.5561663   0.8108977
  38.5057520  45.4381205   1.7286804  38.9239382  46.1510588   0.4606798
  12.9875397  49.9623991   0.1088980  12.2347092  49.5302798  -0.2945349
  13.4170365  49.2725016   0.6146649  37.6354813  65.3836276   4.8060349
  37.0259928  64.6460654   4.8335198  38.4189581  65.0313021   4.3838242
  57.9944086  44.3350410  55.5496931  57.4297810  44.2037344  56.3113928
  57.8540897  43.5566950  55.0105143  32.4274158  64.9983883  28.4214020
  32.0635319  65.7710075  27.9891062  31.7084527  64.3664980  28.4275746
  72.9367256  65.4738379  53.9691877  72.4983549  64.9916410  53.2680845
  73.5135269  64.8291397  54.3789387   2.8192061  30.0430918  64.3589401
   2.0646399  29.8680997  63.7965775   2.6156920  30.8783960  64.7797489
  58.8962698  46.2812519  58.1487131  59.4493389  47.0188093  58.4063101
  59.0863943  46.1523914  57.2194767  58.7273526  76.7416598   7.1843603
  58.8253426  76.7724635   6.2326887  58.4589982  77.6280428   7.4263266
   5.4188269  78.4580708  61.2192822   6.2239474  77.9649115  61.0617781
   5.7092112  79.2557907  61.6614914  82.2660687  24.0831810  63.0583048
  81.8221524  24.1928344  63.8992214  83.0891660  24.5615535  63.1578016
  46.2710497  16.6165691  43.2102966  46.9914362  17.2448211  43.1595087
  46.5761015  15.9517913  43.8277483  40.3669405  79.7831917  40.7750082
  40.3902578  80.1891994  41.6415215  39.5311952  79.3171406  40.7512903
   7.2978756   4.2830806  46.5974331   6.9914695   3.7867885  47.3564053
   6.7318174   5.0545173  46.5712833  65.5247330  45.8859946   8.2784012
  66.1372399  46.3529898   7.7100876  65.2849221  45.1041819   7.7809170
  18.5650942  23.1637149  60.5642509  17.7619716  23.6738544  60.6690216
  18.5091707  22.8084522  59.6771812  37.5555157  31.6786457  12.0957688
  37.4171853  30.7365872  12.1938828  38.3113265  31.8688942  12.6514557
   5.5149382  50.6058264  45.2067280   5.4177302  49.6582413  45.1125669
   5.5933684  50.9289169  44.3091249  56.3600468  57.4174620  18.6426666
  56.5523171  58.3454539  18.7771538  57.1869969  56.9722773  18.8275746
  76.2059807  29.3629195   8.8942459  76.6599297  28.6765648   9.3832138
  76.2422490  29.0718199   7.9831055  71.8252945  67.7839613  64.6006680
  71.8532801  68.7399626  64.5618153  71.2449169  67.5910664  65.3369999
  66.9879296   9.2882305  66.5990686  66.3500455   8.8315349  66.0506535
  66.7425182   9.0571933  67.4949646  12.5340006  19.6974044  46.6018534
  11.9963142  19.3957668  47.3340702  11.9238397  20.1693397  46.0350990
  18.7087366   3.4584098  37.6441097  17.8135511   3.1196838  37.6324296
  19.2321226   2.7659660  37.2406006  15.5295681   8.2971503  10.1754025
  15.8147072   8.4936930   9.2830494  14.8446536   7.6371409  10.0680950
  57.3050332  53.5296370   4.6739176  56.9922375  54.2856337   4.1770628
  56.6852402  52.8313471   4.4630316   9.0938636  22.4177223  47.9446554
   9.7272178  23.0294376  48.3200312   8.4295007  22.3128753  48.6257267
  84.2920017  28.7535858  69.6181011  83.8178444  28.6471534  68.7934303
  84.3086529  29.6993828  69.7644615  51.2023565   6.1793762  60.9598875
  50.6701395   6.1489349  61.7549038  52.0060655   5.7140499  61.1917305
  25.9001371  29.3930584  65.1366472  24.9534723  29.5239120  65.1908922
  26.2369939  29.7346836  65.9649277  20.6119510  31.2454563  48.2560062
  20.1019737  30.6022983  47.7635622  20.5662605  30.9435516  49.1631937
  34.6213361  15.8442836  42.7604675  35.0323126  16.6919189  42.5906134
  33.8991090  15.7984405  42.1339607  62.1196579  33.9700056   1.3549593
  61.8392205  33.2729651   0.7618979  61.3164258  34.2470433   1.7957476
   4.4568652  60.8942175  46.0741663   4.6149844  60.2258110  45.4074860
   3.5556430  61.1776161  45.9201670  46.5791655  73.2227278  59.0844011
  46.2262869  74.1113329  59.1301823  45.8072090  72.6571274  59.1046762
  78.1522229   8.6583095  68.8137054  77.2714618   8.8605552  69.1292810
  78.0303099   8.4328228  67.8914690  76.1132738   5.2757030  47.0037556
  76.6120359   5.3253608  47.8192282  76.6741583   4.7766834  46.4099455
  68.0796364  25.1380115  32.4398661  67.3723033  25.5787712  31.9690752
  67.8723862  25.2729660  33.3645630  14.1749709  50.5134036   2.6040009
  13.9516967  50.1555373   1.7447499  13.7957996  49.8938395   3.2273796
  41.9819664  28.7622525   4.0649489  42.8960728  28.4938504   3.9721850
  41.9710993  29.6768929   3.7829092  36.7929339  78.5373354  54.5930910
  37.5099444  78.7853765  55.1767015  36.9531107  77.6145124  54.3956804
  60.1371861  77.9236984  61.8329334  59.9483824  77.0318127  61.5411758
  60.5593252  77.8127146  62.6848221  -0.1231984  12.5694137  68.2567644
   0.7411739  12.6578575  67.8551769  -0.6017855  11.9850021  67.6688433
   6.2577867  58.7331320  12.6051071   6.1619639  59.6318175  12.9204014
   5.6780838  58.2190253  13.1671360  64.2480948  10.4380565  55.6573296
  63.8567045   9.5852142  55.4683781  63.5095790  10.9877353  55.9193897
  38.8933965  18.1481414  63.3263445  38.6309930  18.6294418  64.1110277
  38.2775709  18.4352451  62.6521349  54.1381931  72.8537560  58.3800840
  55.0640631  72.7199697  58.1773520  53.9942122  73.7890577  58.2361746
  39.7615242  78.7180948  20.2075839  39.9927616  78.4145164  19.3297446
  39.1140270  78.0847597  20.5172086  77.7934554  10.9173923  39.2085075
  77.3347047  11.6854435  39.5489144  77.5875953  10.9102398  38.2737327
  63.9168024  79.9950600  48.8182306  63.1514740  79.7596931  48.2937193
  63.7446070  79.6121073  49.6784210   3.6004039  21.9371181  51.0038519
   4.2292997  22.2437435  51.6570807   3.5773250  22.6339489  50.3480148
  14.1379279  59.0525675  58.5404825  14.7521323  58.8643456  59.2501068
  14.6933192  59.1892576  57.7729607  54.8713898  34.5673109  -0.1312420
  55.2438092  34.2747523   0.7005909  54.6431660  35.4848458   0.0180271
  21.5735030  55.7670809  19.5499542  22.1144700  55.1934935  19.0071991
  21.0875153  55.1700903  20.1188687  77.1467257  78.2756472  55.2306080
  76.5409803  78.9750385  55.4758883  77.7628946  78.2252312  55.9613800
  31.1487505  21.3633304  43.8049507  31.3661596  20.9056907  44.6170664
  30.3351900  21.8275409  44.0020323  85.0349953  10.0909191  63.0690956
  84.5210698  10.8878093  62.9383945  84.5824817   9.4262176  62.5498247
  12.6101803  24.3446948   5.9943703  12.0712304  23.5681178   6.1450175
  12.2253680  24.7569395   5.2209309  59.5834494  40.0128174  44.3755817
  59.8793221  39.2995286  43.8099718  59.3768787  40.7268095  43.7724447
  51.6243267  60.3988838  55.4000473  51.8067455  60.5111647  54.4671249
  51.6597462  59.4524574  55.5388117  82.9969120  57.2285938  33.4003425
  83.1005955  56.9423199  34.3078279  82.0854568  57.0272398  33.1883311
  81.7255833   6.4259868  60.3668642  80.9703877   5.8658748  60.1874447
  82.3418906   5.8567196  60.8276701  37.7378582  53.7892844  15.5746773
  36.8166804  53.8717963  15.8213547  37.8734135  54.4760062  14.9217919
  56.7181778  79.3932676  62.6587296  56.7727280  78.5731840  63.1493664
  56.9382668  79.1495514  61.7596245  33.5514187  45.8953978  30.8054188
  34.3236279  45.8029200  30.2474144  33.9032769  46.1282660  31.6646031
  71.2549022  12.3525577  51.1148739  71.1756661  11.4608341  51.4536762
  71.9041446  12.2859340  50.4146767  49.8332667  56.4163615   4.1782454
  50.6940817  56.0048319   4.1016176  49.9123406  56.9980837   4.9342755
  10.3713199  21.9157940  30.0575376  10.0203296  21.4975219  30.8437204
  10.1497003  21.3140922  29.3468571  24.8662397   8.6191040  61.3051414
  24.5567819   9.4779449  61.5930080  24.9773142   8.1207996  62.1148252
  62.4522829  75.4889250  37.7723050  63.1240797  74.8846292  37.4564648
  62.8717375  75.9574366  38.4939623  20.0060105  60.6296946  29.1662625
  19.3299555  61.1965300  29.5375851  20.2601838  61.0623576  28.3511379
  50.9620619  70.1827860  49.0937328  51.4969587  70.4783583  49.8304510
  50.3608656  69.5432806  49.4756126  61.8313864  27.1640068  47.8138685
  61.7820385  26.2963157  48.2149982  62.7471974  27.4231868  47.9156208
  40.4788610  25.6459003  68.6477280  40.6068060  26.0286861  67.7797747
  40.5674574  24.7029548  68.5090685  81.8750384  53.4046417  45.6754351
  82.3995974  54.1480594  45.3781176  82.3824361  52.6350647  45.4174900
   8.5101718  65.3218555  54.6606112   9.2308444  65.4328442  54.0404987
   8.1417865  64.4641781  54.4486856  75.0355053  42.3061419  45.0059986
  74.9530125  43.2444286  44.8355818  75.7844067  42.0315409  44.4768763
   7.3524207  67.5599337  28.3382583   7.3596305  66.7162418  27.8861928
   7.7683085  68.1645346  27.7236652  65.7272720  73.0932331   7.7775919
  65.9356737  73.9544821   7.4155807  66.5213919  72.8304911   8.2429653
  57.1120095   8.9796664  26.9712666  56.1692833   8.8138319  26.9740322
  57.2615361   9.4989373  26.1811856  74.6230936  45.0179434  44.6974611
  73.9048195  45.5497742  44.3547249  75.3741693  45.6111431  44.7128296
  18.6577773  30.3572823   7.9088619  17.7777791  30.7269122   7.9810169
  18.6551404  29.8942925   7.0710877  35.7336542  14.4469886  44.8585224
  36.2563154  15.0986725  45.3258276  35.5371019  14.8568779  44.0161467
   5.5635852  35.1340771  54.1454744   5.8569926  34.8304772  55.0045252
   4.6911639  34.7539997  54.0422487  27.1769926  35.1504379  70.2310133
  26.8407175  36.0246807  70.4281282  27.5766393  35.2370601  69.3655586
  64.8507071  61.4070082  69.0515041  64.6761322  62.0857096  69.7035170
  64.9208927  60.5989599  69.5598030  63.0616951  58.3966589  45.3476143
  63.0127621  58.6170197  44.4174099  63.4013271  57.5018930  45.3642416
   1.5408823  11.6516548  45.8411598   2.3711988  12.0188099  46.1444664
   1.5598652  11.7689281  44.8913574  54.5061949   5.1851230  42.4125338
  53.7741998   5.7716709  42.2217846  54.3793109   4.4434887  41.8208361
  36.3336870  25.9353691  31.0312557  35.9490225  26.8085533  31.1074781
  35.5825826  25.3508239  30.9293747  65.6413006  16.2158848  23.2962826
  66.3646721  15.7843806  23.7509945  65.5733227  17.0741154  23.7146691
  56.7567492  69.9224806  46.1655474  56.0712624  70.5818033  46.0576773
  57.5087595  70.2792835  45.6928968  35.1370024  35.0882746   8.2630089
  34.3985629  34.7681023   7.7449110  35.9079432  34.8805977   7.7350453
  53.8225579  35.2374531  17.9584721  53.4587311  34.8757340  18.7665680
  54.0516972  34.4699503  17.4343804  16.4968848  64.3319155   4.5389155
  17.1867156  64.9836852   4.6636799  16.7465853  63.8689734   3.7391880
  26.7771983  10.0536992  22.7128723  27.2324776   9.8705269  21.8910435
  26.0259366  10.5885674  22.4564388  34.1308045  58.6989237   6.0673359
  33.1952595  58.5092284   6.1380699  34.5354723  57.8483130   5.8972338
  77.4919558  77.7462196  52.4214649  77.2610521  77.8349304  53.3461523
  78.2225704  77.1278334  52.4152946  80.8678722  47.1076059  21.2073779
  80.5771732  46.9876051  22.1114373  81.7687893  47.4215126  21.2851429
  60.1747918  43.9085127   4.6682146  60.3413128  44.5863749   5.3232029
  61.0302567  43.5067965   4.5164469  25.1986813  53.1481387   3.9414767
  25.8714842  52.8892352   3.3117655  24.4480109  53.3958079   3.4016731
  82.9903939  15.8123356  53.7274742  82.8446677  15.0563484  53.1587219
  82.2030547  16.3464504  53.6223555   4.5368213  63.2745457  50.2915049
   4.2483634  63.5176659  49.4117832   4.9573821  62.4221277  50.1786327
  85.7540226  77.0356798  52.5355196  86.3644314  76.3978958  52.9054642
  85.1516628  76.5121126  52.0070553  18.6367630  29.1347529  24.8637608
  18.2194113  28.4771897  25.4202393  17.9104733  29.5532776  24.4016293
  53.3022261  73.9448166  40.6449461  53.9445305  73.3039618  40.3400183
  53.7983370  74.7588921  40.7309008  82.6819801  61.5418291  47.8993082
  81.8446732  61.4710855  48.3577204  83.3276749  61.6573858  48.5964108
  80.6822377  34.0253807  21.8856171  80.4412943  33.4046818  21.1979321
  81.3868957  34.5469452  21.5013531  58.6644366  33.8768323  19.8829582
  58.1472018  34.6292289  19.5955589  58.7990024  33.3609625  19.0879753
  40.4184818  10.2500868  26.6530776  39.5878124   9.8463440  26.9045043
  40.2299118  10.6895125  25.8238745  74.4874254  50.1643056  19.7870874
  73.5730317  50.2560205  20.0548649  74.9807242  50.1888246  20.6070185
  84.4357851  63.8535017  34.7707105  84.4802216  64.0159363  35.7129788
  84.0402869  62.9850573  34.6957636  75.7283903  45.7588409  66.7924979
  76.2197042  46.2788890  67.4284157  75.3747964  45.0294714  67.3016390
  63.6261621  51.6841025  19.2049289  63.7579510  52.2258086  19.9830151
  62.9170230  51.0878772  19.4454873  70.2361965   3.6873424  16.5429378
  69.5609188   3.1600022  16.1161566  70.0450659   4.5855069  16.2727511
  67.8375605  44.0452976  64.2384529  68.5687962  44.1576022  63.6310720
  67.1606675  44.6372957  63.9104509  23.4555387  10.3557336  63.1286573
  23.1979609   9.4950104  63.4588718  23.6620092  10.8617818  63.9144802
  69.1346231  66.4937109  48.2286263  68.6848846  66.5878326  47.3889160
  68.9188174  67.2942442  48.7069654   3.2378122   1.2701739  14.0291333
   3.1768227   2.1791619  13.7354457   3.7943092   1.3066494  14.8070884
  62.7161738  66.7566413  41.0198402  63.4473625  66.1965508  41.2804031
  62.9300544  67.6151437  41.3851643  34.1167024  64.0705211   7.4696553
  33.7165716  64.8252005   7.0376992  34.7346977  64.4514710   8.0935061
  17.1097994  23.4231162  37.6162076  17.3140502  23.9783573  38.3686852
  16.1532950  23.3982253  37.5895309  62.8144017  69.7645552  15.6945419
  63.7374333  69.5649809  15.5382895  62.3967156  69.6497936  14.8409605
  66.8122655   3.6943316  12.4288511  66.1970454   3.2822663  11.8222725
  67.4965483   3.0377501  12.5588119  18.5753152  76.8268341  26.9556737
  19.4507978  77.1212751  26.7045403  18.4961507  75.9544528  26.5697789
  48.0383506  63.0036016   3.0067280  47.6880231  63.7345334   2.4975756
  48.6651662  63.4081360   3.6064652  31.3440490  31.3248992  65.9200621
  31.3668418  30.4597783  65.5110645  32.2621703  31.5312552  66.0952806
  85.4913639  18.5236037  33.7968755  84.5698571  18.3083379  33.6529398
  85.9673265  17.9572725  33.1894541   9.8612425  78.5562973  40.9898949
  10.7816956  78.7400884  40.8022261   9.7995803  78.5923879  41.9444227
  20.7920742  18.8985789  39.7168636  20.6743264  19.7536552  39.3030858
  20.9972095  18.3079731  38.9920640  16.4762652  22.2400951  40.9422302
  17.4326384  22.2565222  40.9060097  16.2281632  21.5016794  40.3859758
  26.8055344  11.3026428  64.7608709  26.4768624  11.8194306  64.0252495
  27.3339987  11.9182014  65.2688551  14.7950408  56.3321442  13.7135637
  15.2030275  55.5540008  14.0933979  14.0318916  56.4969582  14.2673373
  39.0482259   6.4099741  36.4728951  39.2293954   7.3465776  36.5515280
  39.8115325   6.0558558  36.0166097   1.7805264  71.8917567  34.0546322
   1.5305946  72.8145439  34.1018581   1.4567015  71.5992076  33.2027006
  28.0787015  13.6366212  41.7568302  27.1683431  13.3973742  41.9307232
  28.5039926  13.5992956  42.6135492  18.8209617  14.6542001  29.4648194
  19.4414115  15.3526115  29.6733785  19.0496624  13.9437866  30.0641847
   8.5053417  62.1898109  55.0016499   8.3576128  61.3970954  55.5174112
   9.1462443  61.9292039  54.3401670  65.8651313  50.0014586  55.5238914
  66.4016703  49.2190165  55.3968477  64.9824193  49.7300500  55.2721167
  70.7370821  59.3305559   8.5057014  71.3055948  60.0729460   8.7103420
  70.7825175  58.7728686   9.2823303   9.3610456  13.6713334  17.3848656
   9.7911373  13.4322496  16.5638378   8.8544026  12.8954144  17.6246479
  74.1486838  29.9139293   5.9081057  74.6902707  29.2158290   6.2763098
  73.3241227  29.4834801   5.6821850  15.3306863  44.1052908  26.2089443
  14.4468352  43.7599058  26.0834646  15.8456847  43.3490223  26.4901376
  22.0877337  20.7775712  25.9656405  22.4141908  21.6762710  25.9209633
  21.1539793  20.8710408  26.1543131  66.7712453  68.3381385  43.5326767
  66.4385614  67.7019281  42.8995991  66.6360358  69.1874296  43.1123734
  27.9897714  22.5953484  29.8083925  28.6090875  23.1736398  29.3631291
  28.0483365  21.7681241  29.3303704  84.0135744  77.0342437  30.2909112
  84.4559863  77.3596636  29.5069432  83.1018928  77.3044056  30.1810074
  80.3079251  69.3536991  44.5514727  81.0412124  68.8084871  44.8365498
  79.8687890  68.8322491  43.8795519   7.5373790  74.7301514  20.4055142
   7.0575497  75.4543043  20.0035214   8.0356476  74.3438888  19.6852612
  33.0798173  39.8573923  68.2617235  33.4715867  39.0038061  68.4464979
  33.4029293  40.4256392  68.9609575  61.5330079  36.1840727  13.1638077
  60.9026220  36.3914408  12.4739960  62.0781257  36.9677867  13.2335976
  19.6177909  76.4646558  67.6178312  19.7709462  75.5360413  67.4433327
  19.4546268  76.8466825  66.7554712  74.7957829  74.9347479  19.9515975
  75.1227609  75.8285589  20.0536728  74.0469697  75.0195850  19.3614173
   8.5140753  34.6534872  53.4898710   8.1911999  33.8438988  53.8855362
   7.7415627  35.0460052  53.0831957  77.5492314  48.1893105  56.9673300
  78.0679324  48.8907999  57.3611498  76.9316414  48.6417240  56.3927555
  24.2404342  13.7263763  29.3980408  24.1109276  14.5242119  29.9107957
  24.5060349  14.0381539  28.5328913   8.4535596  55.3854341  18.9593613
   8.0011294  55.0369663  18.1911767   8.9177797  56.1568994  18.6344409
  45.1754761   3.6812326  43.1036615  44.8997927   4.0515581  43.9421654
  44.6352863   2.8980508  42.9985332  48.7202835  37.3688555  15.0473738
  48.9260578  36.4454126  15.1927829  49.5232916  37.8332424  15.2835023
  84.5396307  71.7568732  38.2068563  85.2963522  71.9296927  37.6467323
  84.2807439  72.6189811  38.5324001  41.4901257   2.7618265  26.8104863
  41.8012857   1.9312693  26.4505053  42.1816397   3.3888057  26.5985012
  68.5626868  55.7394618  48.9818001  69.2668894  55.2129192  49.3600607
  68.2318536  55.2107663  48.2556725  55.7326937  16.9922578  65.3925467
  56.3138294  16.8437088  66.1385059  54.8977184  17.2455108  65.7861280
   9.7911662  11.0324979  39.1501832  10.4818940  10.4805303  38.7834978
  10.1625669  11.3715565  39.9646354  72.4279621  47.2945780  23.8546133
  72.4215141  48.2287425  24.0632343  72.9789630  46.9017715  24.5316172
  20.3020048  37.2800541  33.3714437  21.2445235  37.1139383  33.3886194
  19.9416041  36.5615773  32.8517008  54.2006597  63.4653658   6.6577810
  54.2107630  64.2991919   6.1878186  53.9412248  63.6962897   7.5497448
  52.1609354  32.3537755  53.4490395  51.3615513  32.0649099  53.8892365
  52.8152847  31.6962218  53.6850071  82.4320129  56.7028922  48.9800787
  82.0645574  55.8442969  48.7702656  82.7544478  57.0365090  48.1428385
  65.7845774  63.5763091  17.6211011  66.6365239  63.7862248  18.0036628
  65.6531617  64.2441148  16.9480503  23.7834880  66.4244110  28.6072612
  23.3897588  65.6596977  28.1872392  23.2045457  66.6172296  29.3447423
  20.9352446  34.2217183  21.7840862  20.5740690  34.4404769  22.6431131
  20.8202195  35.0183153  21.2659788  43.4852505  14.7019315  22.1624088
  42.6030207  14.8479033  22.5038767  43.3984566  14.8196518  21.2164474
   9.0962670  79.1228578  63.4936714   9.4211337  78.7012706  62.6980829
   9.8736546  79.5146578  63.8916540  74.8448277  36.2268639  50.7832956
  74.6727896  35.3751922  51.1849022  73.9905739  36.6581297  50.7610655
  23.7718722  71.9770939  54.4088221  23.7368724  72.8964079  54.6731520
  23.1305835  71.9066138  53.7017059  40.7285261  20.2396035  54.5348167
  41.6041708  20.0027490  54.8403883  40.8584404  21.0478735  54.0387774
  47.3420313  55.2142199   4.1117981  47.4619606  54.8560949   4.9913386
  48.2313743  55.3351875   3.7791279  23.4175965  74.6270764  56.2601757
  23.7399766  75.0551803  55.4670620  23.9906404  74.9490953  56.9559908
  54.0310433  55.4717692   5.3254154  54.6853736  55.3646012   4.6350554
  54.5189622  55.8377167   6.0631493  37.2336864   6.7780280  10.9968650
  36.4829969   6.2502944  11.2692487  36.8625140   7.6374942  10.7974124
  34.8666644  14.1920924  60.2331305  34.4284058  14.6553206  60.9469843
  34.2962265  13.4467018  60.0454521  20.7420013  80.7054309  41.2717533
  21.2407872  80.9250430  40.4848528  19.8689172  81.0626235  41.1093712
  43.3667850  22.8313041   7.4282676  43.9037848  22.0729303   7.1986294
  43.3748627  23.3773685   6.6421503  32.2576594   1.4681035  59.5027304
  31.4754152   1.3848969  58.9573812  31.9403148   1.3440998  60.3972387
  42.1553853  63.4232994  25.7662228  41.3409689  63.7900801  25.4220799
  42.3919573  64.0029212  26.4903095  46.1230564  11.4731824  61.2120342
  46.4211273  11.4815950  60.3024673  45.8771276  12.3805988  61.3918877
  18.1896412  20.2337742  54.9832344  18.8673365  20.8676028  54.7482443
  18.3528745  19.4849360  54.4098043  58.7836888  71.6360851   8.4863928
  58.1207970  71.1056801   8.9285162  58.5322907  72.5401207   8.6754683
  18.7126681  63.2007319  42.8877878  18.3053443  62.3726327  42.6336813
  18.4364412  63.8205988  42.2127342  79.0033883  22.2702861  56.2724543
  78.6336350  22.6981497  57.0447540  79.7386360  22.8281236  56.0185671
  13.2369947   5.2360272  15.0517154  12.6610780   5.3037858  15.8132672
  14.1212428   5.2833945  15.4151618  63.3861333  28.8471985  42.6002312
  62.6476437  28.8391876  43.2091665  62.9975539  28.6422777  41.7497921
   7.1701330   7.9858345  59.3396902   6.5636164   8.1379241  60.0644255
   8.0131501   7.8233534  59.7629547  61.1970091  77.8741381  24.3489289
  60.9433389  77.8027651  23.4287167  61.9198936  77.2543970  24.4468617
  42.5754547  10.9232485  44.3436813  41.8991327  10.8846903  45.0199461
  42.3898077  11.7311490  43.8650751  49.1531661  23.4835859   3.4378460
  48.9555695  22.8177043   4.0964726  49.0020182  23.0447253   2.6007155
  28.8473323  75.3363866  57.7573490  28.3573774  75.9142084  57.1722841
  28.6408857  74.4536090  57.4502420  73.8643471  80.4568631  46.7078066
  73.3672133  79.6469418  46.8223381  74.5025829  80.4490464  47.4211264
  31.6809869  14.6598423  29.1826606  32.3544621  14.2197049  28.6640644
  31.8926716  14.4366384  30.0890803  30.5001664  37.1782947  31.6841698
  30.6751966  36.7053652  32.4977636  30.2859998  38.0677962  31.9655085
  37.6644373  11.7504346  38.0542040  37.0389557  11.4782929  38.7257290
  37.2511864  11.5021634  37.2272706   8.2532352  32.2493243  32.2094274
   9.0942913  32.4844718  31.8175578   8.3298200  31.3139200  32.3975420
  42.4857235   5.4332399  61.5783787  42.6635313   4.6919242  62.1572304
  43.3361864   5.8574301  61.4643288  15.0577590  53.3367247  34.4488835
  15.7011268  54.0436882  34.4990087  14.4768331  53.4882421  35.1944017
  27.9053352  69.5457835  53.9041758  28.5898015  68.8900251  53.7710762
  28.1220576  69.9511928  54.7437620  10.7082617  10.3381169  46.2852716
  10.3981411  10.6657887  47.1294832  11.5553069   9.9372995  46.4804411
  38.0426404  78.2805801  42.8498602  38.0619237  79.1457615  43.2589102
  37.8696057  78.4566919  41.9250488  16.9675028   0.8713343  32.4835038
  17.3868549   0.1595081  32.0001006  16.8283224   0.5154287  33.3611107
  39.0686584   4.1219392  48.0761814  38.4560251   4.8504335  48.1772137
  39.8083305   4.3512383  48.6388016  82.3522356  68.1359512  32.9031062
  81.6487411  67.9836935  32.2721171  82.8329042  68.8845724  32.5498962
  55.9139350  55.5131598   3.3332089  55.6955626  56.4120169   3.0870274
  55.7719186  55.0048872   2.5346306  31.5446234  14.1232407  24.3390822
  32.3181772  14.5557606  24.7007084  31.7175817  14.0697074  23.3991623
  53.7458306  56.6189623  33.0974865  53.7752753  55.6684923  33.2068729
  54.6099693  56.9193411  33.3790374  53.5139563  41.6408959   1.0648850
  53.2959464  40.8287580   0.6075743  52.6704123  41.9828323   1.3611057
  38.6648154   2.0764491  34.3229651  39.2310762   1.5517256  33.7570620
  38.9895630   2.9713410  34.2232680  72.7167845   5.1733530  20.1503873
  71.8449354   4.7858989  20.2278137  73.1376266   4.6777067  19.4479227
  23.0474612  61.9678063  63.6624527  22.8067872  61.1176974  64.0307236
  23.1005523  61.8138439  62.7192068   3.8663480  76.6795168  45.9864235
   3.5218093  77.1955163  45.2575397   3.9086601  77.2960353  46.7174149
  83.6009410  78.7649058  54.1081095  82.7278927  78.7964112  53.7169266
  84.0606454  78.0864305  53.6135626  79.5680097  65.7156379  45.4986668
  79.1574028  65.6491060  44.6365690  79.1334894  65.0433082  46.0234451
  14.3477392   1.7064047  25.2669835  13.8824487   2.2987643  25.8576155
  14.9448526   2.2741581  24.7798038  43.3170938  13.0820203  58.2786226
  43.9746284  13.7766612  58.3153963  43.2382154  12.7787638  59.1830826
  13.4656570  45.6902713  57.8882170  12.6173160  46.1059636  57.7341032
  14.1066405  46.3713807  57.6845932  14.8282707  17.8096569  16.3303328
  14.7517323  16.8879092  16.5768147  13.9798784  18.0252719  15.9430707
  57.5055075  20.4828238  13.0456400  58.2959032  20.0155759  12.7751052
  57.7906370  21.3893294  13.1604564  43.7785339   9.9007851  26.2904406
  44.6342564  10.0563562  25.8907294  43.2325888  10.6212497  25.9756279
  52.5922012   5.4621017  35.3368974  53.4518337   5.7340586  35.6583142
  52.2556114   6.2296039  34.8744249  69.1177320  16.6405487  52.0492172
  69.4868565  16.6187513  51.1663246  69.0743780  17.5714529  52.2677803
  31.5053129  22.0285678  57.6824093  31.9535279  21.3811564  58.2266474
  30.7138824  21.5819764  57.3817015  26.2371156  77.4487764  62.8599453
  25.3933856  77.8801936  62.9949713  26.0561368  76.5194160  63.0005455
  20.0649450  61.1433501  48.8394451  19.4490430  60.8194846  49.4967222
  19.6475885  60.9441037  48.0013847  26.7099810  24.4701529  47.5305939
  26.0844088  25.1915765  47.4639750  26.4284468  23.9795423  48.3027792
  55.5077006  52.6306457  51.0814047  56.2427298  53.1719179  51.3694811
  55.4673127  52.7658100  50.1346588  27.9440570   0.0439599  50.5756044
  27.9964590   0.6030834  51.3507605  27.9416966   0.6552844  49.8390532
   7.8120420  62.2536725  37.8926754   8.3444163  63.0331153  37.7336764
   7.8732798  61.7519028  37.0798349  76.7941609  63.7702209  12.6530874
  76.6385642  62.8391117  12.8113794  77.0424870  64.1203911  13.5086262
  83.5169867  71.6908819  11.7641783  82.8874639  72.4028433  11.6499817
  82.9960397  70.9624547  12.1021712  17.3066032   2.7790371  68.0531836
  17.0059538   3.4187251  68.6986589  16.6158342   2.1167326  68.0326223
  19.2673680  71.5471942  56.1419725  19.6756837  72.0598895  55.4443693
  18.5646817  71.0656530  55.7054186  69.4852343  67.9661054  31.1186981
  69.0346638  67.1408588  31.2981009  70.1413885  68.0363960  31.8120623
  50.0790623  73.1323451  51.0184145  50.7509580  72.5169796  51.3118696
  49.2743018  72.8253246  51.4359474   6.8329475  71.5143216   4.5904878
   6.5386507  72.3888851   4.8449698   7.4953863  71.2853963   5.2424067
  47.6119995   8.3642244  33.0712891  46.9624758   7.9633200  32.4936867
  47.1055698   8.9579207  33.6256218  62.6239612  43.1025480  17.0376614
  61.7712596  43.0985262  17.4725369  63.2582119  43.0693694  17.7538040
  63.4509802   5.6892085  54.1149044  64.3647385   5.6498903  53.8325405
  62.9929018   5.0873512  53.5282516  39.2547512  24.0425920  20.8314085
  38.4742594  23.5230994  20.6385565  39.9646497  23.4018612  20.8731198
  41.2349796  22.6262426  67.1436119  41.9996595  22.5528359  67.7146673
  41.4446545  23.3509898  66.5545368   8.5575837  35.3562260  29.1856265
   7.6295865  35.2088284  29.0030718   8.5627574  35.9320188  29.9502635
  22.3912618  64.3436033  27.7630377  22.8358838  63.8980705  27.0418954
  21.4595649  64.2487151  27.5651312  13.1156361  25.6025028  33.4916282
  12.7224362  25.5926394  34.3642831  12.7024388  26.3451076  33.0511284
  86.1691860  80.0811325  56.0578251  86.1114386  79.1623673  56.3200617
  85.3221873  80.4537869  56.3026762  46.5568462  51.5168472   5.3717116
  47.0308891  50.9979161   6.0214976  46.9228247  51.2407859   4.5314244
  51.9119453  16.2290001  52.6673651  52.0215797  15.2795482  52.6148701
  52.4806213  16.5741837  51.9791174  70.7131102  50.0866099   4.5066288
  71.0175898  50.6518169   3.7966564  71.1793712  49.2614599   4.3726090
  17.4194968  11.4597499  16.5267754  17.1261549  10.6337523  16.1421847
  17.9144466  11.8870223  15.8277094   6.9939110  46.6227955  55.1238585
   6.8876240  47.0426292  55.9774828   6.4222762  47.1205491  54.5393038
  73.0886961  61.3596128  57.4207887  73.8916326  60.9319995  57.7185616
  72.9966665  61.0871814  56.5078029  43.0642316  75.2203292  35.6377435
  43.6588142  74.4973463  35.8377385  43.5449550  76.0053677  35.9001374
  13.4061515  19.6681738  60.4382038  13.0382323  18.9228451  59.9634933
  12.6446414  20.1883221  60.6946802  33.8443351   1.0864853  33.2306194
  33.7622094   1.4734110  32.3589683  34.5394969   1.5915802  33.6523533
  34.5115232   8.0999625  13.5628533  34.4933224   8.9619446  13.1470561
  34.1878104   7.5021255  12.8890336   1.1701724  71.3436586  14.8735273
   2.0618555  71.1232412  14.6041799   0.7596180  71.6907055  14.0815449
  74.1938975  69.2880078  11.7148903  74.2907336  68.5724016  11.0865906
  74.2481473  70.0822969  11.1834839  25.9045100   3.7869465  29.0400791
  26.6766453   3.8410777  29.6032023  25.1791286   4.0611279  29.6012187
  18.1040189  74.7168589  17.8285623  17.8922031  74.0375180  18.4687662
  17.8547523  74.3377692  16.9857180  55.8922413  36.3833775   8.7338141
  56.8370321  36.3004672   8.6044720  55.5216172  35.6223749   8.2868889
  20.3342867  18.5209513  27.8283334  21.1003637  18.5998368  27.2598839
  20.0935674  19.4245815  28.0326343  42.6420641   5.4979539  34.9520326
  43.3286715   4.8576924  35.1387644  43.0809450   6.3460201  35.0183535
   8.0978033  56.3251013  34.6818900   7.2078941  56.3212485  35.0344205
   8.4162066  57.2129292  34.8450303  55.7525492  10.3214371  11.5500033
  55.0386715  10.0462520  10.9747815  55.4679918  10.0613534  12.4261403
  69.4784475  54.3201946  68.1597142  69.6476532  53.4106515  67.9140825
  68.5241247  54.3850003  68.1957102   5.7156432  40.9848881  16.9272804
   5.6690079  40.9869862  15.9712195   6.6417778  41.1280870  17.1222162
  76.2274694  36.8813944  60.7080793  75.4929209  37.1200204  60.1426363
  75.8342934  36.3490295  61.3996220  54.0026808  29.4116330  65.4621124
  53.8815784  29.8424459  64.6159649  53.2871723  29.7435331  66.0044479
  60.8765364  10.2458715  39.8062491  60.0008774   9.8642689  39.7443771
  61.2742376   9.8116899  40.5609369  41.9056749   6.9564569  44.7141886
  41.0222578   7.3184007  44.6448803  41.7770195   6.0079592  44.7086287
  23.8561961  60.0989503  47.6584196  23.7204311  61.0426123  47.7438784
  23.5717103  59.8957700  46.7673445  38.7826345  80.5474099  32.0561004
  39.6454665  80.1840677  32.2554231  38.7208125  80.5080141  31.1017108
  63.0729008  27.7873564  39.2352986  63.0090237  27.4441290  38.3440375
  62.4974632  28.5522652  39.2392063  13.1825125   7.6971424  38.1744742
  13.4042490   8.3362246  38.8517046  13.8937175   7.7665323  37.5376034
  42.1140385   3.2558852  11.4156520  41.7587948   3.2761940  10.5270445
  42.2896385   2.3298028  11.5822852  20.6836221  71.6817731  32.0239401
  20.5553338  71.3034624  32.8937984  19.8849103  72.1834398  31.8607640
  68.1603458  31.2766399   9.5637110  67.4416640  30.6571199   9.6899012
  68.7774041  31.0741051  10.2668789  17.5077832  18.3890724  49.0808010
  17.6824927  18.6989677  49.9694347  16.5637183  18.2320261  49.0631819
  59.8156762   2.7858044  35.4196480  60.3613686   2.2843434  36.0254505
  60.1818108   3.6698986  35.4432228  29.2331982  33.1157637  40.5938148
  29.9917245  32.7188706  40.1656294  28.6064434  32.3979712  40.6842852
  57.3087168  14.9136376  28.9071608  57.6239252  15.8078039  29.0388536
  57.9476070  14.3650079  29.3621969  36.4227271  17.8510702  52.3683548
  36.7900729  17.9982555  53.2399178  36.7000532  16.9643128  52.1381712
  51.3631487  12.0920980  43.9408636  51.5936136  11.7014635  43.0979395
  52.1575737  12.5480688  44.2187405  80.4772476  76.0902155  12.2128952
  80.6458786  75.1822264  11.9612002  79.5417693  76.1131251  12.4143636
  72.1361831  37.4963870   4.8090771  71.8928912  38.3596415   4.4746617
  72.7399209  37.1470274   4.1535834   6.2193453  15.0654554  42.5302887
   7.1214914  15.2976596  42.3101854   5.7072735  15.3500748  41.7733145
  46.8666390  75.6080050  24.4341207  47.1492270  75.9866787  25.2665758
  46.2075106  76.2188951  24.1045809  15.7341930  52.6351686  25.1985577
  15.0444099  52.9944320  24.6405628  15.2689335  52.0925160  25.8351830
   7.5878141  73.1486202  22.3972321   7.1449086  73.8093305  22.9297066
   7.7376458  73.5800267  21.5560007  25.8795595  25.5393815  54.4697809
  25.2804399  24.9558520  54.0041828  26.7463017  25.1617575  54.3201447
  60.8881119  30.6522371   0.2621630  60.9797623  29.8529216  -0.2564213
  61.7874935  30.9167870   0.4554394  43.2421017  20.7925653  32.6925206
  43.7458277  19.9924016  32.8416204  42.6370859  20.5665660  31.9860387
  39.7197127   3.9029741  13.3400381  39.4515419   3.3491889  12.6067996
  40.4341459   3.4203905  13.7558901  78.2161045  23.8450217  58.4021091
  77.6115751  24.4424510  58.8423967  79.0820599  24.2210054  58.5602140
  14.0392077   3.0691037  52.1986055  14.7962129   3.5599801  52.5183153
  13.3437204   3.2658848  52.8261471  24.4053790  79.7227748  40.5082083
  24.5310113  80.5250853  40.0015068  24.5746324  79.9824683  41.4138269
   9.0108797  65.0997049  38.4464526   9.8071167  64.6246738  38.6843348
   9.2951009  66.0081322  38.3454084  17.9427716  62.1513457  40.5381632
  17.2240636  61.9579930  39.9362421  18.4670398  62.8093750  40.0816822
   7.7472183  74.9481339  25.1524019   7.5497863  75.3396398  24.3015337
   8.5964176  75.3174228  25.3947210  17.3888767  35.4790211  63.4067822
  17.8607512  36.0731983  62.8232384  17.7198255  34.6094680  63.1818724
   1.9562504  69.6437032  25.0380731   1.1179731  69.1856796  25.0992250
   2.6133916  68.9538509  25.1302528  12.0548579  76.2186429  22.6607943
  12.3872182  76.5465856  21.8251967  11.8852946  75.2898557  22.5032020
  80.5140951  70.3293437  34.7506571  81.2821368  69.9879081  34.2926574
  80.4921130  69.8445923  35.5757427  -0.0412730  28.6502441   4.6397522
  -0.3093270  29.1799470   5.3906134   0.8746549  28.4336980   4.8141697
  37.2590113  13.9429045  36.0943937  37.6590848  13.3475649  36.7282248
  36.3176894  13.8545036  36.2438154  24.7025776  41.3399315  39.1465354
  25.3730822  41.9940138  38.9494777  25.1181412  40.5020571  38.9428258
   4.9431727  56.3796086  62.2039318   5.8857462  56.4299864  62.0450354
   4.8194692  55.5400795  62.6467848  25.6466079   6.4669102  14.6458316
  26.0261965   7.3448366  14.6085370  24.7733164   6.5990287  15.0148034
  29.4305560  79.2433924   0.4542241  28.7737319  79.6795844   0.9969451
  28.9372918  78.9045236  -0.2928280  72.2462535  36.4477725  63.6652586
  71.7949892  35.9844165  64.3708733  71.5427852  36.8398886  63.1479475
   8.8072488  75.6812192  51.7897177   9.6411893  75.2173311  51.8644238
   8.3261726  75.4379744  52.5806856  51.3479996  29.2288160  51.8110180
  50.5472279  29.5152116  52.2502995  51.7921877  30.0414491  51.5690327
  75.0079441   0.1225584  62.2762251  74.5330667   0.9476177  62.3762131
  75.7263613   0.1818663  62.9059792  25.6267736  75.5267203  47.0627785
  26.2904689  75.8276344  46.4421368  24.7940013  75.7790262  46.6639566
  57.0767641  22.1737719  53.5958242  56.3759375  22.8066158  53.4390545
  56.8596220  21.7804098  54.4410181  85.2894548  72.7840776  55.8372259
  86.0359767  72.5646973  55.2797222  84.7762111  71.9771749  55.8787155
  70.8560720  69.0124149  48.4029341  70.5127362  68.1644029  48.1214619
  71.0760787  69.4641203  47.5882006  47.7559280  11.7027569  50.4277802
  48.0099630  11.4140379  49.5512295  48.5227919  12.1714008  50.7572126
  57.2963095   1.8556735  50.2101421  58.0405760   1.2593035  50.2916479
  57.4574280   2.5312054  50.8688736  28.5903835  22.3220038  43.5729122
  28.2986140  21.4382434  43.3491516  28.4511089  22.8297925  42.7735472
  31.5650463  22.4008107  34.3912625  30.9411287  21.8755126  34.8922825
  32.3543549  22.4160266  34.9325490  44.1901827   7.7009511  63.6661530
  44.6059942   7.4356562  62.8458166  43.5816240   8.3949691  63.4127140
  24.0897891  74.2143947  16.4092839  23.1420324  74.2005516  16.5426862
  24.4350145  74.6500517  17.1885514   8.2096076  37.4764681  56.6735220
   8.9481950  37.2117376  56.1252165   7.9886138  38.3566189  56.3690090
  82.3656559  19.5007491  66.2942171  82.0789909  20.4106617  66.3724375
  81.9401550  19.1832030  65.4977608  26.3480756  74.5218218  52.6108074
  27.0549104  74.7168285  53.2261038  26.7733333  74.5103032  51.7533350
  77.2596553  61.6162164  25.4292297  77.3192290  61.3611872  26.3499045
  77.0319763  62.5456554  25.4524064  61.7601353  30.8675027  20.2888966
  61.7820388  30.3266287  19.4994617  61.6610509  31.7622399  19.9635351
  80.6322032  10.6043983  17.0705938  80.4699010   9.6754813  17.2349215
  80.9032586  10.9540057  17.9194379  82.2096232  42.7440900  65.3242302
  81.9691518  42.7337403  66.2506771  82.4283841  43.6583156  65.1437616
  61.2948990  24.6428561  53.9662695  60.3834963  24.4382405  53.7572002
  61.6176558  25.1118898  53.1968069  76.1394119  18.2792199  44.5772600
  77.0492268  18.2948613  44.2802334  75.9832191  17.3672926  44.8226643
  21.9792700  55.7867575  13.7487161  21.1092234  56.1840582  13.7112677
  22.3926568  56.0371065  12.9224777  40.9913969  30.2103043  44.5078230
  41.4434338  31.0366988  44.3376207  40.1089478  30.3443766  44.1620874
  61.2829065  27.9649496  44.1990423  60.9068012  28.4137154  43.4418201
  61.3509035  27.0500898  43.9258480  40.8645868  30.1205373  17.4376142
  41.1027956  29.2789984  17.0486391  41.3993120  30.1783371  18.2294226
  69.7965670  44.6399021  22.1540761  70.3604364  43.8707876  22.2362280
  70.0529289  45.0370312  21.3217330  52.6896980  80.3457137   8.8964012
  52.3393371  80.8847066   9.6056011  52.0244100  80.3914400   8.2097176
  41.9892597  19.2019141  46.4305449  42.4380445  19.0853620  45.5931473
  42.2557211  20.0725269  46.7259502  19.2392027  35.3705072  31.8834019
  19.5896065  34.5173645  32.1395159  18.3305943  35.1930285  31.6401649
  53.0740547   8.0495071  43.8140297  53.3395863   8.4463584  42.9844332
  52.3922443   7.4226630  43.5722923  30.6046748  12.2572267  40.4429483
  30.7789350  13.1956136  40.3701782  30.7215190  12.0633376  41.3729954
  18.7194967  38.9358783  45.7561302  19.3109369  39.5314312  46.2162924
  17.8986835  39.4228101  45.6826925  70.8911183  51.6968139   2.4430445
  70.2421334  51.3751956   1.8172529  71.0605672  52.5985308   2.1702364
  51.8308926  22.4299383  36.8221164  51.8666363  22.9111814  35.9954619
  51.5919781  21.5380120  36.5698814  85.3871833  31.1071110  46.0858679
  85.2900446  30.4743958  46.7975330  84.6450826  31.7023659  46.1916494
  81.4658484   0.0826311  37.4189281  81.6228613   0.5740902  38.2251811
  81.7297965   0.6799380  36.7190790  74.7780600  71.1409629  54.9201679
  74.3914524  70.5071635  54.3159628  75.3171793  71.7036886  54.3643618
  12.0827720  70.1767141  52.2813368  12.7561280  70.8225662  52.0675707
  11.6341922  70.5418534  53.0440187   4.0496299  75.5311680  33.6485267
   5.0059149  75.4940987  33.6680079   3.7928960  75.5768318  34.5695233
  30.3221083  29.3307161  40.7163763  31.1484766  29.2037320  41.1824512
  30.5742311  29.3962717  39.7953105  59.4136953  19.1042757  37.4133897
  60.1110268  19.7202730  37.1886516  59.8013067  18.5362136  38.0791926
  70.6033078  79.1426109  45.3899860  70.2205888  78.3170650  45.6870270
  70.7373575  79.6469075  46.1924505  84.8704842  65.6221444  26.1909723
  85.2375964  66.1869389  26.8710232  84.5547489  66.2283344  25.5208421
  63.3872366   7.7755892  16.1898005  62.6855516   7.3352188  16.6693258
  64.1919184   7.3844230  16.5299571  40.4636285  80.0135579  59.4526052
  40.0225780  79.8317205  60.2824497  40.8945224  79.1897366  59.2248297
  28.8231182  10.8798635  34.4131899  29.6257687  11.1563528  34.8553848
  28.1849265  10.7748270  35.1188159  19.3599272  19.0870082  11.5015852
  18.6606324  19.4067264  12.0716703  19.9892366  18.6821043  12.0984554
  69.2171860   2.3461467  41.6933680  69.7916031   2.6180959  40.9776020
  68.9888954   1.4399570  41.4861631  76.4388681  59.9452315  62.2867826
  75.8153558  59.4508086  61.7547974  75.9698558  60.1232515  63.1019929
  63.5720396   6.6524380  46.3245010  63.6466455   7.5974393  46.1916924
  64.3985939   6.4026314  46.7375803  33.0334210  19.8113096  39.3871331
  32.2478318  20.2926731  39.1275740  33.5562158  20.4497838  39.8721790
  60.8652374  78.7363856  36.1181736  61.2137541  77.9079927  35.7887292
  60.5651599  78.5344470  37.0044041  31.9177747   8.0741024  46.8181038
  30.9939671   7.9408067  46.6058683  31.9323802   8.1779295  47.7695417
  50.4686451  20.7591271  21.7003083  50.7576895  20.0127053  21.1753917
  49.5374012  20.5985022  21.8526864  53.6957645  17.7324736  37.1082902
  53.9013767  18.2163036  36.3083768  52.8584671  18.0943108  37.3985338
  20.4640412  20.0126815   4.2039466  20.2342892  20.9073210   3.9528173
  20.5324411  19.5409763   3.3738574  27.6868176  26.0080481  44.3240499
  28.2440996  26.1442327  43.5578108  26.9175529  25.5520272  43.9827204
  77.6997307  64.4346625  25.6029558  76.8830827  64.7665829  25.9759784
  77.9255393  65.0666100  24.9203968  74.2406205  73.6831141   2.5061101
  74.4566956  73.8582779   3.4220034  74.9009612  73.0516339   2.2207797
   7.9321358  55.4835457  58.3873749   7.9692075  54.5652527  58.1197929
   7.0350644  55.7540364  58.1915998  10.6262302   3.1361279  49.1822863
  11.3592613   3.5974357  49.5898294  10.3053463   3.7404215  48.5128880
  78.4454730  24.7973378   3.3408287  79.1584781  24.5936962   3.9461306
  78.1210139  25.6498154   3.6310700  69.8421049   7.5315750  20.2845216
  70.1412153   7.7815425  19.4102895  70.5929041   7.0851713  20.6760025
  74.1752640  66.9688196  28.0193949  73.8482192  66.6785867  28.8708854
  74.6407178  66.2089223  27.6699090  52.9247046   6.0581154  69.3309259
  53.5480690   6.7653859  69.4965172  52.5178051   5.8934438  70.1815414
   2.3307607  41.1585945  29.1688704   2.8471920  41.6541786  28.5333157
   2.4114964  40.2479882  28.8851357  21.3936067  11.2254441  55.9975100
  20.4455328  11.2355065  56.1289883  21.7047930  12.0167136  56.4371538
  28.0414939   0.9162257  61.3916540  27.4816871   1.2618673  60.6964016
  27.4338913   0.5036679  62.0055342   9.6483967  76.7606354   8.9920700
   9.8861596  75.8493895   8.8208097  10.2018735  77.0180700   9.7293776
  53.1891727  31.1477709  59.4266987  53.4035730  30.7124329  58.6016273
  53.6577082  31.9814873  59.3864155  64.4968176   9.3726480  45.0800467
  65.2874660   8.9252371  45.3815889  64.5037651  10.2099407  45.5438566
  18.3197305  69.5082170  10.3043652  18.6515042  70.3975672  10.4277062
  17.7048967  69.3796284  11.0266364   9.2041084  46.0893959  64.0991116
   9.7144148  45.3372473  63.7989664   8.3408091  45.9659500  63.7045145
  23.6969230  65.6903226  45.3128290  23.6761281  65.9648222  44.3960667
  23.6769626  66.5089578  45.8084774  71.7832804   8.4008217  50.7831573
  71.4249754   8.7940401  51.5789127  71.7173815   7.4574894  50.9315205
  24.3961143  42.6226616  36.1559868  25.3422451  42.5436687  36.2777662
  24.2134166  43.5518456  36.2955213  71.1928886  17.7527010  37.1772671
  72.1283108  17.9523122  37.2143197  70.7639712  18.5632253  37.4516964
  28.5223746   1.0071103  35.7841134  28.3669329   1.9515832  35.7905078
  27.7785730   0.6387293  36.2608600  49.1818047   0.3675187   1.5461656
  48.7608099   0.1839588   0.7063431  48.9559507   1.2786910   1.7332152
  47.5126076  21.8286443  28.9134526  46.6837645  21.9964194  28.4650040
  47.7925968  22.6879811  29.2286968  64.9528751  73.6995268  69.7611141
  65.7228890  73.1783605  69.9884796  64.5451847  73.9041913  70.6026220
  57.1066856   1.5602979  20.3952384  57.5037193   1.9023621  21.1962295
  57.3621702   2.1843415  19.7158790  36.8861127  19.7537851  48.0169725
  36.5404654  20.4526949  48.5722065  37.2824812  19.1347229  48.6300707
  17.3986197  17.6648390  45.9203339  17.4313259  18.1932080  46.7178202
  16.5525675  17.8777325  45.5264997   0.1135240  40.8922720  52.6604557
   0.6945042  41.5308666  53.0738401  -0.5075680  41.4219427  52.1605301
  40.1839399  27.1055913  58.0798054  40.6795740  27.9163408  58.1949949
  40.1734638  26.7056704  58.9493942  53.1085443   8.6897945  21.4779067
  52.5229692   7.9432082  21.6041899  53.9799786   8.3468843  21.6760015
  81.0789064  78.9051442  41.6184711  81.8270996  78.5227697  41.1599636
  80.3506950  78.8172623  41.0034800  62.4614725  69.7657544  18.6314046
  61.6274402  69.7379870  19.1002870  62.2164828  69.7566170  17.7061331
  57.3829508  31.1607885  20.6311202  57.8271675  31.9872689  20.8204174
  56.4525747  31.3856101  20.6217003  69.4679594  16.5616298  26.0242987
  69.4188070  16.9543600  26.8958378  69.7748661  17.2705626  25.4590964
  19.6708739  38.8594723  35.6676006  19.2178822  38.4504771  36.4049959
  19.7059274  38.1755114  34.9988699  20.7720563  69.1542930  65.1416397
  20.6829831  68.2071132  65.2472305  20.1302430  69.3816919  64.4688797
  27.7907753  36.6263771  50.8944464  27.0251298  37.1516061  51.1271620
  28.0784917  36.9818640  50.0535679  62.5777960   8.6116147  11.6707373
  62.8256178   9.4953406  11.9424784  63.4030437   8.1992579  11.4154720
  59.1048241  44.0751314  43.9362383  59.3538332  44.9941492  44.0343571
  59.6307373  43.7617254  43.2004261   4.1420770  12.9264379  34.6023512
   4.6613941  12.3321986  34.0606689   4.7801906  13.5436404  34.9602699
  40.2817011   4.5563346  34.0383005  41.0976124   4.6448469  34.5309258
  40.5242538   4.7589329  33.1347799  11.2392661  76.0258276  38.6048627
  11.5876624  75.1764215  38.8757133  11.5669915  76.6397280  39.2620945
  16.4494655  68.6455912  18.1553626  15.9009263  67.8967709  17.9216850
  17.3350093  68.3806736  17.9066420  27.0091510  11.1825395  45.6788778
  27.1737933  10.7275522  46.5047789  26.5897846  12.0033336  45.9370613
   1.9621408   9.6399730  19.1865337   1.3325405   9.2521870  18.5787046
   1.4751455   9.7396880  20.0045347  14.4735575   1.0259824  28.7762308
  14.8189795   1.3752089  29.5977879  13.6205161   1.4485335  28.6762166
  32.5616431  18.2810688  35.8324957  32.1934056  17.6519763  36.4528799
  33.3921599  17.8907990  35.5601692  39.3965983  31.1794901  28.0425525
  38.5933805  30.6611538  28.0915475  39.6978855  31.2406015  28.9490438
  32.8219795  26.6841769  40.1408482  33.2165027  27.1816611  39.4245410
  32.6250958  27.3410487  40.8086729  39.5757723  20.3053761   1.5239500
  40.1406574  19.7752714   0.9616990  38.7299800  19.8576343   1.5040947
  25.0121352  73.1971670  26.7893481  24.4627378  73.2297707  27.5725031
  25.9073207  73.1594337  27.1261668  40.2944231  13.1400251  35.5482340
  40.7096481  12.7040327  36.2923646  39.3556333  13.0322564  35.7008457
  65.7770440  76.9094888  37.3508406  65.5713174  76.0448707  36.9953966
  65.9950540  76.7455817  38.2683587  49.7320557  25.3367305  63.2596064
  49.6600580  25.6808615  64.1498995  48.8438129  25.0568318  63.0384493
  78.5519555  45.8589299  13.9231613  79.2864182  45.2632942  13.7748078
  78.6258605  46.1053212  14.8451546  36.0737920  30.0577044  37.7467394
  35.9324908  30.9277058  38.1200528  36.9232321  29.7837377  38.0926108
  10.2870381  15.2100480  39.1493034   9.8395467  14.4555044  39.5322514
  10.6410408  14.8840129  38.3218908  70.3769470  70.3394531  68.2676159
  71.2040258  70.7530998  68.5147431  69.9570346  70.9726499  67.6854062
  38.0197239   8.9581507  45.5729771  37.7204967   9.7817081  45.9582663
  38.8186622   8.7445641  46.0549641  76.9199315  70.9344036  13.1837177
  77.3171118  70.1435286  13.5484028  76.1013320  70.6318755  12.7905238
  62.6068783  19.6520460  70.3514242  61.6947031  19.4509625  70.1423073
  62.9647636  20.0124454  69.5400906  73.6535683  77.0228500   8.7951428
  73.5575679  76.8811840   7.8533643  73.0712894  76.3769231   9.1950941
  41.9886541  18.7520683  57.9857254  41.3409042  19.4567621  57.9933453
  42.8154612  19.1844189  58.1994820  43.3412886  25.5892444  42.3778915
  42.8412151  26.0681081  43.0388355  42.7450752  24.9036741  42.0766354
  63.5382512  78.6202875  34.5556712  62.9081163  77.9519559  34.8249173
  63.6711011  79.1537439  35.3392553  40.1667929   9.1084355  46.9175339
  40.4862118   9.2026132  47.8149366  40.1589155  10.0007582  46.5712214
  42.0471764  28.6150646  24.0258479  42.3000097  29.1484046  23.2722855
  41.6288853  29.2320085  24.6263862  62.9686216  57.9132385  24.7151589
  63.2477543  57.0395774  24.4412327  63.3066777  58.4966726  24.0357828
  49.4142437  30.9662056  53.8037968  48.5646772  31.3456416  53.5790730
  49.6549177  31.3890743  54.6281052  31.7933938  77.5350941  39.5809531
  31.4557073  77.9312230  40.3842497  32.5950906  77.0883513  39.8528647
  30.9024617  67.4354905  50.1499891  31.7812965  67.7700729  49.9712801
  30.7245443  67.6997263  51.0526276  50.7364273  18.5026932  31.0776711
  50.4588413  17.7122986  31.5407634  50.2972317  18.4496617  30.2288318
  33.4368944  37.2922611  37.1609926  33.7321401  38.1339431  36.8136692
  32.8625989  37.5226831  37.8912807  52.7382994  14.0694094  12.5337076
  51.8284178  13.9664829  12.8125441  52.8904247  13.3363342  11.9373095
  70.0067663   1.1426672  36.0478568  70.0270653   0.7080317  36.9004488
  70.3654718   2.0142792  36.2147474  17.7512405  66.0016960  68.0346870
  18.3532664  65.4198593  67.5707197  18.2675121  66.7877836  68.2129145
  23.8157821  11.3521349  51.9135666  22.9968023  11.2372983  51.4315748
  24.4337821  11.6810346  51.2607765  44.1431999  17.9362297  32.4984717
  44.8046303  17.5276387  31.9400859  43.3166265  17.5442326  32.2167802
  81.9441036  77.7934027  33.7668753  82.1929434  76.9159297  33.4764409
  81.0800651  77.9373855  33.3809519  61.0812855  29.8945498  17.7104056
  60.6857443  29.0231156  17.6909471  60.3989553  30.4748774  17.3729515
  26.9711399  36.6061592  44.1605806  27.0823908  35.9702301  43.4538651
  26.3047743  36.2191081  44.7283697  81.7942688  43.3359146  45.4107094
  82.6908135  43.4265184  45.7335567  81.7872071  42.4932814  44.9566746
  39.5008397   2.1376523  46.3992167  39.3708777   2.8999865  46.9633007
  40.2664137   1.6957299  46.7664146  77.6717305  32.5091696  18.2636046
  78.3511323  31.8457174  18.3839262  76.8689793  32.0071554  18.1228769
  30.3817868  43.5569334  35.9886980  31.3110423  43.7542915  35.8713865
  30.1977825  43.8008547  36.8958211  78.3572483  25.5392241  56.1252832
  78.3144569  25.0484395  56.9459724  77.4640751  25.5106401  55.7822704
  62.1093988  14.6107364  69.3062687  62.0692158  15.1571786  68.5213995
  62.9447794  14.8386061  69.7142506  66.5335419  58.4506520  21.8797234
  66.9975641  57.8324803  21.3151100  66.5752223  59.2829414  21.4087799
   0.6277293  31.9138980  29.1613007  -0.1556379  32.2443366  29.6010613
   1.1173457  32.7005315  28.9210677  36.7988777  11.8881834  65.8974361
  37.7155614  11.7739511  66.1481810  36.7745233  11.6599190  64.9681711
  20.4806590  48.5875702  35.4561281  20.5758643  48.1061602  34.6342921
  19.6869385  48.2289886  35.8531880  34.1571307  28.0835605  38.3241606
  34.9576902  28.5946488  38.4430194  34.4351482  27.3155880  37.8250051
  68.3301258  28.4160852  64.8382139  68.2288694  27.4941635  64.6014786
  68.5420179  28.8532662  64.0134668  55.5670956  43.0715134  -0.2085850
  55.0473883  42.5476280   0.4010704  55.3914407  43.9778068   0.0444153
  35.1666665  16.0656774  17.3793590  35.5419660  16.5566099  18.1103635
  34.3710637  16.5465319  17.1512663   5.8802909  72.9656506  46.7959499
   6.6481036  73.2281828  47.3036623   5.2788180  73.7064886  46.8709278
  17.6064694  12.9244745  54.0246105  16.7992985  13.3898509  53.8052177
  18.2594872  13.2803869  53.4220076   0.1006147  31.6778733  15.1054028
   0.0631782  31.7549445  16.0587528   0.5016872  32.4968537  14.8144654
  57.7214336  20.8594155  57.3587942  57.3738813  21.5165186  57.9618359
  58.0712843  20.1735997  57.9275560  74.6178579  24.1255951  64.9021244
  74.5455551  23.6301017  64.0863466  74.0889645  23.6326623  65.5294371
  38.7674594  19.9453998  37.3900867  39.5059133  19.8965406  37.9971528
  38.0440617  19.5293045  37.8589082  69.2197800  29.5144916  45.6294632
  69.9968243  29.8995447  45.2242947  69.1458654  29.9576306  46.4746857
  39.1357398  26.7371941  31.3800454  38.2168126  26.4811015  31.4589095
  39.3391657  26.6168332  30.4524875  75.1754713  49.4807148  59.6594000
  74.9179125  50.2950096  59.2271805  74.9639130  48.7956476  59.0252399
  32.3667857  77.8691701  26.3725543  33.2520053  78.2090408  26.2417889
  32.4937484  77.0442042  26.8411088  27.9977775  30.8273578  41.1309147
  28.8307095  30.3717518  41.0089445  27.5240397  30.2936864  41.7688799
  79.3645433  62.0155758  22.9699755  78.4697393  61.7650897  23.1997919
  79.7183183  62.4020345  23.7710524  59.0537835  41.5913759  60.3381154
  58.7081647  41.1629976  61.1212322  58.7532902  42.4974655  60.4083893
  17.6554620  26.7256784  18.8067353  16.8406332  26.5317249  18.3434129
  18.0030239  25.8674979  19.0495539  36.6208005  22.7962923  61.6703701
  37.0913076  22.5242639  60.8824253  36.9233656  22.1939301  62.3499584
  77.3379946  48.3565044  36.1740780  76.4915419  48.4419489  35.7353878
  77.6628304  49.2541218  36.2447476  61.3551378  22.3138714  60.5484629
  60.4714823  22.6766586  60.6098413  61.7376232  22.7430439  59.7831202
  46.2481403  37.5530410  40.0113773  45.3613806  37.2148728  40.1359940
  46.7884684  37.0334768  40.6066370  35.7255384  80.2379461   9.0551594
  35.5891534  80.2433630   8.1077412  35.6798288  79.3133064   9.2984417
  40.2559519  39.2672300  41.6978836  40.1636457  38.3315563  41.8773937
  40.5165195  39.6474886  42.5367737  74.6777964  20.4581165  43.8646317
  74.6716404  21.2597680  44.3876505  74.8412895  19.7597992  44.4985485
  34.0447617   3.3435193   7.6372808  34.8381925   2.8173864   7.5378728
  33.4897828   3.0810964   6.9028658  38.5593510  29.3370557  38.6358809
  39.4701982  29.0523005  38.5616922  38.1980848  28.8023901  39.3428802
  12.6325774  25.5772281  24.3985868  12.6993525  24.8957825  23.7297034
  11.8926120  25.3072882  24.9424744  43.5187292  25.8152080  27.1696782
  43.4877062  25.3062797  27.9797792  42.6404142  26.1864734  27.0862794
  18.0014265   5.5663663  52.5953817  18.8857591   5.2294713  52.7392149
  18.1252205   6.3327605  52.0354271  52.5375653  61.2654470  69.3246759
  52.3626304  62.0589040  69.8306968  53.4699512  61.3163041  69.1141964
  45.0751638  23.4523726  47.7044296  44.9507666  22.8394818  48.4290838
  45.8602524  23.1374359  47.2564602  62.4374062  41.0054302  47.7901840
  62.6411873  40.7013273  46.9057465  62.6796967  40.2731514  48.3570099
   0.8298034  38.1393886  66.6704845   0.9243125  38.9457726  67.1774817
   1.6803283  37.7070427  66.7473888  33.3921409  28.6806250  20.9419918
  32.9647255  27.8288937  21.0319996  32.7248645  29.3128586  21.2089276
  23.6194706   8.2688487  27.6725245  24.1665316   8.6775231  28.3433008
  23.3425713   7.4394238  28.0619001  61.9082451   9.1201615  44.5043564
  62.8329468   9.1825372  44.7436714  61.5316391   9.9545199  44.7840834
  71.4014482  31.3613248  62.2966671  72.1378708  31.9680882  62.2207928
  71.5352058  30.9264517  63.1388235  45.2740049  41.5275002  37.5908661
  45.4310417  40.6083822  37.8071952  46.1439276  41.9268036  37.5961208
  37.6488948  39.9747491  41.2753010  38.5541654  39.6713543  41.2069798
  37.6347923  40.7981825  40.7874632  37.5669861   7.9544199  24.5027852
  37.4367523   7.7834970  23.5700154  37.2044921   8.8298273  24.6387696
  69.1856289   9.8896521  48.4121847  69.1953945   9.2477292  47.7022076
  70.0931787  10.1864636  48.4792137  61.8027735  22.0289397  56.8955517
  62.3089933  21.3793159  57.3833704  61.5081120  21.5641332  56.1123800
  22.8428673  14.2069222  18.6113671  22.7698969  14.7785880  19.3756417
  23.5574603  13.6079241  18.8276699  50.8523846   4.2681253  58.6543083
  51.6671467   3.9481798  59.0416384  50.6016731   5.0109971  59.2034149
  22.4798226  17.3603129   9.3839002  22.4317837  18.2671702   9.0813553
  21.6247368  16.9894707   9.1658723  31.8125510  30.7221627  49.7691107
  31.8261790  31.6363335  49.4856739  31.2868333  30.2738214  49.1066599
  46.0216570  30.7741332  43.0366707  46.2239075  29.8492384  42.8956127
  46.0959625  30.8938670  43.9834404  23.0297112   2.5034505  38.4631300
  22.3784661   2.3743600  39.1526556  23.5311794   1.6882023  38.4516406
  42.4272537  13.9708233  31.8570042  41.9960785  14.5056176  32.5235748
  43.3104753  13.8294196  32.1978283  49.5805216  17.1305060  57.3808002
  48.9632702  17.7076614  56.9312191  50.2695465  16.9682753  56.7364740
  15.5770061  70.6610114  41.4529705  14.8125646  70.2732379  41.8789911
  16.1938140  70.8209915  42.1672440  19.2367637  14.3546176  52.2451067
  19.9091375  14.7887647  52.7701426  18.9215481  15.0346696  51.6497946
  40.4468966  15.5980253  68.9814568  40.1562691  15.0256789  68.2713938
  41.3960600  15.4781854  69.0124416   4.4932052  46.3953795   2.4550274
   4.8596403  45.5129691   2.5125530   3.5459348  46.2645872   2.4974659
  67.4093342  12.0652461  26.1795592  66.5844822  12.2818851  26.6142011
  67.7854443  11.3661051  26.7143273   6.8331927   8.3421248  31.5671325
   6.9272822   7.4009776  31.4200926   5.9709853   8.5552877  31.2102056
  53.7498188  12.9322612  41.2219524  54.0199375  13.8154638  41.4733887
  54.5667028  12.4868381  40.9971714  48.7364054   6.0373598  17.1631765
  48.1239653   5.4089910  17.5456703  49.5062304   5.5149078  16.9381201
  32.1665359  22.0132947  48.4847593  32.7678156  22.7572632  48.5195255
  32.5086284  21.3983297  49.1336203  44.5977259  21.1613798  50.1026678
  44.2234373  20.3258634  50.3820372  45.1981401  20.9298658  49.3940496
   0.3618759  47.2312312  66.8504563   1.0374159  47.9049282  66.7729649
  -0.3676992  47.6725339  67.2854385  25.5211997  46.8326473  35.2320886
  26.3937521  46.9330072  34.8515463  25.3373528  47.6804686  35.6366014
  20.5843472  39.4400048  18.3513570  19.8732114  38.8063812  18.2562768
  20.3910637  39.8958302  19.1705608  51.1562634  33.3785629  47.1430588
  51.8624544  33.0387068  46.5934944  51.4589071  34.2456365  47.4129200
  14.5493982  73.4100086  37.9536152  14.9372956  73.8647080  38.7012887
  14.7781608  72.4902607  38.0876493   8.1274468   5.4205525  34.1661072
   7.7008498   5.9837788  34.8118806   8.8886893   5.9229851  33.8757563
  40.9285784  11.9194186  56.7273378  41.6654634  12.3788381  57.1300316
  41.0383844  11.0076594  56.9972801  62.5433302   1.4874059  43.5979939
  63.1853724   2.1206923  43.9188671  62.8829098   1.2126650  42.7462673
  40.9250355  27.5187969  26.4153099  40.9127569  28.4626102  26.2562537
  40.2107000  27.3710394  27.0350838  57.4743449  74.6402872  25.6355691
  57.3553775  73.8249833  26.1227632  58.0380827  74.3998558  24.9002981
  78.1956199  53.6795839  20.4134110  78.1446412  53.4091218  21.3301876
  78.2455304  52.8585382  19.9238995   8.0204970   9.3589675  57.2512007
   7.6598358   9.2431456  58.1302547   7.5711578  10.1312351  56.9077921
  26.0867381  14.6289861  22.6440215  26.8383217  14.8352945  23.1997132
  26.4721632  14.3570399  21.8111205   8.9826200  71.7608709  45.7628298
   8.7501833  70.8362097  45.6779385   8.9301941  71.9357211  46.7024660
  76.0096947  80.7561255  52.8878212  76.2757710  80.7594735  53.8072872
  76.7456928  81.1554383  52.4240446  43.3554983  36.5285993  40.3753424
  42.4142456  36.6726828  40.2778006  43.4249401  35.6615710  40.7749271
  35.4091549   0.1172059  24.1882825  36.2755799  -0.1297447  24.5116329
  35.5356359   0.2614191  23.2504988  18.9477563  13.4544551  20.0890374
  18.4976459  12.6364672  19.8780191  19.5318568  13.2267213  20.8123612
  50.7822943  29.4526076  42.1848059  51.4638424  29.9337411  41.7155075
  50.1312447  30.1173902  42.4093676   8.5984012  57.1789547  21.5828350
   7.9256651  57.7178784  21.1666420   8.7304517  56.4501401  20.9765175
  69.0978813  44.1513729  58.1256533  69.8029375  44.3079758  57.4974775
  68.6549234  44.9962807  58.2040739  43.5566327  74.2736590  58.7315512
  43.5815713  74.8376358  59.5045567  43.9452121  73.4491945  59.0239525
   7.2810718  75.6633063   0.5395630   7.7402136  75.6626578  -0.3003332
   7.4321100  76.5393778   0.8944157  23.5101771  15.4557943  38.1928587
  22.7002716  15.1900899  37.7573299  24.1289639  14.7519910  37.9979324
  55.7372713  20.4111719  41.5328693  55.2761650  19.6519434  41.8895006
  56.2066698  20.0703955  40.7714462  59.0481946  67.9109341  60.9975719
  59.5263002  67.1180624  61.2404776  59.0391347  67.9014022  60.0404596
  60.1050091  25.3503799  46.1173868  60.4018211  25.9783077  46.7760563
  60.6770515  25.5036855  45.3653908  26.9758320   4.1242713  55.3287983
  26.9302654   5.0542903  55.5506516  26.0633206   3.8353807  55.3190231
  76.8823767  40.9880447  55.0806189  76.9486427  40.2103138  54.5265675
  77.5812483  40.8825159  55.7261229  73.8995361  32.2623610  19.3612230
  74.1891813  33.0417204  19.8354948  73.3342361  32.6008248  18.6668801
  54.0808392   9.9570841  59.2849302  53.7938023  10.4765666  60.0359106
  53.3378172   9.3856800  59.0909100  79.0567255  37.5309062  52.5588942
  78.1450558  37.7811980  52.7087307  79.2851496  36.9930863  53.3170509
  83.8811588  18.8934684  44.0624523  83.4967041  18.1451476  44.5190048
  84.0299034  19.5427895  44.7498322  70.1081991  15.9608376  56.9292784
  69.5616817  16.0067332  56.1447763  69.6316719  16.4720047  57.5833893
  56.0284853  25.7364202  36.5993595  56.8071127  25.6228518  37.1444058
  55.6383562  26.5547466  36.9065642  53.4066629   9.2740041  37.4896836
  53.5858917  10.2141345  37.4734330  54.2614079   8.8697702  37.6388192
  -0.0304776  16.1314046  61.1500597   0.2742785  16.5174317  61.9712400
   0.6574363  16.3393950  60.5177975  32.2564983  13.6091506  32.1561646
  31.4363432  13.6594284  32.6471329  32.8496385  14.2005503  32.6194811
  52.8459692  34.3969679  44.9529505  51.9757795  34.7089672  44.7046471
  53.4261751  34.7391582  44.2728758  41.7303559  79.9224894  50.8112526
  41.7847058  80.4333478  51.6189051  41.2818048  79.1165978  51.0673237
  72.2897673   2.4033919  49.8899889  72.4845076   1.4994124  49.6427488
  72.9206896   2.9277933  49.3968630  64.3027401  28.0364728  51.0637951
  63.7652302  28.6871147  50.6121492  64.8523235  28.5494256  51.6563034
  44.0577984  13.0595016  25.2337813  43.2209587  13.5236776  25.2120733
  44.1179466  12.6340258  24.3784547  73.9679241   5.2222627  50.8427525
  74.2744684   5.6880808  50.0647545  74.6088743   4.5230636  50.9713411
  30.5589509  25.7646751  57.1163797  30.0635576  25.4023099  57.8508949
  30.2782297  26.6783810  57.0656919  16.8508839   9.7318293  12.2322109
  16.3182616   9.4537713  11.4870671  17.7373003   9.8059060  11.8786362
  57.7796125   3.6333194  48.1662035  57.1033192   3.3966330  47.5315046
  57.4591732   3.2856917  48.9984894  71.4464951   6.1221075  41.4642715
  71.5301323   7.0694804  41.5725327  70.6026173   6.0044563  41.0280848
  29.7760770  72.4413759  17.8996778  29.0943906  72.0118988  17.3828781
  29.6832082  73.3713598  17.6929474  37.1171424  73.3039922  41.9368887
  37.8446004  72.8721059  41.4891052  37.5076339  74.0840674  42.3308802
  76.4581633  50.3379345  53.3280849  75.5980778  49.9264717  53.4128189
  76.3411331  51.2149525  53.6932850   3.7632102  58.4200859  41.2651062
   3.8221282  57.9427958  42.0927286   3.7974852  59.3427086  41.5177345
  58.9145708  33.2107759  53.4640408  58.8069391  32.3841977  53.9345884
  59.4447565  33.7520766  54.0489578  59.9621773  38.4703255  51.3228273
  59.4198036  37.7038598  51.1368322  59.5869160  39.1659951  50.7829618
  33.7463853  20.5986671  62.3176297  33.1709954  21.3361291  62.5208750
  34.2459819  20.4560308  63.1215510  56.6214848  55.2225161  29.9589133
  56.8780184  56.0515261  30.3628492  57.4147797  54.6875286  29.9855042
  64.8145199  68.0726624  52.6738787  65.3775501  68.3743715  51.9609976
  65.3469181  68.1812429  53.4619141  74.3322325  24.5598149  31.2732959
  74.2856836  24.2771339  30.3599763  73.4278631  24.7711778  31.5049887
  72.1679401  36.5837646  50.9000874  71.4256907  37.1881056  50.9081936
  71.8013954  35.7502580  51.1952925   5.3182620  57.3192215  39.2762280
   4.9996489  57.4938107  40.1618004   5.9411925  58.0248785  39.1023421
  54.4005108  14.8581696  50.0369787  54.2449284  15.0478101  50.9622145
  55.0727987  14.1768229  50.0418901  12.8152198  62.6267147  13.3621180
  12.4875087  63.4389257  12.9759300  12.2731704  62.4956417  14.1400838
  78.8348579  59.3158817  61.1155176  78.1120110  59.7697449  61.5488005
  79.4709826  60.0053930  60.9253788  44.6868896  28.7855721  68.8706493
  44.3103695  28.7668920  69.7504902  44.3539524  27.9924250  68.4507608
  24.1651988   9.2199255   6.3295487  24.5689845   8.4081150   6.0227040
  24.1492390   9.1340996   7.2827604  84.1605568  38.4227896  56.9184494
  84.2139816  39.1812658  57.4999094  84.9987411  38.4158230  56.4562416
  76.6412401  24.9500728  27.9650760  77.2498703  25.3248858  27.3284316
  77.2036743  24.5890427  28.6503196  65.7959318  67.5289345  57.5279140
  65.9750605  67.7376509  56.6110802  65.2286577  66.7587852  57.4918175
  55.6040859  47.2665358  50.8574677  55.0095844  47.7872562  51.3975191
  56.3037109  47.8740644  50.6173372  81.7468643  31.1411023  60.7094765
  81.8101501  31.8710828  60.0935555  81.4693642  31.5449047  61.5317726
  59.0558812  38.3880643  62.8264519  59.9457738  38.6153583  62.5568858
  59.0353868  37.4313811  62.8026166  71.1033630  60.9542656  50.4661703
  70.5640793  61.3144493  49.7621298  71.4717579  60.1508904  50.0986147
  73.1563520  36.4556956  37.6440454  72.8005505  35.8940792  38.3326817
  74.1012573  36.3065171  37.6776743  80.7419491  66.8831539  16.5847445
  80.5790997  67.0089340  15.6499243  81.2164497  66.0534000  16.6356838
  79.0494299  15.9635997  43.3922672  79.4302845  15.1090431  43.5945320
  79.1829014  16.0683894  42.4502277  73.6847496  34.6608829   6.1356163
  74.3171835  33.9832163   6.3744038  72.9483891  34.5218325   6.7311603
  81.7962074  55.0602531  31.5016985  81.6716480  55.4547024  30.6384945
  81.0130501  54.5266581  31.6364741  54.5530462  49.0504646  41.0581684
  53.9633751  49.5999050  41.5745306  53.9989662  48.3378553  40.7396984
  76.4431381  48.2991123  64.8786449  76.7954540  47.4357891  65.0949144
  75.6009579  48.1165934  64.4619370  10.5586788  74.8791905   1.4109352
  10.2297517  74.1978355   1.9972685   9.9864456  75.6296368   1.5709665
  52.6389837  57.0273542  38.0951667  53.0574942  57.8728533  37.9332662
  52.0775318  56.8880749  37.3325372  68.4042692  64.4008589  17.8843188
  68.2370281  64.6939945  16.9885886  69.0262699  63.6796808  17.7881217
  13.8785812  78.1901284  48.2183960  14.5606872  77.5192853  48.2488659
  13.5414383  78.2297345  49.1133812  56.5806437  37.5240183  39.2274261
  57.4476337  37.9204106  39.3136287  56.7516851  36.6451669  38.8889027
  52.4374628  13.4528625  52.8688002  52.8172731  13.1817067  53.7045336
  52.6371050  12.7330899  52.2702169  80.7873631  74.8547506  45.8398104
  81.2487221  75.4405260  45.2396011  79.8603487  74.9985266  45.6495333
  58.9546919  79.8353624  51.9614983  58.8476896  79.9282312  51.0148430
  59.8038197  80.2363491  52.1470404  58.0313063  72.5693226  31.7351937
  58.7739563  72.3138857  32.2824168  57.5633335  71.7509556  31.5693307
  62.7673101  63.7811756  39.6640515  62.8574562  63.0538464  40.2797604
  62.8029728  64.5649624  40.2123547  65.0067568  57.1327829  48.5840082
  65.8807325  57.2159338  48.9654303  64.6120787  56.3945675  49.0482283
  73.5133076  30.2690268  21.8856382  72.8711271  29.6584630  22.2476435
  73.0069828  30.8270788  21.2953472  28.6726117  44.9919726  26.9309643
  28.5977911  45.4888369  27.7456787  27.9662728  44.3476607  26.9776467
  65.4277420  67.5554943  10.6124222  65.3875923  67.1644974   9.7396463
  64.5391893  67.4647617  10.9566236   2.4332732  18.0961597  29.3766093
   2.3680705  18.9688504  28.9888072   2.1621150  17.5021696  28.6766982
  66.3340664  54.0538025  45.4631090  66.0331821  54.1218138  44.5569754
  65.7619333  53.3950043  45.8566523  58.1031990  50.0542784  32.8073788
  57.4497509  49.3549442  32.7945089  58.6418867  49.8930216  32.0327544
  85.4311085  67.1100044  63.7483883  84.5593834  67.1197271  63.3531046
  85.3692913  66.4604235  64.4487095  75.2104378  45.2034426  61.6517210
  75.9925795  45.1060963  62.1948719  75.4160452  45.9302998  61.0638189
  67.5147295  18.4311414  45.8365202  67.8879499  18.3238018  44.9616385
  66.9757271  19.2195153  45.7719040  83.2424736  44.9067211  61.7540884
  84.1392040  45.2102613  61.6127920  83.2114220  44.0474081  61.3335562
  53.0489277  18.6470915   5.3711489  53.4184956  18.0963541   4.6809748
  53.4407639  18.3143975   6.1786202  51.7255688  39.1257215  57.4877739
  52.1380711  38.6168599  58.1857252  51.4584446  39.9412608  57.9117632
  72.7059174  44.4052315  38.3827448  72.8611374  45.2995586  38.0789113
  72.1387911  44.5069933  39.1471052  57.9409552  63.2095003  33.9995265
  58.7040472  63.7101698  33.7109876  57.7324867  63.5667944  34.8627257
  67.0041323  57.2732544  34.1777301  67.7547979  57.8650904  34.2274356
  66.2414408  57.8473759  34.2478299  66.9710636  53.0626678  53.6809540
  67.7982187  52.6596403  53.4171152  67.0744991  53.9883041  53.4602022
  49.0457106  17.7966964  50.6432772  48.7371731  18.1456828  51.4794874
  49.9008989  18.2066381  50.5135679  66.2094164  56.6072035  43.3936501
  65.2726460  56.4218664  43.3277321  66.3254452  56.9414043  44.2830753
  62.3963785  40.6761074  53.3172274  63.2128572  40.4522419  52.8706026
  61.8767786  41.1295080  52.6533985  18.5614508  47.2123241  16.0416162
  18.3462924  47.9299593  16.6373837  19.3502063  47.5071907  15.5864704
  79.2363262  45.1897955  25.8427191  78.8400602  45.4380178  26.6779375
  79.7921610  44.4399261  26.0547924  13.0520651  68.5311504   5.3013972
  12.2296211  68.2245203   4.9195698  13.2367632  67.9081770   6.0042694
  54.5852709  45.3060293  15.3859234  54.3770027  45.5445051  16.2892437
  54.3932629  44.3696690  15.3350532  18.7284964  16.6379726  23.1133962
  18.0435771  16.0318875  22.8309584  19.2068976  16.1599457  23.7907863
  70.5224371  47.9596519  39.8625517  69.8596716  48.0415726  40.5483055
  71.3282347  47.7452755  40.3326273  80.0535393  69.7260523  51.3002539
  79.6484613  69.2436790  52.0209885  79.3358898  69.8897123  50.6883526
  31.4084834  30.9882522  31.8321609  31.8008727  31.7736840  31.4508986
  31.4139479  31.1514616  32.7753282  60.6115150  38.1266332  33.3396006
  61.1481857  38.9109468  33.4539151  60.3374243  37.8926253  34.2263603
   0.3585166  48.4412575  23.3674479   0.8622760  47.6305962  23.2947087
  -0.5461389  48.1513643  23.4848499  54.8079967  57.7836752  55.3129387
  54.9918365  58.4652710  55.9593582  55.5541849  57.8139162  54.7141743
  70.2846861  45.9581995  19.4108224  70.3655195  46.6508436  20.0665212
  69.4169521  46.0900497  19.0288723  17.0080966   1.9629595  15.6801832
  17.7184218   1.9941260  16.3210416  17.0266265   1.0663640  15.3455114
  67.7727985  31.0448194  27.4932456  67.9927206  30.6393743  28.3319831
  68.1076431  30.4339218  26.8368006  30.0312919  15.5805779  45.6224346
  30.5546302  15.3427339  46.3877964  29.7408313  14.7430801  45.2612400
  13.0051154  68.7321997  69.2380619  13.5448951  68.3484268  68.5469818
  13.5791415  68.7584162  70.0035954   3.5233992  28.5980749  37.8805256
   3.4138793  28.0911088  38.6850262   3.3411139  27.9743505  37.1776915
   4.2847937  46.3457966  21.1518145   5.1159018  46.2710905  21.6207623
   4.4239634  45.8599949  20.3388834  71.3327789  70.3361320  42.1312046
  70.9523010  70.8925676  42.8108025  70.5867195  69.8612404  41.7650032
   8.4906933   2.5891739  45.1254129   8.4889099   1.7513996  45.5884123
   8.1928512   3.2237011  45.7772493  80.0250435  36.0861611  54.6778297
  80.3163910  36.9453716  54.9829578  80.0807381  35.5256152  55.4517317
  12.6505539   1.3065677  45.9714413  12.1895668   0.7284122  45.3636122
  12.2781250   1.0990577  46.8284512  63.5899496  78.4882879  42.1759081
  63.1878757  77.9760551  42.8774643  64.5147133  78.2423496  42.1995497
  20.7880375   4.2498928  30.4936934  20.8480665   3.3909565  30.9118629
  19.8520776   4.3751388  30.3370810  24.2191503  13.9819364  58.4566769
  24.4505832  13.7951593  57.5468501  24.5648048  13.2376317  58.9493832
   9.8410148  52.3802614  39.6524167  10.3124064  53.2129860  39.6767926
  10.5076426  51.7344284  39.4184756  84.1877651  43.9878178  46.6000795
  85.0636387  44.0121937  46.9854164  83.9724159  44.9060249  46.4365339
  46.8225241  47.3297501  12.6060462  47.0950127  46.9208479  13.4274971
  45.9713459  47.7204275  12.8037763  20.4423881  75.8300352  23.0685425
  21.3232827  76.1908484  22.9681945  20.5735803  75.0036287  23.5333872
  85.6225350  73.8360449   5.8176211  86.3384488  73.7183424   6.4419964
  85.5384782  74.7851082   5.7257298  27.1371481  17.0214611  27.5381231
  27.1805689  17.8420406  28.0290413  28.0042955  16.6310363  27.6470304
  61.8393993  46.5437603  17.2319734  61.2575817  46.5010452  16.4730954
  61.5960503  45.7856798  17.7633178   4.8426074  66.1923170  41.9258404
   4.6016806  66.5531778  41.0726309   4.2268103  66.5944147  42.5384903
  71.4058828  29.5452332  29.9094653  71.7749071  28.7608767  29.5034647
  70.8627319  29.2122126  30.6238270  13.6640853  63.3309984  36.3779068
  12.8860778  63.1172895  35.8628607  14.3876952  63.2731485  35.7539868
  62.9429865  54.0785074  41.9286299  62.9977846  53.5195875  41.1534929
  62.3753929  53.5976553  42.5309992  51.0747623  67.4963760  44.5700455
  52.0318556  67.4822044  44.5712566  50.8472490  68.2637739  44.0450954
   2.6343748  72.0290108   3.6109093   2.1292230  71.3829132   4.1044787
   3.5279056  71.9381090   3.9419201  51.8500566  53.6941290  50.5755138
  51.7654657  52.9653311  51.1902809  51.7974806  54.4771242  51.1235905
  76.2453699  53.0843735  29.8285818  76.4538050  52.4446535  30.5094218
  76.3419199  52.6009607  29.0080786  78.8719559  53.6765099  37.9323959
  78.4283209  53.7266207  37.0856929  78.8377285  54.5700359  38.2739758
  52.4108362  58.5167122  35.0074434  51.9463682  57.7143860  35.2457118
  52.9158497  58.2791615  34.2297816  80.4129314  55.7530403  64.3398142
  81.2294388  55.5148649  63.9007044  79.7469521  55.2100611  63.9180565
  63.2207775  60.7104254   7.3408204  64.1440773  60.4682589   7.4123037
  62.9477310  60.8821249   8.2420391  53.5198259  50.6741714  51.6975641
  53.9972258  50.0038576  52.1864414  54.1800070  51.3358259  51.4911509
  83.6516094  39.6499729  23.0363894  84.5662785  39.8092031  22.8034449
  83.6954880  39.1545510  23.8542271  13.9364165  10.2840471  66.8736267
  14.6453303  10.1864135  67.5093412  14.0900534  11.1397219  66.4730692
  53.5236311  77.5867605  22.8719497  54.4158649  77.4426365  23.1872058
  53.1906700  78.3019543  23.4140420  14.2426604  55.5604839  10.9659314
  14.1123885  55.8767891  11.8599176  15.1156062  55.8717728  10.7265556
  65.8788633  50.7562065  43.0379677  66.2754345  51.6272593  43.0229092
  66.0878372  50.4128790  43.9066982  81.8510532  70.9791565  57.5057983
  82.7046108  70.7900047  57.1160555  81.9819641  70.8471966  58.4447765
   5.8914870  53.2252836  60.2048969   5.0613898  53.6383200  59.9670506
   5.7660788  52.9392195  61.1097002  22.2404265  14.7267701   2.5101784
  21.6589951  13.9665200   2.5240162  22.7668738  14.6113182   1.7191342
  49.1144943  62.7355099  44.4979906  48.9557648  61.9045496  44.0501785
  49.3247652  62.4862576  45.3979301  55.0311327  63.5764217  32.9962540
  55.3867149  64.0702391  32.2573781  54.0829372  63.6029673  32.8679633
  77.8075361  28.8014865  39.2264867  78.1759930  27.9732490  38.9190936
  78.5056591  29.4410706  39.0858293  60.5162811  55.0556040  25.7450867
  61.0118628  55.2157831  26.5481901  60.3557682  55.9277296  25.3847241
  59.8882580  54.1670656  58.6647177  59.0250635  54.2535925  58.2601929
  59.7386503  54.3559456  59.5910978  56.5532898  17.0707251   3.0105046
  55.7400250  16.7274834   3.3806494  56.9616723  16.3152195   2.5878075
  56.2254810  59.7664833  56.3185072  56.3306952  60.1206875  57.2015142
  56.3273811  60.5243301  55.7427359  66.4043951  44.7506571  55.6427431
  67.1065760  44.1248226  55.4652309  65.9366226  44.3798971  56.3910437
   1.9520542   8.3751636  23.5301065   1.0009500   8.2678657  23.5410976
   2.1045419   9.2062431  23.9798832  49.6260952  31.0113932   2.9966667
  49.8967337  31.8973853   2.7558163  50.1642107  30.7952811   3.7582186
  73.3344841  38.5003924  30.0355768  73.2574511  37.6935673  29.5263338
  73.2606506  38.2165051  30.9467244  41.8439409   9.0883690  57.3726797
  42.4994013   8.8178688  58.0156612  41.1631986   8.4177166  57.4279404
  80.8456326  53.8277912  55.0483465  81.0871315  54.6765041  55.4192781
  79.9984980  53.9815235  54.6300650  46.3357830  76.4734268  61.9134140
  46.4727306  76.5723753  60.9712410  45.6863546  75.7743073  61.9889259
  15.3515261  55.0142956  63.9008760  15.3295630  55.9598255  64.0482473
  16.0326880  54.6953678  64.4929409  44.4906330  79.4773245  46.3795614
  44.8992634  79.1784143  45.5672169  44.8652649  80.3450680  46.5309381
  85.2071145  52.9888852  14.7889069  84.2899468  53.2623597  14.8045471
  85.3284839  52.5106951  15.6091717  26.6339445  77.4730968  36.8786669
  25.9945393  77.6953173  37.5554323  27.4814224  77.5401878  37.3185706
  76.7705631  24.8708916   7.4139649  77.6447964  24.5485139   7.1948200
  76.8426561  25.1589727   8.3239335  35.5972504  12.2087933   4.4239739
  35.7844281  12.5863768   3.5645416  34.6634888  12.0001627   4.3957022
  69.0395880  58.7683725  60.3650236  69.4790649  59.6182775  60.3925610
  68.4504175  58.8276482  59.6129608  33.5584712   2.3528696   1.3119343
  32.9323411   3.0709816   1.4041403  33.9327073   2.4720026   0.4390124
  54.3783903  66.7637253  37.2729230  53.4444046  66.5585804  37.2302461
  54.7385168  66.4109755  36.4592242  58.1328058  62.5346088  53.0918264
  59.0120411  62.3030281  52.7925777  58.1151915  63.4912968  53.0658245
  78.2852125  74.9398184  44.7760344  77.3976660  74.8658800  45.1267767
  78.1926155  75.5014706  44.0064812   5.7710570  63.0031586  69.1307974
   5.6109542  63.9380646  69.0021420   5.0239962  62.5727797  68.7149858
  76.9078016  41.7563343  35.1842308  76.3099480  42.4475002  35.4689932
  77.2005844  41.3432121  35.9965372  74.9571323  45.6381178  35.5710006
  74.5049858  46.1453009  36.2452149  75.4588032  44.9849319  36.0587573
  12.7380439   0.8134418  51.0774755  11.8676349   0.7532554  51.4711809
  13.1450960   1.5641742  51.5098381  75.4895401  49.9253368  48.2783222
  75.1271963  49.5359135  47.4825287  74.7310829  50.0574446  48.8471127
  51.0317183  65.9892654  37.5277400  51.3864279  65.5330038  38.2907867
  50.4152489  66.6237688  37.8932548   9.1393107  18.1314301   3.6855474
   9.1922778  18.1617403   4.6407998  10.0513762  18.1174588   3.3954164
  75.9110403  47.9275703  15.4750776  75.6042624  47.1280670  15.9027600
  75.3763628  48.6237049  15.8568442   8.0753827  26.7975499   1.7195824
   8.2285642  26.9833828   2.6459912   8.3603644  27.5907494   1.2658766
  82.0341969  56.1109400  56.0782146  82.9232693  56.2932444  55.7740116
  82.0133781  56.4488697  56.9735384  42.6141596  77.4728489  21.0321474
  42.2262335  76.7249060  20.5779171  42.6851845  78.1507015  20.3600574
  72.6391125  59.3584824  37.1635294  72.6158762  58.7581015  37.9086709
  72.1041918  60.1029348  37.4390030  18.7639257   6.2079769  28.2307172
  18.5112068   5.3382545  28.5404801  19.2451402   6.5926700  28.9632988
  60.7192039  58.9410877  43.2923794  60.3553104  58.6527014  44.1294241
  59.9531126  59.1215563  42.7476120  52.4376011  68.7945843  31.1418700
  51.5883064  69.1736507  30.9155083  53.0687284  69.4872713  30.9467053
  64.4933796  41.1318064  41.0796595  64.8796940  40.4543829  40.5246019
  64.8995733  40.9999657  41.9363165   6.1609763  44.3860531  15.5033922
   6.0310477  45.3333139  15.4580867   5.2956504  44.0354347  15.7143581
  79.7274446  64.8514318  39.1932344  80.4556656  65.4703665  39.2465162
  79.4947910  64.6762562  40.1050568  69.2997599  78.0373478  49.6137953
  69.9099445  78.5275459  50.1648045  68.6139917  78.6685038  49.3956375
  74.8978949  45.8104658  40.0571442  75.5314589  46.1560488  39.4283342
  74.8138523  44.8848200  39.8283458   3.9099521  57.1859694  21.9818020
   4.6123618  57.1325779  22.6298857   3.2660216  57.7753401  22.3745060
   1.7385551  67.8242870   2.9923752   2.3220607  68.1206461   2.2938612
   2.3171922  67.3922153   3.6206463  63.1929827  56.9999027  55.3872967
  62.9000664  56.5353441  56.1712742  64.0534973  56.6271353  55.1954889
  16.4102575  73.5901614  15.7518700  15.7248756  73.6776539  16.4143112
  16.3324854  74.3826242  15.2206543  14.3233225   5.0382476  47.3804188
  15.0236293   5.4619747  47.8766537  14.2205927   4.1815811  47.7948952
  72.9891634  54.3790054  16.4474428  73.6012650  54.2954493  17.1785927
  72.4043179  55.0916624  16.7049456  68.6471605  75.8458185   8.9371651
  68.8034964  76.7270184   9.2766917  69.1284895  75.8188725   8.1102270
  34.2414546  43.7151839   6.7761067  33.7411522  44.5251681   6.6768482
  33.6847567  43.1544997   7.3164299  67.5427723  60.2480268  49.2722893
  67.0992517  60.4226255  48.4422064  66.9080257  60.5039883  49.9414730
  44.4194674  21.4121891   2.5304440  44.0649533  22.2931649   2.6505688
  43.9649510  21.0742690   1.7587879  55.9031677  57.8514099  27.9193044
  55.4199362  57.2927094  28.5280538  56.5365171  57.2642517  27.5065684
  19.6002883  59.6110821   9.4433284  19.6927852  60.4808521   9.8321390
  19.5994204  59.7695732   8.4993416  63.8011646  34.0521359  53.0785370
  63.8642168  33.7303710  53.9778280  64.4910908  33.5844517  52.6078939
  49.3556643  61.0220575  51.2222338  48.4738159  60.7974291  50.9253931
  49.2211485  61.7116070  51.8723583  77.1005487  41.1328983  22.8283787
  78.0361462  41.0330915  23.0042505  77.0372772  41.9417381  22.3204303
  23.0660361  64.3237638  60.5547380  23.1400889  63.6036301  59.9285126
  23.8424891  64.2405891  61.1083031  78.0326891  44.7252464  28.7713099
  77.1497631  44.3555641  28.7687111  77.9376936  45.5691767  29.2128873
  83.2822704  73.9518309  59.9329615  84.1306973  73.5167885  60.0175476
  82.8661823  73.8333750  60.7868195  66.6302919  77.0613241   4.8175907
  66.2922907  77.7156067   5.4290658  67.5199556  77.3545170   4.6207151
  58.0298519  66.8311262   8.3804327  57.5080109  66.2416697   8.9249039
  58.0577993  66.4043427   7.5240993  49.2468714  40.8144881   0.9715107
  48.5486102  40.5348994   0.3794792  48.7997603  41.0049082   1.7961672
  14.0361422  30.6135535  43.2972479  13.5725802  29.9548125  42.7801418
  14.4551486  30.1156735  43.9992332  28.6470717  65.0467825  23.3999157
  28.2354277  65.5022478  22.6655221  29.5846194  65.0861740  23.2110095
  62.7282524  57.8572702  19.8098922  61.9301081  57.9989624  20.3189325
  63.0205393  56.9812441  20.0616336  14.9904510   9.8786216  53.9964104
  15.7784244  10.0478607  53.4800005  15.1736852  10.2729087  54.8491716
  75.7663679  77.9887533  44.0554810  76.0570717  78.8055515  44.4611454
  75.3812885  77.4879646  44.7746134  38.2237959  56.6992664  31.0105944
  38.0420446  56.4896631  30.0944805  37.6876450  57.4715376  31.1905217
  69.7804308  41.3995504  48.2976675  70.0205994  40.5167866  48.0161047
  70.4776621  41.9584131  47.9544830   3.1427401  71.8182421  55.9909058
   2.9328173  70.9042645  55.7990503   2.8911322  72.2931337  55.1988173
  74.8615408  59.0008974  28.4438825  75.1353693  59.9022484  28.2741284
  74.0351248  59.0871143  28.9191103  16.3673090   8.3979393  23.3174160
  16.3980412   7.4483468  23.2009533  16.0047125   8.7284399  22.4955109
  58.2700941   9.1283947  40.0688505  57.4550840   9.4551139  39.6877241
  57.9998228   8.6998706  40.8809757  78.2549381  73.4015036  51.3266325
  78.9880991  72.8119040  51.1503315  77.6527500  73.2599449  50.5961752
  16.2739295  55.4870224  31.1483812  15.9684581  55.7285404  32.0227885
  16.4400214  54.5459890  31.2041354  35.3176543  28.6405353  66.6853160
  35.6696746  28.6985330  65.7970869  34.4214484  28.9681176  66.6096342
  10.2525061  56.6209173  52.1448660  10.7122630  55.9995413  52.7094412
   9.9508685  56.0941982  51.4047194  18.3233184  67.7535009  52.6091146
  17.7926654  67.6651812  51.8173790  18.9376563  68.4595013  52.4081755
  44.1972086   1.6664463  65.6054974  43.7075731   0.9042030  65.9145021
  43.6252519   2.4106842  65.7931185  82.7812004  56.6745567   2.9831994
  82.9740238  55.7601166   3.1902000  82.5967693  56.6737604   2.0439363
  26.7687055  59.7215267  19.1936043  26.4697096  59.7235282  18.2843044
  27.4786207  60.3632839  19.2137078  49.4293499  63.9435244  41.1977053
  49.6463871  64.8046160  41.5549755  48.4902287  63.8481331  41.3564205
  50.6463099  72.9840660  26.0843897  51.1101770  72.2314548  25.7174540
  50.9747601  73.0541039  26.9807434   0.7235119  11.2843090  58.8889694
   0.8031532  11.9183212  59.6016550  -0.0970486  11.5152412  58.4535503
  55.7669353  80.4638386  52.5443745  56.6247082  80.2080917  52.2051764
  55.1482821  79.8981762  52.0822906  75.2410841  38.0027509  40.9395313
  75.7360125  37.2028136  40.7624006  74.6124554  37.7506399  41.6159153
   4.7152919  28.2074833  67.4418449   4.3321055  28.4293962  68.2904625
   4.5131511  27.2794390  67.3230934   9.6268576  31.0206413  46.6737938
   9.1723746  30.3267050  47.1514225   9.7264499  30.6751990  45.7866716
  71.4425898  79.6453762  42.9112053  71.5481186  80.5867481  42.7736807
  71.2318993  79.5613098  43.8411379  27.5228426  19.6697097  28.7569118
  26.7010614  20.1384788  28.6114216  27.5215360  19.4688182  29.6927929
  49.1612959  65.7671738  30.9723926  49.8691940  65.9599924  30.3576303
  48.4305191  65.4935741  30.4180145  12.1563646   5.6724888  33.6857533
  11.8336078   5.5868202  34.5828152  11.3955375   5.4792839  33.1379914
  83.5612774  60.6408930  41.0654593  83.0161476  60.4706621  41.8336296
  83.2236671  61.4628410  40.7095766  66.6192770  40.8731174  60.0794744
  67.0098877  41.6934061  60.3807640  67.3605251  40.2745771  59.9871254
  71.9619417  65.1676893  26.7010093  71.6249514  65.1168203  25.8065367
  72.3751688  66.0295534  26.7526221   5.5425567  57.1362209  47.4503613
   5.3922671  56.1956930  47.5454950   6.4632815  57.2073746  47.1985006
  74.7518441  28.4207610  61.4796457  74.6876237  28.4918098  60.5272481
  74.9510667  27.4980287  61.6380998  70.4789495  48.2628155  46.4273405
  70.7122183  48.5458279  47.3114920  70.2900124  49.0752697  45.9578276
  79.5850229  57.1476698  52.0003891  79.5986509  57.3159218  52.9425859
  80.5070210  57.1505690  51.7432070  82.5152683  77.6596451  63.8187456
  81.7948818  77.1518373  64.1921186  82.6864052  77.2461796  62.9725838
  18.7548941  51.8423986  35.9407973  19.5780391  52.3270178  35.8789921
  18.3844107  51.8861866  35.0592899  49.2672443  57.8826571  51.4640093
  48.4804344  57.5963449  51.0001230  48.9938068  58.6687040  51.9368649
  68.8024664  46.0962105  46.5358305  69.2849970  46.8847322  46.7840958
  69.2828846  45.7479525  45.7847357   2.0863551  50.4101276  52.4197626
   2.9777354  50.6846571  52.2045660   1.5789527  50.6049156  51.6318321
  57.9312566   6.2154632  18.7209761  57.1049955   6.4113861  19.1627204
  57.8007748   6.5198856  17.8229046  50.9831762  51.2069511  51.9438696
  51.8337440  50.7680750  51.9315958  51.0473633  51.8335772  52.6646042
   7.8840464  32.9677033  55.8006144   7.6057834  33.8586640  56.0127258
   8.5230178  32.7484989  56.4787674  35.3588030   4.6922451  65.4492998
  35.2082941   4.9685722  66.3533020  34.8573896   3.8817840  65.3599548
  75.6588840  54.6886778  42.0143747  75.0651741  55.3108215  42.4347019
  76.5272188  55.0772715  42.1202898  53.0958104  22.9988362   2.6389387
  53.0077481  22.0571495   2.7862623  52.3755955  23.2171036   2.0474318
   3.4593219  33.3983111  22.7100158   3.7720126  33.5578060  23.6005330
   3.5904998  34.2314219  22.2572994  33.6707803   3.5174328  48.4615231
  34.2824384   4.2289405  48.2721710  32.8189680   3.8532024  48.1823921
  82.6823044  54.3993998  34.1504955  82.5552940  54.8813200  33.3332705
  82.7817822  53.4873056  33.8777065  60.6091356  47.5910282  38.4995699
  59.9520922  48.1618500  38.1012106  61.4188528  48.1006336  38.4697986
  61.5063095  41.9414377  62.9080248  61.2193632  42.5616503  63.5782719
  61.8192577  42.4921274  62.1903658  67.5592852  60.3801298  43.8585043
  68.2275820  60.2129221  43.1939316  66.7332745  60.1585007  43.4286022
  67.0133257  26.1473918  68.6730909  66.9379902  27.0798063  68.4702063
  66.6055250  26.0559416  69.5342350  52.6140261  71.3774586  51.0935783
  53.1116819  71.6587591  50.3258276  53.2545853  70.9233332  51.6410112
  62.7590322  46.8830299  55.1848364  61.8754387  46.5567255  55.3551865
  63.2981539  46.0943794  55.1247311   4.2493171  28.6995387  51.5605068
   3.5293597  28.2974148  51.0745192   4.3921584  29.5399857  51.1252165
  59.8081207  56.5076065  63.4966183  59.3053770  57.1939611  63.9352417
  60.4901218  56.2713385  64.1253376  55.7399678  23.6991908   3.2255629
  54.9781632  23.3173443   2.7895811  56.4910721  23.3425547   2.7513340
  68.6661959   7.0514512  56.0558796  69.1838121   7.8055573  56.3380623
  69.0908766   6.3006592  56.4708328   6.7354795   2.9264599  48.8407993
   5.8911106   2.7198082  49.2415094   7.2745439   2.1528488  49.0056086
  65.9725880  35.3898312   7.9051712  65.8477616  35.4427172   6.9576195
  66.7839646  34.8934580   8.0125263  30.7436678  10.6669670  31.6276073
  30.0860902  10.4795032  30.9577656  30.3749773  11.3948494  32.1280932
  57.6666855  69.0048148   2.5349644  56.8667149  69.0464522   3.0589417
  57.6598954  69.8134257   2.0227888  52.0785189  54.3018341  46.1466122
  52.2468138  54.9039412  45.4217815  51.5095329  54.7932863  46.7390347
  47.4114323  51.8420029  22.9201674  47.1763229  52.6990747  22.5646663
  46.7882729  51.2368011  22.5181270  27.8233069  35.6095099  33.4735990
  28.7457770  35.8524728  33.5527396  27.3456591  36.4153552  33.6702943
  47.8602552  48.7295389  20.7238960  48.5976267  49.1206264  20.2553177
  47.8169680  47.8314781  20.3954959  74.0583324  40.0374603  37.5195742
  74.8712683  40.3152514  37.9417109  74.2624474  39.1791749  37.1482110
  56.9674969  44.8635817  10.8347929  56.2591553  45.0258970  11.4577985
  56.7697620  45.4353428  10.0930202  17.9270145   0.2548938  44.3197441
  18.7131378   0.5734020  44.7633600  17.2569534   0.2371746  45.0030708
   6.8231410  57.2848225  42.4424362   7.3098010  57.6019478  41.6816330
   7.0947474  56.3718462  42.5369692  14.0312690  57.4782610  45.7731342
  14.4476050  58.0957603  45.1718092  14.0050525  57.9404974  46.6109180
  11.4974612  69.8855543  34.3614101  12.1401137  70.4387999  34.8054266
  11.3993758  69.1251707  34.9344921   9.9552935  40.8567476  48.1266928
   9.7538871  40.6786871  49.0453625   9.1511363  40.6340551  47.6576710
  85.7977104  48.3743143  55.9992981  85.5534267  49.2842054  56.1685705
  85.9208965  48.3318377  55.0510073  64.0115309  54.6160650  13.3189774
  64.2535448  54.7765636  12.4068916  63.9025831  53.6666965  13.3743691
  10.7207316  69.7499180  23.3758092  11.0450572  70.3959846  24.0032172
   9.8908347  70.1125622  23.0659771  70.6535149  48.2281399  21.3624215
  71.0707474  48.9383602  20.8748412  71.3427210  47.8949547  21.9370651
  56.4302826  62.4494553  12.5587785  56.8476391  63.3092546  12.6116467
  56.8689251  62.0148659  11.8273711  49.3867826  58.3153629  28.2621336
  49.0120029  59.1565323  28.0009794  50.2397060  58.5385513  28.6348772
  63.4063339  60.6546354  52.9339790  63.5872889  61.5732670  52.7349710
  63.8635969  60.1666355  52.2491455  76.9438553  45.8175182  58.7799549
  77.4830341  45.9820271  58.0063534  76.2230158  46.4430475  58.7069273
  63.8731766  35.1921296  42.1931219  63.1594515  35.5020046  42.7506208
  63.6143208  35.4485416  41.3079739  11.5496847  23.9247184  27.9070973
  11.1566183  23.3309417  28.5467529  11.6212055  24.7603851  28.3683681
  56.1231565  32.5994277  45.1902437  56.5373087  32.4478817  46.0398006
  55.2009249  32.3857260  45.3318453  60.6104040  54.4660950  36.4793897
  59.7419262  54.2136002  36.7927980  60.4487371  54.8745537  35.6289482
  69.0615559  23.1264830  53.8270378  68.5707235  23.1835365  54.6468306
  68.4013271  23.2435298  53.1439352  80.8520412  65.4099131  68.0340290
  80.3646946  65.7510662  67.2841358  80.7161808  64.4631147  67.9973173
  53.8479450  18.2805591  66.7109442  53.7839225  19.1474395  66.3101339
  54.1800168  18.4483867  67.5928688  65.7910156  70.4832363  60.4553413
  66.3189507  71.0510540  61.0166788  66.4292812  70.0330734  59.9019909
  72.1786022  41.2097025  57.7747345  72.5725174  40.3813028  58.0482721
  72.9089022  41.8282604  57.7582026  80.6054020  63.9603424  18.3658457
  80.0231743  63.9499712  19.1255355  81.3600159  63.4366989  18.6352563
  54.1197252  70.9313107  43.8933229  54.9372482  70.6616020  43.4748173
  54.3965197  71.3851833  44.6893263  76.1931610  57.9897451  47.4710608
  75.5721426  58.2287550  46.7829895  76.1084318  57.0396376  47.5506973
   4.3036574  46.1512470  17.8455532   5.0616855  45.6783390  18.1890380
   4.6129149  46.5361547  17.0255327   6.9603366  63.9680576  47.1509218
   6.9662303  64.0528488  46.1975050   7.8560370  64.1776180  47.4155664
  55.4337788  44.9233723  41.8411732  56.3341522  45.1156044  41.5792465
  55.2061319  44.1320324  41.3531256  73.0420017  46.1174631  51.8953609
  72.2160530  46.2234020  51.4233255  73.6571789  45.8012962  51.2336779
  17.8611347   5.4039722  46.5978909  17.2358104   4.8257785  46.1609602
  18.5954734   4.8339229  46.8259716  84.9956512  57.9822636  17.6492953
  84.3450737  58.5796928  17.2804296  85.8339977  58.3111668  17.3249149
  49.1395473  49.8874092  56.8661880  48.7566471  50.7160234  57.1543169
  50.0639391  50.0885916  56.7203760  18.5673544  11.1671215  39.3480134
  18.3959600  10.2663093  39.6226120  19.3365833  11.4294105  39.8536944
   7.3582286  37.7142215   8.8780922   8.2300204  37.4617290   9.1821659
   7.5199241  38.2259607   8.0854934  48.3828878  79.8875475  25.6046724
  49.0828133  79.9794626  24.9582291  47.6571417  80.3984356  25.2461743
   5.1893824  10.9360170  33.0030394   5.7758063  10.3900361  33.5267234
   5.1874751  10.5248034  32.1386719  43.3645630  18.9931595  51.6354704
  43.5959339  19.0472960  52.5627089  44.0644360  18.4704375  51.2441015
  20.5246902  69.7165060  57.6304531  21.4502263  69.7672367  57.3916245
  20.1222563  70.4649162  57.1898127  73.1113100  40.8078671  32.9486585
  73.9707804  40.6475782  32.5589728  72.7316666  39.9360371  33.0582738
   1.3982746   3.5471588  46.1332607   1.0874626   3.4455829  45.2336454
   0.6045744   3.7049633  46.6445017  32.9504797   2.5775962  53.8373137
  33.2942697   1.7934948  54.2653656  32.0827028   2.3197323  53.5263348
  79.3425679  22.4453761  13.5208061  79.4974827  23.0518271  12.7966145
  79.9124360  21.6992165  13.3344296  34.1191887  28.9949442  13.6702660
  35.0611472  29.0458228  13.5079125  33.7310051  28.9002110  12.8004482
  29.4911403  73.1664705  55.9759808  29.2118567  73.6682749  55.2101898
  28.8187236  72.4931145  56.0793495  14.0146801  34.4131332  56.4776802
  14.4368908  34.4532257  57.3357964  13.6793443  35.2981048  56.3341522
  66.6609049  50.9967995  47.7255154  65.8912230  51.3532591  47.2819424
  66.3526869  50.7844067  48.6064959  60.1451063  65.5607510  36.7889929
  60.4524422  66.1804342  37.4506307  59.2082787  65.7403612  36.7094278
  24.4348261   7.9473549  55.3193760  24.3431017   7.1968513  54.7323751
  23.5678884   8.0522018  55.7113695  19.9838752  79.6908665  14.7837996
  19.3974704  80.4182529  14.5757651  20.0801104  79.7254610  15.7355213
  72.1388531  71.8583870  44.7650146  71.5245342  72.5828075  44.8835897
  72.5856447  72.0555496  43.9417696  41.6198325  18.2051588   0.2592114
  41.3722395  17.3439242   0.5956772  41.7529416  18.0667378  -0.6785270
  73.2070446  42.9560995  17.6912618  73.5168076  42.1681166  18.1377602
  72.8916025  42.6427317  16.8436027  74.1116714  47.1593237  64.0513420
  73.6652803  46.3140011  64.1002846  74.0164423  47.4279165  63.1375456
  79.2914534  47.0358467  45.3341818  78.8548613  46.2025833  45.1572847
  79.7634649  47.2353077  44.5256948  62.7524710  80.3781319  44.1785049
  63.0777216  79.8573256  43.4441948  63.0796528  79.9260998  44.9562263
  61.2412285  32.2438647   9.6335533  60.9131455  31.6191889  10.2803734
  61.8012642  31.7218424   9.0590218  23.7046069  62.3034334  53.5921860
  23.9315337  62.5812912  52.7047539  24.5155162  62.4066114  54.0901899
  23.7616557  58.3748007  11.7514944  24.3619174  58.4192801  11.0072255
  23.2688445  57.5658512  11.6137290  57.4922323  35.4115057  58.7912512
  57.0287180  34.7982240  59.3615770  56.8100405  35.9995985  58.4672260
  26.9086286   8.6086708  31.3960266  27.5527879   9.1274982  30.9142613
  27.3622152   8.3479362  32.1975923  70.7034871  38.8010673  48.5812160
  70.2694318  38.0962972  49.0619704  71.6235253  38.5387401  48.5504457
  48.6159205  25.7765366   5.3015927  48.8157773  25.1698996   4.5886591
  49.4301486  26.2605025   5.4396036  33.0045911  17.4452930  44.7092342
  33.1450864  16.6222625  44.2411280  33.0887243  17.2123294  45.6338310
   7.7473137   6.8328910  28.2083702   7.0931217   6.1467128  28.3403683
   8.5858318   6.3717609  28.2301688  60.2016401  53.8953304  54.5204830
  60.6736088  53.5068703  55.2570820  59.3305540  54.0864849  54.8681879
  71.6891694  42.3170973  -0.2539083  71.5476727  43.1444289   0.2062300
  71.4310383  41.6450144   0.3768852  66.6681650  21.9628769  42.4643421
  66.2694409  22.4863678  43.1594753  67.6009038  22.1726471  42.5115824
  19.2806884   8.2279354  32.5439954  19.4470569   9.1005474  32.9005146
  18.3322307   8.1972747  32.4185991  33.9377138  13.2430130   8.8590783
  33.2828542  12.7269321   8.3889210  33.4924146  14.0650039   9.0646660
   9.0678710  68.5341597  58.0273438   9.2587107  69.3895483  58.4122086
   9.6292514  68.4891367  57.2533560  64.2204237  53.5079670  35.7822156
  63.3875513  53.1268644  35.5041599  64.6610165  53.7425661  34.9654675
  77.0785666  71.8054962  40.6612587  76.5411234  71.0176659  40.5793524
  76.8863630  72.3098040  39.8707128  29.0017435   6.9419723  50.5675411
  29.6235391   6.3575130  50.1339436  29.5463201   7.5068145  51.1158466
  25.1384949  19.2069985   1.9845894  25.2232384  19.9580075   2.5719860
  24.2873883  18.8271691   2.2027090   9.5134282  27.8501345   7.4608401
   9.5789814  28.7756278   7.6962164  10.3081584  27.4549700   7.8192833
  14.5344850   6.7686134  45.4375982  14.4533035   6.0967689  46.1145496
  15.4241344   6.6628032  45.1006079  42.7872485  77.8408861  29.6889091
  42.3366946  77.8106117  30.5329013  42.6528376  76.9703531  29.3142891
  75.0479033  21.4408451  31.0613537  75.2300027  20.6888347  30.4978371
  74.8594096  22.1556907  30.4533243  12.4290866  70.9641600  63.9867306
  13.0770129  71.0262489  64.6885633  11.8995684  70.2005720  64.2164660
  48.1248874  61.3103485  19.3612385  48.0829638  60.3646708  19.5032346
  48.2092017  61.4066076  18.4126306  79.1203642  65.5489349  52.3307753
  79.7912407  65.5240107  53.0130768  79.6058559  65.7193947  51.5236330
  82.6473713  57.5389385  51.7315006  82.7185345  57.2099781  50.8354235
  83.3692932  57.1187449  52.1989346  36.1796021   9.1111971   9.8460034
  35.6372857   9.0523411   9.0594509  36.1204886  10.0295092  10.1095226
  63.9057016  65.5049181  13.4841335  63.6220360  66.0689783  12.7646840
  64.7063208  65.0906038  13.1622946  44.2096994  76.4567844  49.7824860
  44.7484729  76.9513921  49.1649771  44.2686841  76.9503147  50.6005192
  11.9135684  47.9203558  60.9084415  12.5426596  48.2299423  60.2568054
  12.2266406  48.2855463  61.7360020  27.8618735  36.7560053  60.6627989
  27.5653380  36.2882447  61.4435005  28.7943763  36.9091916  60.8151150
  75.6892204  46.4620161  53.9293003  76.6029215  46.7434072  53.9762211
  75.1978636  47.2686529  53.7739563  37.9228991  55.2284193   8.1771821
  38.3281535  55.9300947   7.6676220  37.9904956  54.4555235   7.6165646
  12.6803225  68.7155151  25.9677768  12.5605410  67.7687216  25.8938289
  13.3693808  68.9198637  25.3355789  17.4199885  68.2172775  64.7678137
  17.2695559  68.7674046  65.5365562  16.8025130  67.4926615  64.8673105
  42.9226610   4.3202930  53.4786129  43.1566831   4.2328315  54.4026375
  43.3436414   5.1338535  53.2008934  81.8841460  12.6872402  31.9143271
  82.7045968  12.8357559  31.4441848  81.3677600  13.4762912  31.7500734
  16.8168947  20.1606231  58.5374403  15.8665582  20.2062851  58.6423635
  17.0739290  21.0498005  58.2934761  80.0901794  73.2562160  57.2726011
  80.8906651  72.7813101  57.0491505  79.7264767  73.5231400  56.4283848
  75.3598713  20.0964619   7.9283074  75.9968113  19.6117188   7.4033621
  75.8728051  20.7847811   8.3518007  83.6308956  25.3424025  43.3300114
  83.7683105  26.2315726  43.6567068  83.4525108  24.8238754  44.1145754
   4.1485804  56.4494228  26.3278937   4.5753688  56.0262060  27.0728540
   3.5189837  57.0523024  26.7233419  67.1803141  49.9706984  45.2868748
  67.2399759  50.4315233  46.1237192  66.7439079  49.1454649  45.4984570
  10.8508083   1.3366275  40.4521704  11.3373491   1.6497379  39.6896315
  10.5037281   2.1312099  40.8576345  60.1460981  62.3786688  29.3864322
  59.2635918  62.4677086  29.7462630  60.7237291  62.4635553  30.1449656
   9.9578497   9.7798210  25.2874541   9.5278236   9.9672275  26.1218309
  10.1976129  10.6401115  24.9430203  75.6418896  48.6535835  25.8062267
  74.9378872  49.0332127  26.3320541  75.7930708  47.7919340  26.1947203
  84.1664317  38.4489589  50.0582886  85.0790408  38.3425861  50.3267193
  83.6586669  38.1225258  50.8011532  68.4620333  39.3837404  56.7903137
  68.8001299  40.2678347  56.6478539  67.6903820  39.3286872  56.2266111
  85.6090832  77.0736217  37.9491186  85.1892948  77.8767586  37.6409245
  86.4616299  77.3596430  38.2771182  48.1835604  79.9319506  64.6246576
  47.6908588  80.6789970  64.9643517  49.0058136  79.9446106  65.1145267
  41.5230107  23.3576657  11.7398861  42.2098898  23.1372096  11.1107281
  41.3813853  24.2967822  11.6205910  41.2508699  14.1717868  25.1722503
  41.0618135  14.6151786  24.3452692  40.7852003  14.6861129  25.8316851
  59.7507143  71.2982368  50.4298496  59.7220278  71.7245817  49.5733213
  60.2173710  71.9180918  50.9904194  54.9298191  76.8778181  46.3853979
  54.7245502  76.7265081  45.4627943  55.0570583  77.8242970  46.4503574
  80.4411221  68.6007690  36.6385102  79.8636198  68.4275627  37.3819637
  81.3184071  68.6359644  37.0197916  56.5422249  75.2702284  32.7747464
  55.9814262  75.8674860  33.2697392  57.1717405  75.8417940  32.3351407
  80.4054165  19.4190264  41.7345524  81.2452412  19.6309662  41.3271141
  80.2735996  20.1092100  42.3845530  64.9397710  20.7610088  38.0294967
  64.3763616  19.9973255  38.1543517  64.9877122  21.1673217  38.8948536
  40.4960465  19.2947699  12.3888233  40.8135819  19.4949986  11.5082958
  40.1750826  20.1320149  12.7238301  22.6214859   8.4939438  35.3607059
  22.4969360   9.0280681  34.5762134  22.0123789   7.7635437  35.2523589
  69.1082764  66.6953468  19.3383074  68.7143993  66.0539961  18.7468994
  69.0259790  66.3021755  20.2071428  84.4150734  53.5481930  58.2690811
  85.0306416  54.2745829  58.1707239  84.1593838  53.5741043  59.1911364
  26.7789382  72.4285984  24.1861081  26.2354392  71.7585373  24.6006656
  27.1547431  71.9927168  23.4212494  44.7112059  24.3115736  12.8283051
  44.2392897  24.9854542  12.3390034  45.0934577  23.7496306  12.1542671
  40.0900861   0.8190685  41.7833090  40.0808832   0.4972225  42.6847267
  39.1692850   0.8257156  41.5219450  71.2256289  61.7032337  37.7859282
  70.5531597  61.6092300  37.1112561  71.8607330  62.3115206  37.4079609
  22.0378849   9.3772655  45.0639868  21.8493292  10.2595955  45.3836441
  22.8407785   9.1239982  45.5194569  49.1265985   1.5200096  39.1087699
  48.9748022   1.3170963  38.1857228  50.0079843   1.8927341  39.1302657
   7.4747866  70.8437538  20.6049085   7.3753756  71.5223837  21.2725973
   8.2158679  71.1363983  20.0744462  25.9446928   2.0277076  37.1657729
  25.1560232   2.5688129  37.2036123  26.6169187   2.6086956  36.8096900
  80.6531241  24.5775657  58.9390802  81.2164071  23.9374118  59.3739843
  81.1258176  25.4060512  59.0191841  72.4576187  42.1562815  47.7266169
  72.3811102  42.8913403  47.1182823  73.3903360  41.9411898  47.7262831
  20.8129329  62.1828079  54.1133642  21.7447680  62.1550035  54.3304729
  20.6457633  61.3519096  53.6685038   1.3807720   1.4463736   0.2153710
   1.3417381   0.9805418  -0.6199190   1.9479698   0.9055497   0.7649449
  67.2903538  74.3523121  59.3414640  66.5651226  73.7306118  59.4027948
  66.9361401  75.1689911  59.6933126  26.3158437   4.9001651  45.8474588
  25.5130407   4.4037777  46.0066605  26.6875192   4.5075756  45.0575495
  40.8359503  13.6888768   3.2517460  40.6388926  13.1573988   4.0230635
  41.6968321  13.3844210   2.9646662   1.4977759  75.3280401  17.9547691
   1.0311145  75.3180408  18.7904513   1.8960112  74.4598484  17.8924215
  84.2959499  74.4278574  48.0693293  84.6653271  73.5452461  48.0973864
  84.9235439  74.9338579  47.5532627  80.3478146  61.7013741  60.8917665
  81.2948036  61.8373537  60.8608437  80.0638771  62.1710968  61.6759682
  52.6143026  60.3147316  52.7384996  52.3307800  59.7938919  51.9871235
  53.5243177  60.5393982  52.5445032  68.4955645  40.0044107  42.3129416
  69.0722609  40.1141882  41.5568972  68.6701727  39.1148448  42.6202059
  32.4105832  28.8267259  65.5118856  32.8360173  28.0361394  65.1799071
  31.7687270  28.5054044  66.1451355  15.1093978  49.2422771  68.1422758
  15.7000083  49.9557400  67.9006481  15.3665179  48.5158062  67.5745058
  72.2009087  71.6716480  27.6214147  72.1366501  70.9270048  27.0234084
  72.7350378  72.3114634  27.1506977  29.9114629  32.3922878  46.3323116
  30.4701158  31.7430263  46.7596340  30.4564497  33.1771618  46.2758493
  66.3582468  75.6817055  39.6729469  66.3816023  74.7328520  39.7968912
  67.2331524  75.9776926  39.9242806   8.6240596  57.4422741  28.4545445
   9.3709678  57.6405048  29.0194035   8.0095881  56.9789934  29.0237737
   7.3977679  49.3032074  35.0797820   7.4237841  48.5513735  35.6716466
   6.9825667  49.9970531  35.5920529  11.5184611  58.9096069  36.2251163
  11.7966288  59.3857002  37.0075417  12.2175616  58.2744408  36.0700440
  48.0913353  58.0777979  56.8584967  47.9172993  57.3258829  57.4246836
  48.7440348  57.7613401  56.2339401  80.3471565  54.2915344  52.0241547
  79.7908974  55.0673342  52.0944548  79.9368572  53.7639284  51.3389349
  45.6003305   9.3242698  53.9587259  45.7991525   9.0041977  54.8386431
  45.0858041  10.1183754  54.1032934  69.2236233  28.8501263  31.6191864
  68.6768150  28.3949661  30.9788251  68.6015654  29.2185354  32.2465205
  82.5488713  16.4467292  45.6352758  81.9837239  16.2287574  46.3764429
  83.3833649  16.0238796  45.8379126  55.9408688  15.3545786   0.8852270
  56.1370301  16.2904049   0.9297398  55.2644372  15.2198197   1.5489319
  42.3509240  53.2607104  27.6204327  43.2241034  53.0337836  27.3006085
  41.7528653  52.8101756  27.0241192  68.8998508  75.8273840  63.5262299
  69.4691801  76.4716768  63.9469242  68.0139017  76.0945129  63.7711287
   6.3529083  13.1178623  62.8577566   5.5111953  13.2538849  63.2927799
   6.9542858  13.7101799  63.3091402  62.7872515  64.2200613  66.7234564
  62.1552944  64.1638851  67.4401903  62.2825527  64.5617390  65.9853697
  65.1545739  32.1073796  10.9385803  65.0052380  32.1759821   9.9955967
  65.6091904  31.2722899  11.0489491  79.1055130  11.9127108  23.1712464
  78.9855790  10.9847285  23.3729866  78.2161068  12.2599961  23.1035546
  83.3083820  43.0245924  39.4658542  82.4358082  42.6339436  39.5132470
  83.2610130  43.6272383  38.7236929  22.3721045  61.8267918  50.1490498
  21.5104503  61.5639544  49.8254728  22.3313254  62.7822447  50.1900482
  65.6978989  62.9121828  54.9005604  65.5271482  63.6339188  54.2954445
  65.9702587  63.3397198  55.7125139  26.5108797  23.6567073  40.6113577
  26.1798212  23.8635307  41.4853430  27.2940466  24.1989761  40.5173731
  68.0764961  57.6157999  66.9260788  68.3574200  58.3180237  66.3394022
  67.3916197  57.1569204  66.4396524  78.6693287  80.5871487  40.3041697
  78.7279415  81.5363789  40.1956940  77.7347708  80.4167461  40.4216003
  71.8697214  50.3104305  52.6565504  71.1468697  49.7437334  52.3871517
  71.7392254  50.4345322  53.5966539  15.4453009  63.6373758  67.0469713
  14.7226256  64.1051960  67.4654388  15.0673789  62.7978754  66.7849636
   5.3417987  74.0963268   5.1185268   5.7914275  74.4472599   4.3498176
   4.6426886  74.7258139   5.2952230  38.4665414  12.8890186  50.7039213
  38.9724371  12.9552227  49.8940325  39.1266653  12.8407817  51.3953972
  80.8607674  53.7006903   8.0463302  81.3989162  54.4804192   8.1828743
  81.1192703  53.3795261   7.1824652  85.3890705  67.6273108  54.0362167
  86.0038567  67.0114088  53.6375570  85.8469391  68.4677219  54.0190220
  65.8332443  70.8833790  43.0831337  66.1123323  71.2779903  43.9093447
  66.0273933  71.5482807  42.4224997  65.1191330  44.6159601  58.2417107
  64.4815350  45.3142548  58.3903170  65.8775902  44.8680830  58.7684011
   2.1215269  32.5545173  45.9673691   1.5471288  31.7969280  45.8561802
   1.6620418  33.2700210  45.5278730   7.9565117   7.8299862  52.5829601
   8.4718963   7.1873813  52.0954370   8.2800457   7.7645832  53.4814453
  13.4658641  52.7916765  23.4681749  12.7052993  53.1012392  22.9762959
  13.6671752  51.9376850  23.0855441   1.8594906   3.9808040  41.9387436
   2.5683519   4.1068607  41.3079882   1.7669603   4.8312431  42.3681927
  82.7000621  26.8860679  24.1065645  82.8180030  27.7884441  24.4032812
  82.8216794  26.3569027  24.8948669   3.1489009  80.5372429  49.4256735
   2.3708838  79.9889183  49.5270061   3.3504886  80.8333588  50.3133154
  51.0099241   5.8912807  31.4509630  51.8345186   5.6172710  31.0494709
  51.0715887   6.8453556  31.4975047  33.8974950   4.1684179  70.0272474
  34.5852801   4.4211463  69.4113618  34.1047570   4.6495370  70.8283733
  25.1094934   4.2024284   5.8838165  25.7371065   3.8775592   5.2382261
  24.7417089   3.4120517   6.2791264  79.4464445  54.6067667  68.4625769
  79.5890379  55.5404711  68.6177921  80.1748276  54.1756725  68.9096308
  65.4308495  58.7618369  30.5661106  65.8656141  59.4852561  30.1145840
  64.6913561  59.1702670  31.0161853  83.2680109  47.5736303   8.3410138
  82.7806714  48.3829278   8.4951836  82.7080110  46.8848986   8.6991769
  29.2508695  32.3262352  17.5616717  28.6799237  31.5898365  17.7806818
  29.7764442  32.4644226  18.3496487  17.7724311  79.8138966  30.8160615
  18.3571050  79.1727359  31.2201691  17.3496673  80.2516268  31.5549111
  84.9143208   6.9315684  46.0554123  85.0597863   6.9564295  45.1096582
  85.7882820   7.0241952  46.4346790  61.1946297   7.6454359  22.2805929
  60.4588556   7.3304272  21.7555809  61.8807602   7.8364527  21.6410851
  13.9929340  60.9629864  48.0437708  13.6185310  61.7496485  48.4402800
  14.2079684  61.2250859  47.1486187  70.6229380  68.7606961   9.0060067
  71.4367441  69.0240580   8.5763639  70.0394276  69.5112259   8.8944209
  60.8649969  10.9301591  36.1611032  60.8675623  11.1793876  35.2369237
  61.6395617  11.3575959  36.5265918  44.8006916  19.0729833  15.0245297
  44.0366602  18.6863530  14.5967412  44.9300909  19.9079406  14.5747137
  23.4876201  79.3347803  48.7279987  23.7259099  80.2197519  49.0041780
  22.5434110  79.3771825  48.5766840  24.0411874  29.4430526   4.0114096
  23.7069246  29.1500314   4.8591402  23.6980077  28.8055285   3.3852890
  32.8227806  23.8408971  22.0870280  33.0698943  23.4243178  21.2614179
  33.5398102  23.6308146  22.6853299   6.1030155  24.8913860  31.3336563
   5.4758924  25.1695681  30.6661510   6.7516917  24.3769121  30.8532739
  41.6681350  38.0540224  69.3192468  40.9477473  38.5736545  68.9625164
  41.9200337  37.4706178  68.6034131  47.8063869   8.5211700  37.5968432
  46.9891262   9.0157342  37.5358319  47.8496218   8.2418662  38.5113645
  71.0370398   1.1197087   5.1209313  71.4122581   1.2884255   5.9852099
  70.1374388   1.4406858   5.1835638  36.2493631  61.3653036  -0.1401159
  36.9825253  60.9052463   0.2686051  35.5260148  60.7392188  -0.1082203
  74.0425971  49.7473091  10.5344534  74.3566504  50.2246208   9.7664833
  74.6211496  50.0274605  11.2436950   8.1466028  53.4896821  21.3519979
   8.2063338  53.8418407  20.4639387   7.3412296  53.8671870  21.7056870
  64.1884279  21.3719010  32.7898932  64.4137478  21.3312912  33.7193060
  63.2734108  21.6526484  32.7773190  23.0360839  70.3123218  34.5494223
  23.8473651  70.1107747  35.0157189  22.4721429  69.5561869  34.7121024
  63.8058662  20.2728748  14.6337724  62.9673910  19.8397708  14.7938085
  63.6139107  21.2064648  14.7220623  26.3763785  26.5290380  29.3683934
  25.9910369  27.3567748  29.0810013  27.1824336  26.4501739  28.8582087
   7.5643704  50.2250523  16.3980365   8.0514691  50.5462689  15.6392312
   6.7499683  50.7279653  16.3902783   1.9893927  19.4947623  52.1875080
   1.0771746  19.3320654  51.9474718   2.2607416  20.2174614  51.6215524
  60.0553989  10.5158532  32.7176571  60.0635481  11.3059044  33.2580137
  59.3668079   9.9715775  33.0995488  21.2638497   5.9062970  47.3793697
  20.6494522   5.9064180  48.1133604  22.0573568   5.5029064  47.7313042
  33.4534454   0.4717326  55.9734678  32.9350471   0.6548027  56.7570353
  33.0580306  -0.3176732  55.6037140  37.2815979  67.0896886  68.1479236
  36.5196246  66.9394897  68.7074497  37.9435969  66.4813374  68.4764004
  32.7516842   5.7324666  33.4898281  31.8609953   5.9685898  33.2307005
  33.2923508   6.4578074  33.1771064  48.0403852  24.0458131  25.7208514
  47.1773243  24.0179586  26.1338615  48.4794664  23.2533717  26.0298538
   0.4794953  53.9744348  35.4015422  -0.0840547  53.5818524  34.7348166
   0.8708093  54.7328586  34.9680686  35.1533553  53.7926335  24.9193811
  34.2779967  54.0599603  25.1995969  35.1442954  52.8376574  24.9839783
  74.8519078  75.4092312  22.7973604  74.6869090  75.2616031  21.8661189
  75.7832602  75.2184409  22.9087758   2.9859302  48.4982437  28.6904263
   3.2009909  49.4274063  28.7719059   3.8084409  48.0840201  28.4294128
  23.1501914  76.8428277  62.3395041  23.3962816  77.3171972  63.1336352
  22.6326818  77.4711298  61.8358657  48.1579420  72.9820192  25.4649282
  47.8304729  73.7499208  25.9332466  49.0905503  72.9510606  25.6782722
   5.3254316  78.8081743  67.9967594   6.1911366  78.4742547  67.7616310
   5.0638911  78.2837561  68.7536049  84.3191612   7.1980643  26.9110894
  84.9728198   6.7219609  26.3989472  84.2036834   8.0248404  26.4427543
  34.5724273  24.1404414  28.3345461  34.1981506  24.7924352  28.9270425
  35.2033329  24.6303105  27.8070831  39.7949195   4.1858679  41.8753099
  39.6266222   3.9692175  40.9582663  40.6600714   4.5953995  41.8697834
  16.5836949  33.6233704  66.9590431  16.3267035  33.1397413  67.7440843
  16.9172806  34.4573055  67.2899601  25.2312565  19.5800924  48.2202911
  25.3721547  18.7495840  48.6748600  24.3665957  19.8690915  48.5119581
  80.1793745  72.2868652  32.1643615  80.3683713  71.6039885  32.8079391
  80.7030609  73.0358273  32.4490428  22.3300025  66.8477196  30.7978392
  22.5876233  66.4944393  31.6493416  21.7133138  67.5494737  31.0063243
  67.0267010  17.0626354  38.2708025  66.4553785  17.4485660  38.9347863
  67.4941063  17.8082955  37.8942990  24.7372625  79.4204911   4.0241745
  23.8535354  79.7479445   3.8567472  24.6060226  78.6454082   4.5703015
  66.8534944  46.7946953  64.0952969  66.2440548  46.8427605  63.3587456
  66.9896320  47.7063293  64.3534040  75.9048223  25.5522275  54.6868610
  75.9240627  25.8804607  53.7879038  75.9024858  24.5995474  54.5939922
  21.9688842  79.0110058   1.9931594  22.8444764  79.3427039   1.7943040
  21.3759372  79.6273591   1.5633254  74.1174078  23.5266137  33.9933157
  74.2691374  23.6636233  33.0581999  73.2060719  23.2391238  34.0484905
  43.1864691   5.6602097  11.9476008  43.8374567   5.8207804  11.2644732
  42.7953911   4.8187101  11.7127287  27.5021503  70.5079038  28.8646388
  27.7322719  69.9469632  29.6053314  27.4429080  71.3868094  29.2391348
  74.5842171  15.8022141   8.7813902  74.5847559  15.1562834   9.4877923
  74.4638681  15.2856421   7.9845834  77.2908640   7.7275407  44.3716097
  78.0721235   7.1747929  44.3532562  77.4553490   8.3968425  43.7073708
  46.0222197  11.9680607  29.9925804  45.4660130  11.3753963  30.4981661
  45.4400063  12.3326266  29.3259811  36.1580896  23.1540012  44.1318989
  36.4270139  22.2916031  44.4484138  35.2267909  23.2081366  44.3463469
  45.3157949   3.5665214   5.7261825  44.8442364   3.6385342   6.5560502
  45.8213806   4.3771362   5.6668675   7.5385898  35.0063467  36.4045429
   6.8815684  34.3452859  36.6226125   8.1922603  34.9328661  37.0999193
  14.9034262   1.4541063  42.2113132  14.5311034   2.2576123  42.5746107
  15.6691658   1.2766275  42.7575541   8.7172276  32.6909685  42.7132940
   9.3039054  31.9383931  42.6379776   9.1562194  33.3867860  42.2240543
  23.2636211  65.7886762   6.9412738  23.7851140  66.5902538   6.8994546
  23.0815932  65.5733640   6.0265392  76.6468287   2.3073687  53.3323336
  75.8623695   1.7991379  53.5386324  77.3741436   1.7343521  53.5750151
  65.3135252  23.2372141  10.1864064  64.7021341  22.5469851  10.4433465
  65.0333738  24.0037251  10.6866133  51.8532944  28.1849098  22.3183060
  51.9935942  27.5710225  21.5974092  51.7264414  29.0317440  21.8905067
  31.0760689   4.0285370  42.3361683  30.4555058   4.6425354  42.7287769
  31.6484976   3.7714934  43.0590010  64.8847246  12.1643543  27.7152610
  64.2409897  12.3561156  28.3972144  64.4507313  11.5263867  27.1487999
  75.8301905  78.2212875   2.4689241  74.9376372  78.2939885   2.8070018
  76.3505414  78.7824259   3.0438939  82.2317338  73.9960812  67.8115211
  82.6866270  74.3630456  68.5695696  81.3554121  73.7881206  68.1356287
  75.1503316  76.1639190   5.8535492  75.1613084  77.0429016   5.4747343
  74.7746161  75.6121374   5.1675415  12.8446338  74.3124074  36.1597776
  13.5553167  74.1145361  36.7697024  12.0470330  74.2010695  36.6771436
  75.1814508  11.4745092  45.6645250  74.6001148  10.7209623  45.5623055
  75.9879875  11.1074412  46.0264540  60.2530074  64.2627770  19.8402214
  60.8233667  63.5906977  19.4670832  60.2364508  64.9561233  19.1805041
  19.7666001  13.8617051  48.9394140  19.8407316  12.9159677  48.8116741
  19.5202720  14.2010343  48.0789423   8.0457709  76.6951314  15.3505969
   7.7858302  75.7833911  15.4824793   8.5341713  76.9218159  16.1419952
  36.9998932   1.7657241  31.1516929  36.5869308   1.7567338  32.0151806
  36.8198323   0.8975454  30.7910347  67.8528539  77.3321587  35.5904984
  67.1029291  77.2101755  36.1727047  67.6224616  78.0946705  35.0597191
  34.7488162  70.3915889   9.1270274  34.0672586  71.0359634   9.3180633
  35.2763269  70.7976610   8.4392285   8.4667736  21.3347626  25.4618716
   9.2378479  21.4050651  24.8990798   7.7254832  21.4583087  24.8690319
  76.4980123  53.3110494  51.4982796  76.3024709  52.4173588  51.2166548
  75.7102678  53.5935373  51.9629049   0.4270285   8.2560682  57.4039507
   0.4990691   7.9101968  58.2935667   1.3098639   8.1746620  57.0431042
  36.1231995  19.7933948  21.0784292  35.6508946  19.6864343  21.9040918
  35.6770110  19.2050731  20.4693127  19.1248462  72.3543853  10.2028334
  18.3038900  72.4905259   9.7298414  19.4711015  73.2361067  10.3403425
  10.6949186  12.2918284  24.3618155  11.1523306  12.8708017  23.7520671
  10.8649683  12.6700640  25.2245164  42.2512388   2.9398927  62.6044703
  41.8952417   3.1397718  63.4702349  41.8500757   2.1036696  62.3677635
  81.4257243  42.4845595  12.6375401  80.4842642  42.4575919  12.8082943
  81.5145567  42.1756858  11.7359102  67.7758217  23.5470033  56.4373255
  68.1771183  24.4138408  56.4988232  67.1460056  23.5229826  57.1577311
  67.3673511  64.5087503  69.6013298  67.8278065  64.5604204  68.7637490
  66.4396668  64.5184659  69.3656570  45.7572317  11.5641975   6.0685313
  44.9342012  11.9595242   6.3558811  45.6640148  11.4799345   5.1196152
  47.8438279  71.3082350  34.8996878  47.2438571  71.4130259  34.1612530
  48.6756036  71.0562575  34.4985867  58.6675215  10.9277630  47.0318460
  58.4307814  11.7317092  47.4942923  58.1217051  10.9341645  46.2455416
  25.2639100  64.6921737  31.3778329  25.3268001  64.5100469  32.3154402
  24.3600747  64.4730205  31.1513686  62.8312192  66.7452807  63.5811996
  62.3045144  67.1088452  62.8694153  63.1653860  65.9183747  63.2336473
  38.0716560  72.1640963  17.7746677  38.6401364  71.4988632  17.3866892
  37.9029748  71.8470914  18.6619592  21.0707569   5.2921003  17.3856020
  20.9399724   6.2324971  17.5071788  21.5934801   5.2243024  16.5866053
  43.9354753  17.9571688  11.8228114  44.3283606  17.1679151  12.1955740
  44.1677666  17.9249752  10.8947837  56.8073034  38.6162734  17.3269808
  57.7240324  38.4050989  17.5037467  56.4536953  37.8256750  16.9193733
  34.0781832   8.2107520  33.7422609  34.8196888   7.9508346  34.2889261
  33.3702278   8.3803028  34.3637776  54.7489693  48.2760664  11.5562180
  54.8547604  47.9005678  10.6821278  55.5963996  48.1393810  11.9797829
  22.8500128  28.4089422   6.2751764  23.4679174  27.9632163   6.8546194
  22.2974038  27.7079344   5.9295708  18.8886115  69.3084413  21.7867470
  17.9532239  69.4551463  21.6461849  19.3192718  69.9462993  21.2176251
  39.3743730  25.2900219  33.7775183  38.8820148  24.4720769  33.7083626
  39.3619084  25.6527019  32.8917766  28.1267500   5.1336259  18.6637306
  28.2817054   4.7272032  17.8110635  27.1809435   5.2781606  18.6918342
  40.0331926   6.1206871  59.7433996  40.8577442   5.8988577  60.1759911
  39.5435357   5.2984142  59.7250986  79.4789720  26.6172217  68.6199835
  79.2468811  26.7235349  69.5425139  78.9851976  27.3016666  68.1683701
  76.2738609  29.0981197  24.7037506  75.8057880  29.9195695  24.5542145
  77.1991491  29.3344522  24.6388245  45.7269192   7.3787493  31.3250637
  45.2638960   8.2031262  31.1759305  45.3295183   6.7655814  30.7067370
   9.2239016  22.9457283  23.1458950   8.3867663  22.6529813  22.7857184
   9.6106547  23.4781361  22.4507713  12.2112319  61.2911863  33.6801100
  11.9870660  60.3976578  33.4201360  12.6978395  61.1877543  34.4978786
   9.7239659  53.8016552  35.4731679   9.3217394  54.5425577  35.0198340
  10.2616355  54.2021388  36.1563635  63.4320498   0.5260074  40.9219933
  63.6073399  -0.2243876  40.3541803  64.2958784   0.8004031  41.2297964
  76.1040140  30.1324283  68.3216531  75.3979040  30.1062094  67.6759323
  75.6956125  30.4930912  69.1086492  54.9223423  48.5282473  64.4663492
  55.3365589  48.0831014  63.7270924  55.4487753  48.2742743  65.2243718
  60.4887295  33.4061027  48.8708782  59.9601984  33.4462714  49.6679163
  61.0960245  34.1418600  48.9488649  13.5105655  80.6188325   5.8274043
  12.7387426  81.0307794   5.4390490  13.1765363  79.8186396   6.2327999
  41.7187452  31.9317269  13.7163663  42.2738409  32.1082520  14.4759309
  41.7174768  32.7529478  13.2246065  14.5791048  21.6445218  64.0190455
  15.4193205  22.1020912  63.9890513  14.3693394  21.5897821  64.9513724
  39.9810863  18.2214379  35.3610229  39.4402790  17.4365699  35.2730417
  39.4823742  18.7915754  35.9462237  40.4455328  11.5619969  24.4008136
  40.2936459  12.5019336  24.4991994  40.9533739  11.4846933  23.5931277
  37.3178264  55.1454087  23.5966519  37.4583533  54.8188551  22.7079132
  36.4748850  54.7744938  23.8576153  16.5436647  55.5805177  23.4986234
  17.0151612  56.2577028  23.9837456  16.2772271  54.9488968  24.1666746
  73.7184909  54.6588702  32.5338578  72.9534760  55.2113718  32.6942420
  74.2927423  55.1971692  31.9891548  49.8655030  75.3217364  20.2753043
  49.6388147  74.3950266  20.1974988  49.7780654  75.5120993  21.2092996
  38.0429339   1.6847803  37.2559714  37.1397066   1.9143246  37.4744272
  38.1050944   1.8292023  36.3117719  38.0414557  25.5554795  28.2470441
  37.6509643  24.9010944  28.8262963  37.3157072  25.8534908  27.6986742
  50.5815935  18.5265458  17.1598601  51.1699772  18.9982498  16.5703416
  49.8268414  18.3018863  16.6156983  41.2792683  20.5910301  28.2554913
  41.2882948  19.8618948  27.6354003  40.3779221  20.9125066  28.2340813
  77.4443034  77.9305652  30.2852082  76.9323030  78.0790860  29.4902062
  77.9678920  78.7256408  30.3849173  10.7555649  70.5293829  31.5930915
  10.9547684  70.2300615  32.4801970  11.4170978  71.1968935  31.4113307
   8.7261481  30.2305113  50.1708111   8.1346173  29.7352348  50.7374021
   8.5405249  31.1473356  50.3738138  18.8640833  20.9634066  62.4267101
  19.7624660  20.8103061  62.7194548  18.9003944  21.8051052  61.9723320
  44.3588400  13.6762965  45.4307842  45.0238800  14.3619895  45.3693199
  44.3728304  13.2514977  44.5731258   7.1451876  53.0954666  54.3201113
   8.0327007  52.7369995  54.3273830   7.2654698  54.0293331  54.1479015
  83.6791781  70.6625683  26.0407186  84.0206650  70.8982283  26.9033194
  82.8920534  71.1979020  25.9402966  44.4497442  27.0079780  24.5569420
  43.5696459  27.3420930  24.3836784  44.3933630  26.6279244  25.4336476
  18.0919611   9.8865062  21.7083955  18.6374927   9.1223800  21.5220118
  17.9271448  10.2780890  20.8506489  20.0692463   0.5565953  50.1353598
  20.8229780   0.0641027  50.4602766  19.5248902  -0.0988257  49.6990919
  85.1747537  48.3327662  64.3164590  85.8592010  47.7496372  64.6446809
  85.4522729  48.5508470  63.4267077  44.9557686  27.2222066  18.4906566
  44.3904209  27.2028351  19.2628217  44.9444532  28.1367779  18.2084084
  60.7953072   0.5614336  12.9429471  60.5239773   1.3992064  13.3181119
  60.3346920  -0.0952871  13.4652305  22.3247478  51.6805810  26.5520382
  21.5650222  52.2256297  26.7569041  22.5275275  51.8856639  25.6393218
  31.3464832  10.6499982  15.5746603  31.1677527  10.0983405  16.3362110
  30.5943274  10.5138910  14.9984944  71.3197374  24.3568921  44.9667263
  71.0990953  25.1619840  45.4351044  71.2049150  23.6629581  45.6159592
   8.1496331  39.7578425  14.0557230   8.7267110  39.9889225  14.7836065
   8.2022450  40.5063481  13.4614146  51.7020321  25.2068043   3.8646907
  52.3226547  24.4989657   3.6914104  50.9845018  25.0519633   3.2503602
  44.3797159  48.4483194  12.2852576  44.0960407  48.7197304  11.4122748
  43.5961485  48.5322714  12.8285921  60.9149504  22.7758288  12.3417103
  61.3307667  22.3860240  11.5726960  60.3491831  22.0840335  12.6845765
  56.1978149   4.2463899  -0.0513670  56.8103743   4.3430537   0.6777820
  55.8192301   5.1183802  -0.1633394  62.8753281  10.7678926  29.2528152
  62.0502234  11.2487483  29.1879034  62.6667595   9.8900813  28.9331627
  59.2730379  12.4281764  39.1934013  59.9720430  11.8742204  39.5409012
  58.9755821  12.9389775  39.9462843  62.3907373  74.2601234  29.1251826
  61.9831178  73.5863323  28.5810542  63.3219812  74.0387244  29.1230488
  76.3705850  33.7731348  68.7082592  75.5835128  34.2583887  68.9557891
  76.1097360  33.2716052  67.9358235  27.9048440  68.3196873  36.3840818
  28.0073497  68.4189302  37.3305893  28.8000724  68.2528109  36.0519266
   3.4840509  28.8349223  33.5757470   2.7080935  29.3953609  33.5811973
   3.5516432  28.5282254  32.6715350  50.1166627  66.8977970  41.3062859
  51.0562322  66.7485172  41.4118862  50.0513169  67.4953181  40.5613470
  26.9896757  46.3553109   0.6516531  26.4965796  47.1736689   0.7097700
  27.3511901  46.3559367  -0.2346536  25.7161784  32.0350313  27.9021883
  24.7726607  31.9318843  28.0261493  25.8843350  31.6736341  27.0319319
   0.7807654  34.8070550  45.0442028   0.9974879  35.6182122  45.5038643
  -0.0237924  34.5018220  45.4634190  79.6925262  35.3230852  27.2307301
  80.1834896  35.1112742  26.4368010  80.2107480  34.9445814  27.9409480
  51.8675470  22.8599715  20.9000087  52.4154806  22.5759387  20.1683474
  51.2641811  22.1310568  21.0444641  82.0349673  46.2523479  55.4818869
  82.3366335  47.0038909  55.9921932  81.0974601  46.4044518  55.3628254
  35.5730891  26.8943381  45.1439857  35.5440784  27.7499676  45.5721092
  36.4327741  26.8656683  44.7240448  16.4339492  77.1399138  48.3617210
  17.1193931  77.8025076  48.4475470  16.9059560  76.3072801  48.3489418
  71.7686558  26.2187815   7.2260898  72.1445179  26.5380859   8.0464584
  72.0989466  26.8221641   6.5604538  82.5836086  29.1963816  20.7976890
  83.3018970  28.6484838  20.4813027  81.7994118  28.8143134  20.4036045
  10.3152415  78.6817520  43.5805607  11.2665889  78.7352281  43.6717129
   9.9749777  79.1697640  44.3304253   2.0826382  54.3927513  66.9526914
   1.2099404  54.3294214  67.3407909   1.9427580  54.8462664  66.1214334
  26.4721847  17.7520323  58.4568691  25.7228422  17.2697532  58.1074047
  27.0983386  17.0728397  58.7075901  79.6875215  20.4321502  37.3098776
  79.2498231  20.7542358  38.0978557  79.4869066  21.0860179  36.6402218
  62.7200938  40.8977268  67.7503426  62.8692770  40.2053503  67.1064556
  61.8150115  41.1717220  67.6020700  43.7385559   5.8339304  29.9730110
  43.8236809   5.5825114  29.0533495  42.9411745   5.3945649  30.2686071
  13.3680246  67.8211552  50.3445625  12.7044007  67.2390074  49.9745035
  13.1513021  67.8701789  51.2756157  37.5160882  69.9216897  60.5477762
  37.0324084  69.8680693  61.3720417  37.5389287  69.0210397  60.2244520
  40.0975225  46.0157985  20.2595496  40.2735755  45.9002466  21.1932993
  40.3601453  46.9178051  20.0761294  31.8474865  22.4840975  41.2933731
  32.6934838  22.5069857  40.8461618  32.0541286  22.1948767  42.1821260
  27.3353002  80.0584489   6.3694882  26.7974040  79.3232003   6.6632789
  27.4672219  80.5879805   7.1558881  81.0779476   5.3127098  17.6708138
  81.6860104   4.6080929  17.8944254  80.6749916   5.5549473  18.5045910
  27.1152064  63.6050767  29.6515775  26.8927333  63.9742357  28.7969089
  26.3687560  63.8248093  30.2090335  61.9079685   3.8435107  16.0876679
  61.6829491   3.5899889  16.9828355  62.6552725   3.2893828  15.8624744
  49.4544744  16.3380313   7.4384618  48.6621428  15.9958351   7.0245272
  49.4267893  15.9927273   8.3307791  28.7294579  50.1831532   4.8759302
  28.0842543  50.8350134   5.1498330  29.5710135  50.6331158   4.9504051
  79.6011519  11.0435998  65.6082916  79.1913593  11.5633893  64.9168301
  79.0315294  11.1641419  66.3680506  62.6887369  11.6833079  38.2123947
  62.1594954  11.0484958  38.6952472  63.5782194  11.5529287  38.5411143
  38.6064529   8.6358666  67.9387093  37.6996279   8.4840786  67.6725149
  38.5546756   8.8062370  68.8791990  48.1194592  19.2154455  19.8088300
  48.6422491  18.4417892  20.0195026  48.7574530  19.8588705  19.5002759
   1.9142506  61.8811650  27.3325491   1.4381454  61.7421753  26.5138698
   2.2576759  61.0170180  27.5595760  83.3301473  35.7701288  57.8507122
  83.2358146  36.7181035  57.9438659  82.7961565  35.5501612  57.0873627
  33.8818502   8.3826911   8.1867498  33.0204558   8.5260338   7.7947247
  34.2952919   7.7281862   7.6237929  40.7751608   2.6935807   9.1298926
  40.4546213   1.8928370   8.7148082  41.4859962   2.9899889   8.5614836
  85.3608346  54.3910442  68.2973644  84.5562339  53.8871883  68.4197503
  85.4736639  54.8658918  69.1207850  81.1157990  10.6110084  21.3936806
  80.7384682  11.1499894  22.0889163  80.3649807  10.1638901  21.0030532
   1.6638467  58.4558577  17.2223318   2.1784541  57.9220313  16.6169882
   1.7665288  58.0231399  18.0699432  46.2631798  32.9456043   8.8553810
  46.6381311  32.7848244   9.7212857  45.7399273  32.1652699   8.6723036
   2.8269572  36.2188365  64.4278023   3.2768244  35.7105504  63.7528965
   2.5694603  37.0281728  63.9863267   0.2261442  21.4552651  54.6959004
  -0.3118520  22.2047542  54.9509725   0.1594014  21.4262866  53.7414703
  63.5158155  72.5756902  32.8504086  63.4724614  71.9742185  32.1070504
  63.7974450  73.4074158  32.4694228  42.6932049   4.9072057  19.3450260
  42.0224762   4.4856492  19.8822856  42.7570343   5.7957667  19.6951926
   4.9993298  67.6367981  32.3450494   4.3168804  68.3062929  32.3926806
   4.6620843  66.9950563  31.7200160  15.8616683  78.1796530  22.0783925
  16.3392207  78.6484716  22.7627778  15.9659669  77.2552521  22.3038626
  41.4361238  28.7679958  39.5164013  41.5069008  27.8713799  39.1888356
  41.9230747  28.7610745  40.3404570  71.3711929   1.7763016   7.7961177
  71.4452410   2.7300721   7.8288382  71.5768909   1.4894353   8.6858529
  85.3480697  35.4174273  53.7807736  85.7101942  34.7404347  53.2091293
  85.8718563  35.3614031  54.5799872  74.4482399  54.1880606  69.8267066
  74.2984415  53.9600645  68.9092038  75.3313709  53.8686071  70.0117812
  26.7975092  29.1218090  51.3189554  27.4584579  28.6000943  51.7741394
  27.1225595  30.0204849  51.3733244  14.3897435  69.9152250  27.9181218
  13.8164184  69.5419294  28.5875821  14.1230151  69.4835121  27.1065116
  80.0503710  69.0451950  20.7186246  79.7557214  68.3154613  20.1737380
  80.0167874  68.7052507  21.6127968  33.9843702  13.6644709  17.3010814
  34.5649242  13.2842493  17.9603398  34.4407034  14.4524217  17.0059144
  82.9272631  68.8519890   5.5007184  82.3202494  68.8775439   4.7610468
  83.7817958  68.6837918   5.1035833   5.4852817   5.4217605  62.5400928
   5.0202915   5.9838037  61.9203171   4.8725745   5.3081636  63.2666722
  69.7143221   6.0539556  11.2110579  69.5837975   6.8597466  10.7111621
  69.2258501   5.3891510  10.7256091  30.8583018  77.5731660  29.3946385
  31.4734742  78.3014778  29.3088555  30.8857581  77.3446224  30.3237486
  21.8716809  75.7106221  38.7647700  21.3570306  76.2368370  38.1528330
  21.6735980  74.8048074  38.5270834  42.1361399   7.0501035  51.5346289
  41.3672781   7.0645678  52.1046066  42.8802347   7.0965636  52.1349573
   1.0082552  77.1143818  63.1028891   0.5827663  76.4122230  63.5949898
   1.2815807  77.7433003  63.7707090  62.9690409   2.8622451  11.9079173
  62.3710203   2.9132485  12.6535749  62.9379463   1.9443266  11.6383052
  53.2979727  23.2195711  46.2010574  52.7874231  22.4360919  46.4053392
  54.0409803  23.1851029  46.8035364  28.5791349   4.1507921  13.2155216
  29.5362139   4.1632912  13.2068765  28.3280945   4.4201887  12.3319852
  23.6779401  79.4554864  33.9855289  24.6021888  79.4147643  34.2311716
  23.4210298  78.5410235  33.8672662  42.1152449  14.9247813  13.7184680
  42.6609755  14.8683035  12.9341054  41.3438511  14.3969762  13.5120583
  62.5587654   1.2328418  27.0965219  61.7864656   1.4794722  26.5876436
  62.5097942   1.7747742  27.8840137  33.8717484  16.7843795  21.4471126
  33.8533854  17.5130880  20.8267260  33.7396646  16.0058546  20.9061074
  36.0353184  11.5715539  27.3766136  36.4365697  10.7075405  27.4699545
  36.7040777  12.1004760  26.9416046  56.0602999  24.2889714  34.1465878
  56.2221050  23.3678222  34.3503881  55.7906723  24.6748877  34.9800158
  79.1292846  14.6153045  55.4038668  79.4402343  14.0224230  56.0879946
  78.8073802  14.0361035  54.7131157  24.1310620  21.1658573  30.5762076
  24.9359918  21.2913561  31.0787702  23.4920454  21.7384338  31.0005236
  28.2500267   3.2574025  10.3029799  27.5671601   2.7128690   9.9113059
  27.8266025   4.1030163  10.4509032  28.8470266  62.2945887  20.4192948
  29.7961375  62.2486860  20.5346799  28.7296006  62.5997574  19.5196748
  47.5690985   2.3266032  55.6256199  47.6857376   2.2266959  56.5704203
  46.7307854   2.7795151  55.5343485  85.7229042   6.3940549  53.5803938
  85.0523472   5.7433981  53.3724594  85.3358459   6.9221640  54.2786169
  83.5996416  71.7663366   5.8501661  84.4380930  72.2225136   5.9218055
  83.5255388  71.2717927   6.6663569  83.9604164  52.6126026  64.4270417
  84.3962217  51.9841550  65.0026843  84.2184186  52.3476301  63.5441723
  66.8616295  43.9632463  42.8500605  67.3104286  43.3320665  43.4125757
  67.5309610  44.2477846  42.2277498  40.1936862  66.9755191  15.9692538
  41.1292884  66.8739266  16.1440694  39.8725602  66.0808665  15.8565199
  64.6151304  14.8949003  53.1633234  64.3428087  14.3879855  52.3984003
  65.3351831  15.4397237  52.8456402  66.5375233  18.9634681   5.5824822
  66.7878962  19.3450713   6.4238650  66.1542749  19.6917951   5.0937176
  48.8613937  74.8448969   7.7344948  48.9313743  75.0236339   8.6722511
  49.4431207  75.4850513   7.3245883  70.0086737  30.4487705  39.9307084
  70.6776714  29.7686958  39.8521304  69.1867352  29.9667835  40.0220203
  76.3303232   7.0210403  34.9959707  77.0436954   7.0391661  35.6339407
  76.7652607   7.1084934  34.1477871  63.7271881   6.4888519  59.1695881
  64.5693207   6.8843657  58.9446211  63.3406162   6.2526697  58.3263731
  24.1464898  62.1244664  17.9990578  23.5438296  62.0360381  18.7374413
  24.8881337  62.6155228  18.3526969  24.9204421   7.1044195  11.8354046
  25.3151369   7.2134727  12.7005959  25.2019763   7.8765249  11.3446677
  30.6327817  70.8772177  66.1356115  29.8013017  70.6374950  66.5447617
  31.2393806  70.9809155  66.8687677  31.6176221  81.1421629  64.9479866
  31.1546085  80.3779830  65.2913189  32.5056407  81.0603949  65.2958012
  61.6646051  28.6347008  62.9816008  61.0319090  28.5843992  62.2650814
  61.2081051  28.2531548  63.7314415  79.4777963  73.4124333   2.0879266
  79.6307275  74.2928070   2.4311242  80.1210115  72.8648097   2.5380528
  55.1190090  22.6675034  48.5491323  55.9533882  23.1307840  48.6227322
  55.3290367  21.8721294  48.0597448  67.5873041  36.2382412  58.7582016
  66.7339945  36.2388444  59.1918993  67.3878336  36.4045072  57.8368950
  30.9219310  78.7875881  41.9777489  30.4147193  79.5990377  41.9550848
  31.6335675  78.9670449  42.5922394  20.3010321   8.5169768   7.4928445
  20.8669901   7.7684426   7.6815742  20.3573561   9.0634733   8.2766813
  52.3389864  27.6782227   2.9562435  52.0806408  26.7778063   3.1530675
  52.4888754  27.6831818   2.0108648  51.5193892   2.5019467  40.1384306
  52.3601818   2.1919285  40.4748678  51.0720062   2.8601241  40.9051037
  51.0384750  12.2348607  17.2033167  50.6583166  13.0279660  17.5810623
  50.6777191  11.5218675  17.7303147  70.6499529  18.9696395  33.9021373
  70.6060886  18.3216715  34.6053052  71.2161064  19.6598876  34.2474723
  13.8108775  78.4946305  23.8314080  13.5529468  77.6351387  24.1645384
  14.2985246  78.3044109  23.0300021  33.7745309   6.5205646  50.9370232
  33.7945223   5.5846775  51.1368895  33.4821796   6.9328827  51.7498922
  66.0398674  33.7643075  51.7797184  66.8316174  33.3417535  52.1125937
  66.3101530  34.1608953  50.9515333  60.3009653  25.4618335  11.8188274
  60.1755190  25.3522873  10.8762264  60.6894016  24.6356010  12.1063793
  25.8588121  79.2498339  27.7291989  26.6411874  78.8346708  28.0921817
  25.8748290  79.0199639  26.8001485  14.1871470  39.0745831  17.6049173
  13.8935775  38.3214617  17.0922196  14.5307654  38.6946130  18.4134829
  34.4136977  22.9046082  19.9488544  34.5617604  21.9599390  19.9052072
  35.2827311  23.2888484  19.8332298  68.6639214  25.1584005  11.6093743
  69.5707989  24.8998117  11.7734933  68.7266636  25.8409810  10.9412587
  59.9597597  19.1499853  19.4826949  59.3345356  19.8679066  19.3831003
  59.5774603  18.5916281  20.1596856   3.7584135  61.0856003  22.3504734
   3.1991145  61.8087668  22.6341081   3.3916876  60.3149576  22.7838945
  32.5004098  79.3468305  43.9775467  33.4468696  79.2581505  44.0896988
  32.2790858  80.1550580  44.4401646  80.1713753  25.2554297  43.1715298
  80.7793427  24.7263145  42.6551533  79.6295071  25.7013845  42.5205755
  33.3627650  71.4952785  22.0175099  33.9922378  71.0793919  21.4284158
  33.5199020  72.4335969  21.9121671  36.3557002  54.1207904   3.9141449
  36.3048217  53.1779236   3.7571517  35.6180856  54.4852061   3.4249023
  14.6230483  15.6181979  39.4862080  14.3195248  14.7116101  39.4392586
  14.1750121  16.0584843  38.7639594  45.7028913   9.4177866  49.2345953
  45.8324718   9.5512813  50.1735401  46.1658287  10.1474094  48.8228083
   6.3699454   1.6955039  39.4996214   6.0363215   0.8402020  39.7705245
   5.7177943   2.0214853  38.8794041  15.7959956  48.3422852   8.9182484
  16.0622805  47.4424410   8.7295765  16.4114684  48.6386108   9.5887774
  58.8637638   4.3278834  58.4844112  59.4223070   5.0717616  58.7100458
  58.0555296   4.7249779  58.1599140  72.0597076  40.1791096  27.9490852
  72.5195456  39.5698428  28.5266399  71.5496922  40.7318020  28.5412407
  84.1691017   9.4033384  36.9347048  84.4994354   8.8592374  36.2198162
  84.6959209  10.2013493  36.8914652  75.1538897   0.8379444  24.7367549
  75.7267189   1.5839718  24.5591617  74.2890501   1.1249143  24.4436169
  45.3609514   4.1249129  55.4768372  45.9329557   4.6690780  56.0180664
  44.5428371   4.0721440  55.9709311  43.9304876  14.5107210  48.1585932
  44.0097284  15.1866424  47.4854803  44.3627834  13.7447500  47.7809191
  61.6465044  13.0825901  58.8134241  61.0460043  13.7407088  59.1634369
  62.4232006  13.1474042  59.3691015  69.7897673  29.5048380   4.5343068
  69.2504215  28.7144399   4.5096755  69.8316145  29.7374320   5.4618740
  58.4985542  42.8940630  15.7317626  58.4837055  43.5886288  15.0732851
  58.8193893  42.1247339  15.2612019  57.2703359  66.3811845  41.7422581
  56.9291112  66.9999618  41.0965681  58.2121942  66.3542039  41.5737247
  82.8858400  45.1468448  64.4582191  83.2796264  45.9706281  64.7455272
  82.9705072  45.1605664  63.5048696  67.5106001   3.8874200  66.9070959
  67.1959591   3.9989108  67.8042030  67.0900726   4.5934737  66.4163017
  60.5019855   2.2189388  21.1837864  60.0596380   1.9783425  21.9978333
  60.7624578   1.3831571  20.7966733  84.9869276  35.5971517  59.9127731
  84.3614460  35.3138183  59.2458901  84.7982526  36.5271260  60.0384006
  50.9885765  79.2098115  69.8240387  50.6813431  78.9137863  70.6808986
  50.5601168  78.6235999  69.2003309  38.7400672  61.5335888   1.0537714
  39.3783948  61.1398656   0.4590015  39.2397544  61.7282564   1.8466468
  12.3745439  57.7997441  55.1842833  12.4866578  57.9092855  56.1285639
  11.6176889  57.2200364  55.0986052  54.4788504  18.0154693  29.3216419
  54.5640802  17.4822783  28.5312772  54.0489626  17.4395394  29.9538875
  34.5805812  39.2676544  27.8269839  34.1152191  38.9323735  28.5933113
  35.2532887  38.6104321  27.6487827  16.5657327  78.0922297   0.0094764
  15.6495521  78.3666620   0.0485724  16.7208144  77.6552687   0.8468810
  50.1693487  47.0673084   4.0170717  50.4329109  46.1474228   4.0410119
  50.9906197  47.5493193   3.9200890   6.5911597  32.4606705  51.4368439
   6.4512461  32.1187449  52.3198748   5.8093280  32.1974134  50.9513998
  52.6739595  72.2875035  37.5264859  52.7372358  71.7842359  38.3382440
  51.7358873  72.3236138  37.3395634  58.8314533  38.6162496  40.3425884
  59.5643759  38.2342267  40.8254051  59.2270088  38.9664435  39.5443797
  38.9044452  28.0831385  28.7762690  38.5678792  27.2409368  28.4702396
  38.1907153  28.6997938  28.6133027  72.2820332  43.3012905  29.3289021
  72.4471619  43.9709832  28.6652115  71.3377526  43.3418344  29.4803074
  83.8658643   8.2679199  61.4319679  83.1019903   8.0768393  60.8877101
  84.0342594   7.4520110  61.9033125  50.0588179  12.4615622   7.7922076
  49.5423555  11.8240035   8.2851768  50.0943327  12.1058226   6.9042778
  55.5329990  34.5008945  43.1037045  55.9273291  34.0293694  42.3699427
  55.8640289  34.0527368  43.8820362  49.7040319   8.7308919  22.3821449
  50.1979685   8.1527555  22.9635382  49.9956656   9.6120167  22.6162386
  62.7339125  21.0963464  30.0064850  63.1298828  20.9268975  30.8613110
  62.1009445  20.3876519  29.8910093  37.1944213  31.2146568  30.5126882
  38.1415582  31.2592721  30.6437397  36.8699884  32.0612001  30.8198333
  72.1673346  58.5286713  34.2089510  71.7900133  58.2074165  35.0278854
  73.0898714  58.2777119  34.2556119  65.6194115  19.4844210  16.6497338
  64.8433161  19.6514058  16.1149263  65.3274488  19.6343291  17.5489092
  71.9617701  16.2368906  54.7553778  71.4848137  16.0703540  55.5683994
  71.8211222  15.4494894  54.2295933  71.0715196  77.5908107  24.7784233
  71.8551538  77.9297466  25.2111745  70.4485986  77.4454350  25.4905105
  39.9666095  16.7165482   3.5037404  39.5088863  15.9729278   3.8958535
  39.8647189  17.4235523   4.1409177  66.7421436  25.6102777  60.2131557
  66.6542244  26.3584757  60.8036661  66.5140247  25.9576082  59.3508625
  77.6285982  14.9214220  37.9788804  77.2291899  14.7821510  38.8375473
  76.9427156  15.3431511  37.4612498  63.6479330  30.6184554  46.7642117
  63.9477873  30.8582520  47.6410341  64.4349766  30.3034210  46.3197470
  78.1241251  12.8013562  63.9255693  78.6160017  13.3029245  64.5757374
  77.2912765  12.6049470  64.3545487  49.6375418  12.9487026  39.7604513
  50.5760193  13.0047059  39.5805717  49.3387318  12.2008133  39.2431474
  59.9240875  15.0610220  22.5209832  60.2640390  14.5604682  21.7792892
  59.4336748  15.7790303  22.1207404  47.8238344  30.7268548  59.2411375
  48.7279081  30.6018329  59.5296764  47.8357840  31.5600967  58.7701797
  49.7191858  56.0645914  18.9498413  50.6344891  55.7966805  18.8681495
  49.4721508  56.3450480  18.0686188  18.8897416  65.0579221  40.3388691
  17.9794118  65.2451212  40.5679607  18.8413951  64.6642072  39.4677281
  62.3094130   4.6285269  42.3019361  62.0718527   4.3767604  43.1943560
  61.9876194   5.5255634  42.2124481   5.1345489  57.0617217   7.8876156
   5.6161806  57.6320762   8.4867465   5.8071706  56.5074295   7.4919212
  67.6837632  77.2709337  28.8245058  67.8944394  76.4285812  28.4216523
  67.4711797  77.8427086  28.0868673  10.3827137  53.5740756  60.2112856
   9.6442122  53.3535014  59.6436641  10.7155794  54.4003581  59.8610172
  13.7873790  78.1471003  13.9881909  12.8320167  78.0937064  14.0139985
  14.0146634  78.7258714  14.7159255  15.8674121  21.7656922   3.3438525
  15.5738449  22.1111441   4.1868907  16.2527835  20.9152174   3.5546008
  56.1299992  24.9105430   7.4457711  56.8583155  24.6855497   6.8668318
  55.3498220  24.6207976   6.9729036  62.1324015   3.2126155  50.0146151
  61.5244675   3.9495182  50.0748062  62.5922966   3.2123369  50.8540916
  51.5599108  16.7373395  22.3586965  52.1349955  17.1693242  21.7271137
  51.5937471  17.2964334  23.1349063  64.4943571  44.8430347  28.9544225
  64.8044920  43.9458179  28.8317418  64.4635153  45.2087736  28.0703902
  25.5373096  33.4917736  37.4762154  25.4629803  32.6332140  37.0595813
  26.3079166  33.8889813  37.0704770  55.8595371  20.0231981  21.8633270
  55.6390905  19.1032851  22.0096087  56.5480661  20.2089500  22.5018048
  41.2472486   5.1065058  30.7241535  40.7926178   5.8591306  30.3458714
  41.0472202   4.3827134  30.1305676  48.7202168  31.8746543   7.5969934
  49.5021152  31.8628812   7.0449740  48.8686132  32.5971437   8.2070905
  20.4394269  11.7418098  45.3029871  19.8405886  11.0589182  45.6051159
  20.1185751  11.9732583  44.4313669  38.9191747  26.7304850  17.6073837
  38.0989766  26.2385631  17.6463413  38.9256215  27.1164203  16.7314601
  62.9283047  73.8841103  67.9589769  63.6416364  73.8613580  68.5968429
  62.1354890  73.9657496  68.4890821  42.2343016  42.7566433  20.5845547
  42.7618790  42.0243263  20.2657938  41.7265987  43.0356216  19.8225582
  76.7766428  20.5530286  41.5982151  76.2607718  19.9342132  42.1151066
  76.8572855  21.3246226  42.1588993  29.7206515  22.7435136  47.0755243
  30.4813594  22.7579498  47.6563454  29.1852492  22.0194483  47.4000263
  82.7653503  23.9380312  16.8731332  83.2503891  24.6008134  16.3815141
  83.4351444  23.3217382  17.1694362  74.0275145  27.0621490  28.6632013
  74.4555902  27.7791357  28.1953192  74.5885801  26.3032341  28.5035610
   5.0651523  43.8417794   1.8230131   5.7947036  43.3157145   2.1504954
   4.2873689  43.3171790   2.0129421   6.6181010  15.1538861  34.9597597
   7.4290484  15.2313876  35.4623318   6.5657538  15.9699321  34.4622087
  47.4380302  14.7709060  51.8306637  47.7764416  14.5559239  50.9614754
  47.6706409  15.6907094  51.9574928  76.7875195  34.8629785  19.3553209
  77.0954990  33.9701462  19.1996598  76.0882854  34.9903417  18.7141597
  69.5080757  37.8085279  44.0501165  69.8539734  37.0313931  44.4890356
  70.0905228  38.5172057  44.3235493  51.7387772  21.6639256  49.7683668
  52.3906898  22.2078133  50.2104425  51.2246799  22.2814345  49.2481565
  67.2136211  23.7963462  20.0230336  67.4211931  24.6917081  19.7556889
  67.7315140  23.2450724  19.4364190  48.3638477  26.4879608   8.1526530
  48.6566782  26.0013318   7.3821485  48.6845541  27.3784328   8.0096871
  58.4378004   1.0943001  28.6063790  57.7907467   0.9701671  29.3007469
  58.1416750   1.8759897  28.1400061  46.8734834  78.9272747  10.8099937
  46.7171094  79.8714027  10.8300173  46.0054347  78.5383984  10.9172165
  42.1299264  80.6993551  26.1047912  41.6096828  81.1722966  25.4552484
  42.7190635  80.1510251  25.5866408  70.7158041  34.7988796  41.6387987
  70.6048346  34.2681599  40.8499670  71.3958788  34.3466473  42.1380186
  21.2233752   2.4037795  40.5307913  20.7905024   2.2638640  41.3729763
  21.0884208   3.3327338  40.3435373  29.1840624   0.8531786   1.0536698
  29.4606947   1.7262341   1.3320234  29.2225241   0.8831812   0.0977162
  82.1390202  59.1903790  16.2319020  81.5361407  58.6605092  16.7534474
  81.6142800  59.9377867  15.9450939  18.1345689  64.0882444   1.9248465
  17.4997962  64.3438768   1.2555575  18.5204780  64.9141121   2.2168183
  54.7350022  66.3634903   9.1870046  54.7478769  67.3143119   9.0774435
  55.4126165  66.1884410   9.8400241  76.4648247  12.8734601  22.0330000
  76.1341524  12.9985452  21.1434817  75.6876135  12.6611257  22.5498033
  27.5267622  63.7963601   2.2701481  26.6802332  63.8053222   1.8234471
  28.1060144  64.2970534   1.6956928  63.1099603  73.4341419   7.1879494
  62.4813649  72.8814877   7.6523590  63.9551255  73.2193333   7.5826299
  55.2556801   6.4732701  27.9747534  54.8651505   5.6381422  28.2322025
  56.1800146   6.3875031  28.2081652  23.4249777  79.0258096  68.6117205
  23.4947104  79.9500822  68.8506541  22.5614590  78.7609886  68.9286432
  49.5314837   1.7980686  26.7443657  48.6344910   2.0249064  26.9896913
  49.8548746   1.2738046  27.4770284  34.4880033  32.0657659  33.2340360
  35.3632593  32.4500370  33.1841016  34.4966149  31.5547085  34.0433431
  57.2027016  19.2453671  39.4242454  57.9225588  19.6235013  38.9192247
  56.8554449  18.5515094  38.8637018  77.4381996  43.2538466  56.2039336
  77.0084930  42.6312687  55.6174335  77.2834135  42.9027934  57.0808801
  59.9146700   8.0183607  50.4263496  60.1061058   7.2451109  49.8956251
  59.4594431   8.6120039  49.8291969  73.2703206  59.2375559  46.1388111
  72.5225160  58.6426586  46.1946487  73.3796212  59.5691866  47.0300484
  53.7550256  66.8431420  26.8324661  54.3370626  66.3455886  27.4068427
  52.9770753  66.2924165  26.7445779  43.9000225  12.4500120  19.5093811
  43.8456154  11.6705036  18.9565349  43.2406092  13.0442131  19.1511500
  60.8459568  20.9659243  26.9749856  60.7388020  20.7838988  26.0413837
  60.9747553  20.1052475  27.3735785  78.4442520  60.1298189  13.4681034
  78.1696415  59.3957615  12.9185784  78.9893246  59.7306252  14.1461647
  37.9273534  37.1609640  10.9929907  36.9821692  37.1787572  10.8428550
  38.0185032  36.9409752  11.9200981  40.7772920  75.2378345  15.7224953
  41.5341232  75.2947927  15.1392341  40.1059577  75.7708163  15.2964997
  80.6831888  65.7549948   3.0386621  80.4122427  65.7823700   2.1210185
  81.6355851  65.6654746   3.0046201   3.2099456  27.8093815  55.6852007
   3.5672206  27.1406031  56.2694311   3.9520186  28.0734730  55.1413059
  63.4255886  35.9645987  17.3837471  62.6432085  36.4938617  17.2288477
  64.1397142  36.6003633  17.4291313  29.3820214  10.6674671   2.0036072
  28.5733414  11.0454476   1.6580617  29.2968893   9.7283661   1.8390653
  67.2124481  19.6023345  50.2650309  67.5183678  20.3253841  49.7174501
  66.9108248  18.9411163  49.6420956  19.8240489  45.3287029  19.0710115
  19.7957438  46.2575150  18.8413715  18.9982337  44.9750137  18.7406027
   0.2427405  44.9607134  31.3234735   0.5870742  45.5713177  30.6716847
   0.9765166  44.3769836  31.5160060  50.4798031  30.6751561  11.1747360
  50.8785534  31.1743164  10.4619455  50.4579306  29.7739124  10.8530056
  54.5702267  70.1919699  33.9937305  55.1918602  70.1461649  34.7201681
  54.4466925  71.1291122  33.8429379  63.9540815  26.8153000   9.3107390
  63.6055088  25.9264350   9.2425388  63.4547472  27.2143722  10.0232267
  62.3134422  24.6663547  33.8433647  62.1415234  25.4738188  33.3589292
  63.1757164  24.8017383  34.2362761  69.8579073  17.2730899   8.7538731
  69.7856331  17.4868441   9.6840978  70.7804680  17.0497835   8.6304075
  29.7970980  45.2214813  18.9323699  29.2043132  45.8359289  18.4995925
  29.2612475  44.4448471  19.0934169  32.1274516  72.0019681  32.2593451
  31.3195131  71.8746198  32.7565813  32.3044774  71.1470271  31.8669534
  77.6144290  40.4403766  68.6928578  76.6595483  40.3827165  68.7262238
  77.7897096  41.1694560  68.0979189  84.3043804  28.0795503  31.2728310
  84.3427372  28.2015872  32.2214460  83.3754253  27.9438281  31.0861731
  64.7966218   2.4159934   3.2889965  64.0473198   3.0116106   3.2943323
  65.5144047   2.9372860   2.9294661  84.8849297  32.8418374  39.9041057
  85.2685547  33.7168360  39.9627852  85.2542591  32.3679304  40.6492519
  36.0026282  27.1595192  24.2871833  36.5292376  26.5397716  23.7823772
  36.6078204  27.8697038  24.5007753  57.6463175  33.1144667  15.8806801
  58.3161449  33.6525917  16.3025618  57.6636744  33.3862400  14.9630368
  61.1603498  38.6752605  15.9847713  61.8810749  39.1799140  15.6077933
  61.3981724  38.5693979  16.9058919  62.9401112  18.6392987  26.3953948
  62.4770641  18.6096120  25.5581737  63.5675049  17.9179490  26.3478136
  12.0150825  34.8256053   0.1483563  12.5599548  35.0128504   0.9127405
  11.1439344  34.6616973   0.5095556  61.5904808  20.5501199  63.7216091
  62.1752691  19.9114442  64.1294670  61.3362503  20.1463819  62.8917980
  61.9380283  37.3613429  23.4639072  61.5463018  38.1208324  23.8951373
  62.1978760  36.7852950  24.1828489  61.4466760  12.4947194  67.8184058
  62.1968457  11.9207505  67.9734105  61.5740583  13.2243804  68.4247093
  11.5710372  39.1608620   0.3650284  10.7592124  38.7583184   0.0566028
  12.1281451  38.4211755   0.6073739  79.9094296  14.5271111  65.2681637
  80.1710415  15.3540266  64.8631954  79.9901915  14.6849704  66.2087965
  83.9122203  73.1273123   0.5301121  84.8529485  73.2826515   0.4456976
  83.8403180  72.4551459   1.2077931  59.8002577  23.0848336  40.7194948
  60.5150747  23.0283523  40.0854015  59.0368986  22.7477932  40.2505350
   0.8776969  56.4691973   7.6098204   0.8746165  57.3113871   7.1549124
   1.7865580  56.3489485   7.8850192  70.5190277  19.4449735  67.0612669
  69.5746660  19.5839691  66.9899035  70.8501101  19.5899212  66.1749220
  42.9978511  40.7233171  69.0332032  43.0428121  41.5142850  69.5704089
  42.8145883  40.0204686  69.6566220   6.2341994  34.2530370  32.7049398
   5.5056876  33.6888742  32.4456882   7.0110244  33.8175154  32.3540735
  76.2324524  46.1482239  26.4423203  75.3507805  45.8357239  26.6453862
  76.4842367  45.6615067  25.6575012  72.2183699  73.7750958  57.4181387
  72.2772402  72.8728221  57.7322599  72.4216456  73.7174295  56.4845523
  61.5878057  36.4084220  43.4684038  61.8447590  36.7052913  44.3413734
  60.6941271  36.0839248  43.5791826  72.1163893  39.2458057   8.7348044
  72.8622198  39.2389297   9.3347394  71.3537455  39.1196561   9.2993277
   8.6435050  44.8507118  35.7258487   8.7061709  44.0941715  36.3088989
   8.2184810  45.5260181  36.2545681  51.5211582  31.5665960  49.2398119
  51.4332294  32.2542453  48.5797787  50.6230068  31.2844396  49.4128513
  52.9959440  48.6983871   3.4524104  53.7733364  48.1802845   3.6608797
  53.2535315  49.2221212   2.6937395  72.7524471  69.7661543   3.4671623
  73.6183691  70.1651144   3.5522607  72.3086166  70.2960587   2.8050092
  22.0422000  17.2474837  65.7669592  22.3834533  16.5161455  66.2816572
  22.0485610  16.9287384  64.8644114  72.8864956  23.8016367  41.5665007
  72.6487780  22.8867483  41.7171574  72.0688295  24.2845058  41.6868591
  55.8165598  36.9090438  12.4865401  56.5278482  37.2049403  13.0546498
  55.7021618  37.6200032  11.8559217  73.3274221  46.3643265  26.8562007
  73.4740114  46.2741756  27.7978039  72.3931980  46.1902475  26.7414951
  65.7973433  39.3448281  39.4689298  66.3351822  38.7874508  38.9065361
  64.9657488  38.8769555  39.5449924  24.8412034   2.9418878  52.4823424
  24.6204850   2.5545625  51.6352937  25.7564351   2.7005080  52.6248905
  70.9849119  46.5329552  35.6823659  71.3374376  47.0762348  34.9775267
  71.5475893  46.7205477  36.4336538  77.0871449  66.6298676  20.6985378
  77.6966143  66.9315958  20.0249362  76.2963343  67.1501017  20.5563951
  10.8495730  30.4038095  28.4175158  11.4398211  30.3464341  29.1688776
  10.6083506  31.3290238  28.3725357  31.3125706  32.8917742  33.9375210
  31.7209387  33.3679962  33.2145548  31.7290497  33.2459950  34.7232080
  82.2076702  51.2817860  20.6086206  82.3472118  52.0208549  20.0165582
  83.0734348  50.8849239  20.7044888  58.1813288  29.6291542  48.2761097
  57.7505064  30.1018119  47.5639153  58.2235622  30.2623558  48.9927006
  71.6057539  30.6732821  44.6786737  72.4439716  30.3293204  44.3699503
  71.3459969  31.3070011  44.0099716  76.3699865  22.3634553  35.7814479
  75.6878185  22.6952600  35.1976824  76.1183882  22.6810098  36.6486788
  32.9762695  75.2929611  27.0184350  33.8861940  75.4104162  26.7455411
  32.5654456  74.8289097  26.2889743  57.9829931  21.9659519  39.0334487
  57.0588875  22.1791697  38.9038539  58.2302332  21.4829707  38.2448816
  42.9313085  36.6637639  65.1941618  43.8807723  36.6192702  65.3071684
  42.8084371  37.1932439  64.4062617  49.4655180   7.3999649  19.5930171
  49.2799664   7.1057349  18.7012601  49.7298431   6.6056633  20.0571823
  22.1903131  36.6583852  58.7973353  22.7631185  36.0005740  59.1915521
  21.3213250  36.4589433  59.1456374   8.7130851   7.8747159  23.4484053
   9.4327086   8.1969136  23.9911509   8.5541266   6.9853824  23.7647104
  82.0511055  45.6197023  43.6067963  82.3202229  44.9325037  44.2163610
  81.3737011  45.2104568  43.0683947  30.0809187  61.3560961  65.1994294
  29.3735022  61.6729806  65.7610118  30.7215208  62.0673297  65.1968226
  -0.0795823  59.3586731  35.5180025  -0.0840455  58.5347891  36.0052633
   0.8375663  59.4896698  35.2773905  77.9960823  54.8733091  62.7598858
  77.5714111  55.6367254  63.1511402  77.3460817  54.1743755  62.8321743
  16.1338729  31.8599319  10.9613407  16.2127513  32.6218963  10.3873909
  16.8474215  31.9598508  11.5915024   1.7924231  60.8467627  40.7093000
   2.3452205  60.8883190  41.4896393   2.1874350  61.4727068  40.1023483
  73.9743137  33.3018208  32.2346830  73.2515049  33.9190412  32.3478937
  74.0282154  33.1670451  31.2885523  43.7393114   1.1232143  45.9486437
  44.1370985   1.6340976  46.6536236  43.4456846   1.7776828  45.3148508
  68.2853460  18.5804915  56.0395384  68.3440018  18.5186100  56.9929314
  68.1380796  19.5107019  55.8685064  52.6532650  28.0686188  54.0545034
  53.5907316  28.0457783  53.8624954  52.2709131  28.5546541  53.3238792
  75.9609795  32.6363111  57.9774523  75.3067446  32.9582357  58.5975933
  76.1087704  33.3711910  57.3821878  39.6750760  47.0830536  24.1526842
  39.6601558  46.1574745  23.9091468  40.4868460  47.1870470  24.6491146
   2.9346103  31.7566252  43.1613159   3.5867041  31.6988635  43.8596487
   2.9027671  30.8750248  42.7898312   7.9847235  69.4828390  70.2221764
   7.4846787  68.7626837  69.8380407   8.8968033  69.2773603  70.0169296
  67.7376032  31.9590688  16.1434078  67.4297523  32.5231719  15.4340088
  67.0099735  31.3584375  16.3047361  72.1226501  50.7669544  35.8175230
  71.3643742  50.3866386  36.2609339  71.7468119  51.3441277  35.1528072
  72.1385026  61.4144705  67.4644968  71.9146801  61.6083978  66.5542617
  71.3935638  61.7410515  67.9691215  36.5821194   8.5102488   4.3249109
  36.5733027   9.3152930   3.8071659  36.8430495   8.7921740   5.2016476
  83.2488632  13.1283951  15.6513560  82.7068329  13.8012612  16.0632873
  83.8039970  12.8014636  16.3592899  61.0659409  52.3052549  27.1700048
  61.7617989  52.9546356  27.0684338  61.5072155  51.4626122  27.0629668
  46.3007689  56.9923878   8.4106499  46.0304070  57.2958565   7.5440204
  47.2378588  56.8185186   8.3219713  30.4309481  25.8400083  30.8925223
  30.1674384  25.2637196  31.6099358  30.0757140  26.6964221  31.1304188
  70.0518322  22.0121288  22.8238940  70.1304531  21.8529534  23.7644863
  70.8534956  22.4812055  22.5925231  70.4556131  30.7129502  15.9864688
  70.6309319  31.0274982  16.8733478  69.6340275  31.1376333  15.7397521
  64.7872829  20.6699300  25.9970760  63.8837767  20.3939605  25.8429813
  64.8064423  20.9225297  26.9201446  18.1317252  52.0079565  23.7253666
  17.3703498  51.9655085  24.3039393  18.4349459  51.1022902  23.6616993
  57.7906799  53.6515236  12.7621019  57.3798561  52.8256083  12.5065231
  57.2525024  53.9729595  13.4854794   1.1164588   7.6053315  40.4580307
   1.1485404   8.5619849  40.4538298   0.1872557   7.3964214  40.3622723
  59.6040630   4.9363747  49.6520948  59.0902472   4.3792424  49.0674353
  60.2301025   5.3750563  49.0760183  52.1295261  48.1661415  21.2733984
  51.3789272  48.1203556  21.8656325  52.4754143  49.0506029  21.3930440
  17.1054763  35.9586048  59.4719839  17.4388617  36.4709830  60.2085686
  17.4994010  36.3647628  58.6999178  75.5220627  30.2080561  12.6854733
  75.5256772  29.2992236  12.3850659  75.8794140  30.1685025  13.5725907
  29.2804954  13.3335714  64.1460666  29.4294927  12.6743821  64.8239306
  29.7850749  14.0935544  64.4359937  63.2135820  50.4729319  43.4283543
  62.6321125  50.7968760  42.7404690  64.0928364  50.6985617  43.1246519
  42.9892397  22.4822164  44.9549532  43.1443548  23.4226274  45.0432777
  42.8702879  22.1736813  45.8532190  68.8372421  53.9877415  46.5462971
  68.0020237  54.0804911  46.0879993  69.4831848  53.8817692  45.8478975
  82.7634811   2.1335746  35.7012916  83.5458946   2.6771897  35.7937217
  82.7247238   1.9263719  34.7675896  81.0340786  29.5241356  48.3987856
  80.9808826  30.1844358  49.0897274  81.4891243  29.9646211  47.6810551
  19.1665191  16.5850568  56.6027403  18.2469195  16.3888645  56.7818737
  19.3725890  17.3177218  57.1832323  54.3828630   4.1394252  58.6162281
  53.7356377   3.5532737  58.2241154  55.2079391   3.9029935  58.1924534
  41.9507167  64.2048151   9.8005468  41.9183108  65.0757725   9.4048011
  42.7762363  63.8318021   9.4913298  33.5352683  23.4007263  25.8567500
  34.0207648  23.6080861  25.0582981  34.0438652  23.8068700  26.5586090
  81.2233925  39.0232348  36.7424250  80.3670216  38.6112094  36.8568134
  81.3018513  39.6226335  37.4845791  49.2359683  74.4465429  47.2193480
  49.9419543  73.8353313  47.4296665  48.7658403  74.0300578  46.4970255
  78.1644249  19.2720830  30.9302688  77.6531792  19.6992779  31.6175604
  78.8704920  19.8892164  30.7383204  64.1851187  52.3667717  45.9296846
  64.0831709  51.9248295  45.0867558  63.3567190  52.8283358  46.0598660
  53.7728977  31.7185616  46.1395359  53.2155466  32.0514941  45.4361534
  53.4521151  30.8310223  46.2995577  75.2431583  34.1419554  35.5413723
  75.9153366  33.5367298  35.2281475  74.4834805  33.5865092  35.7163024
  13.5712165  74.1696882  62.0342636  13.9630812  73.4120131  62.4685431
  12.6765555  74.2036295  62.3728704  84.7226143  31.7782927  37.5478387
  84.6441460  32.6786256  37.2324395  84.6431732  31.8499517  38.4990430
  84.9250698  77.8305769  16.8937743  85.6203938  77.9767179  16.2523663
  85.2036095  77.0518827  17.3757339  74.4211435  44.8699284   2.1374781
  74.4609880  45.7268810   1.7128940  75.1970100  44.8437738   2.6974592
  11.3180849  74.5399566  15.3008679  11.7852708  74.9502965  16.0286072
  10.4264328  74.4180938  15.6269673  59.4769287  46.4597321  52.2876024
  59.9692583  45.9351254  51.6562271  58.6075068  46.0596943  52.3051548
   4.6120375  38.8692617  43.1245136   3.8711089  38.2663560  43.0631733
   4.5286864  39.4303942  42.3535299  64.1862822  55.3491545  63.8263750
  64.7825384  56.0914326  63.9250135  63.5843229  55.4254580  64.5666838
  40.5903053  67.1863413  11.1795008  41.0211706  67.6185751  11.9169033
  41.2292385  67.2324276  10.4682553  73.7082720  54.1975784   1.0238066
  73.1997442  54.3523693   1.8198398  74.5179510  54.6903753   1.1572193
  45.6865358   0.1694692  52.3180771  46.0272503  -0.1415451  51.4793825
  45.6956911   1.1235452  52.2413540  67.3478794  23.0815482  22.7651811
  67.0940685  23.4503579  21.9191360  68.2145500  22.7051497  22.6120830
  77.9496002  60.0528765  31.6768837  78.8685036  59.8536253  31.8561935
  77.9778147  60.8244705  31.1111307  78.4850740  39.5537639   6.7876232
  79.0927649  38.8595319   6.5327078  79.0009832  40.3577662   6.7272538
  71.2925577  68.3117819  54.2110395  71.5869808  67.4010563  54.1999483
  70.7815742  68.4081078  53.4073877  73.2120371  47.0999384  16.0751057
  72.8756762  46.3967991  16.6307008  73.6085939  46.6478539  15.3303969
  13.7297866  66.0730464  14.4780934  13.2619474  65.9059769  15.2962887
  13.0497739  66.0520083  13.8047647   0.8966369  62.7902842   9.1396827
   1.7567557  62.6161289   8.7574428   1.0453147  62.7662659  10.0849605
  49.8577547  51.1934137  26.0810852  49.5756006  50.3711176  26.4816451
  49.0505791  51.6963387  25.9726024  56.3199425  12.8653705   4.3774462
  55.7822418  13.0209446   5.1539171  55.9151316  13.4003305   3.6946735
   0.8368344  72.9033302  58.4604582   1.0666460  73.8007473  58.7014159
   0.4771895  72.9773091  57.5764820  68.6120272  42.1244621  43.9590931
  67.9450321  41.8218088  44.5753336  68.5515213  41.5159273  43.2227087
  21.9807738  61.3681078  19.6512175  21.5118617  60.8620405  18.9876997
  22.0890158  60.7609987  20.3832912  71.4416599  14.5905411   5.9640235
  72.2946072  14.2427647   6.2243438  71.3582134  15.4100358   6.4515638
  80.8121109  63.3680296  13.9894843  81.2186527  64.2263031  14.1091597
  80.5016518  63.3742142  13.0840504  65.2409601  36.9503641  45.9097576
  65.7919598  37.2693372  45.1949930  64.3576336  37.2365880  45.6772947
  53.8484716  40.4231977  17.7957046  53.8283062  40.3690147  16.8402529
  54.3487644  39.6541643  18.0687058  56.0915849  37.9021625  60.6435636
  56.4907643  37.0648984  60.8799401  56.6239545  38.2244806  59.9162897
  64.6155167   4.0972972  40.5012655  63.9959002   4.6109381  41.0194111
  64.0656185   3.5894027  39.9046969   4.1882342   5.0540036  26.4170289
   4.4371909   5.2799517  27.3132420   3.5573024   4.3410361  26.5162349
  40.7479286  13.1690443  16.5234840  40.2069855  13.9382470  16.7021871
  40.3047228  12.7276313  15.7989478  66.5230274  62.2808790  24.5388246
  66.7969799  63.1189346  24.1662002  67.0727968  61.6321802  24.0993118
  57.9229879  45.2094650  25.7485437  58.5521889  44.5684195  25.4177856
  58.0985117  45.2544260  26.6884375   6.8705672  32.8313708   6.3247550
   7.7909583  32.8972220   6.0702300   6.5334624  32.0941496   5.8157396
  66.1263895   5.9697008  56.8026924  66.1527014   6.1423582  57.7438211
  66.7858982   6.5567118  56.4329624  39.0871477  63.6191845  19.3539023
  39.9906588  63.4628630  19.0792000  38.5634804  63.4252453  18.5764754
  61.4124775  51.0475063  14.5607615  60.6833363  51.6179752  14.3175578
  61.7633629  51.4357853  15.3622282  85.6703854  28.2208586  29.0281367
  85.0631046  28.7939310  28.5601330  85.1734924  27.9134035  29.7862935
  79.6661711  28.8279581  42.1756268  80.3791332  28.3921242  41.7087650
  78.9180326  28.2396865  42.0733595  52.6401854  26.2255716  62.4345732
  51.9065046  25.8117509  62.8892088  52.3049068  27.0817590  62.1685553
  23.5550234   4.6677833  60.5981398  23.6384508   4.9002510  61.5229225
  24.1476747   5.2681404  60.1458502   5.6541842  49.2909241   5.5470765
   4.9996489  49.8678493   5.1534176   6.2990874  49.1519690   4.8535210
  65.9478903   9.6500808  14.2646241  66.7004538  10.2106845  14.0759361
  65.9343910   9.5805430  15.2191997  47.5725031  17.4356759  46.7684031
  47.5027370  18.2605565  46.2878466  48.4944439  17.3824322  47.0202351
   2.4665469  24.4394565   4.5435524   2.2101516  23.6114454   4.1374844
   2.1356696  25.1112032   3.9473072  71.8091726  79.4229507   1.7630380
  70.8553791  79.3738937   1.8270853  72.0351696  78.8002253   1.0721190
  80.1372147  69.8117113  12.2505045  80.0905037  70.7669306  12.2905731
  79.3762445  69.5563602  11.7290199  84.5582176  79.8397254  69.4133958
  84.6282459  80.3841733  70.1975538  84.1205621  80.3991293  68.7717152
   0.1719016  20.9724975  44.6303558  -0.1572019  21.6943932  45.1658869
   1.1202067  20.9916902  44.7591496  73.6426783  71.6052341  42.4306917
  72.8758430  71.2112999  42.0147467  74.1436720  70.8605909  42.7634764
  29.4644186   1.2620884  41.9013309  29.2274782   1.2517887  42.8286839
  29.9503347   2.0788723  41.7873383  26.8535155  43.6969805  39.0696883
  27.2239608  44.5764637  39.1438723  27.0013255  43.4510708  38.1564975
  55.0011396  54.4922924  61.4063311  54.4182158  53.9311743  61.9177723
  55.5139685  53.8835335  60.8746815  58.6043260  32.7697877  68.0085164
  59.3609807  32.3622350  67.5870839  57.9417512  32.8149919  67.3191866
  68.2287836  27.5672793  37.4790430  68.8833094  28.0043888  36.9342804
  68.2923841  28.0052996  38.3277631  70.2338028  62.9911852   2.1168181
  69.5261955  63.6127853   1.9461182  71.0349607  63.4953594   1.9747341
  17.6548022  58.6291742  39.3854117  18.5307902  58.2917452  39.1982770
  17.0620459  57.9748535  39.0156364  77.7889633  68.9998913  64.9483299
  76.9899988  69.0688229  64.4257069  78.1152534  69.8978710  65.0066280
  68.0349684  61.9667721  12.5230348  68.3573532  61.2688494  13.0933011
  68.1775379  61.6363716  11.6360509   8.2696742  62.3853540  15.1323760
   8.4575290  61.8369675  15.8940935   7.3829955  62.7119684  15.2852070
   6.3644046  30.4897380  22.2214270   5.8337420  30.1006460  22.9165840
   5.7495421  31.0290647  21.7241335  36.3460109  32.2208242  41.0635158
  36.2571523  32.8925065  41.7396662  35.5418203  31.7059831  41.1301967
  12.7671546  21.9583559  13.5775065  12.6834029  21.2209654  14.1820490
  13.0298728  21.5593863  12.7480292  31.3876933  71.5020800  35.1697111
  32.1126670  70.9633970  34.8527360  30.6229228  70.9287500  35.1181793
  79.1683865  54.4700909  16.2272429  79.3465233  54.6578217  17.1487927
  78.5486603  55.1488733  15.9599829  65.4712439  80.1426125   7.2063380
  64.7267628  80.6856632   6.9473481  65.1102448  79.2588472   7.2761923
  66.9168854   9.7359890  41.5848970  66.8590355  10.3569734  42.3110247
  67.4903107   9.0413970  41.9088650  85.1559544  41.9081736  29.2702198
  84.7976398  42.6443052  29.7661543  85.6451130  42.3161840  28.5557413
  84.8631668  49.9459171  35.7232571  84.4433498  50.7320070  35.3739071
  85.3136635  49.5608139  34.9716043  43.4840775  68.7857151   8.3708560
  43.9329624  68.9883423   7.5500792  43.3888388  69.6323776   8.8071120
  85.1746845  47.9164648  44.5369864  85.8547115  48.5856581  44.6142721
  85.1037025  47.7546406  43.5962391  -0.1043969  16.9078624  50.5466795
  -0.0740606  16.8148816  51.4988661   0.4748839  16.2193263  50.2202177
  23.4725875  74.0253830  36.4753580  24.3015498  73.8264608  36.9106650
  22.8052348  73.8467646  37.1379113  11.5752524  57.5958776  24.1341496
  10.7962436  57.2055817  24.5304465  12.2393626  57.5565386  24.8223615
  43.1243154  72.8051515   7.4545410  42.2768804  72.6601835   7.0337418
  42.9332849  72.7816029   8.3921889   1.8375033  64.1876888  14.1455531
   2.1743506  63.7294054  14.9154484   0.9828585  64.5203352  14.4197118
  18.4484691  53.0616665  33.1933236  17.5861758  53.1772184  32.7941537
  18.6689490  53.9256096  33.5414815  38.2800745   4.6611477   4.1710261
  37.8243327   3.8416935   3.9786032  37.6162600   5.3393961   4.0462759
  43.1709308  56.8774891   7.2407156  43.6499614  56.0882139   6.9881189
  43.0812758  57.3738956   6.4272195  83.5627174  52.2891188   8.8836759
  83.5415268  52.7866220   8.0661941  83.6398792  52.9547501   9.5672095
  73.3790636  34.1547704  54.3561268  74.0171671  33.9947963  53.6608124
  73.7032700  33.6472607  55.1001453  15.0427550  28.8595009  45.3921700
  15.9898681  28.7407303  45.3207064  14.9380511  29.5830488  46.0100317
  79.1989326  29.5954013  26.9000196  79.0242577  30.2777290  27.5482082
  78.8863993  29.9642134  26.0738659  53.1742096  73.3764744  17.1427476
  54.0426540  72.9753160  17.1760583  52.7953911  73.1993866  18.0037761
  61.0936975  68.2408571  53.9888239  61.3335323  67.8893471  53.1314135
  60.6517696  69.0672350  53.7938023   6.8113914   5.5349950  43.0228183
   6.4940468   4.6491746  43.1984517   6.5411488   6.0423736  43.7881729
   3.7079448  56.0475206  37.4120307   4.1552752  56.1465454  38.2524586
   3.0708903  56.7617226  37.3941708   0.5862877  13.7084919  19.3471348
   1.2320396  13.0770736  19.6642184   0.3815576  14.2463165  20.1120305
  10.2567118  59.6460581  60.6001091   9.8164290  58.8058376  60.7282066
   9.5615596  60.2974224  60.6935215  85.4460430  17.0347178  53.2636070
  85.9329987  17.1875191  54.0733957  84.7399426  16.4403200  53.5172606
  10.5790731   4.3873840  44.4962215   9.9067566   3.7100559  44.4223833
  10.4367801   4.9500805  43.7350655  60.9510660  33.7961578  14.0102398
  61.8555927  33.6991858  14.3079901  60.8730841  34.7216201  13.7785709
  75.6455040  46.9326496  32.7122045  75.2821255  46.6809464  33.5612202
  76.5731382  47.0919514  32.8864264  61.9722459  26.2678222  51.9086692
  62.5734040  26.9910840  52.0868167  61.9833944  26.1762408  50.9559259
  79.8762083  72.5992107  43.9660501  79.7368050  73.4416866  44.3985271
  79.8149300  72.7967119  43.0314541  41.8378210  69.3019247   5.7717460
  41.3828802  69.9954176   5.2939034  41.6382456  69.4744205   6.6918802
  18.3179492  14.0910196   4.5408168  17.7369040  13.4081912   4.8760337
  18.8693255  13.6427534   3.8995162  11.8236464  50.4013681  39.9628496
  12.7499408  50.2685356  39.7614336  11.7433184  50.1657104  40.8871031
  81.6953278  78.5919809  56.9131088  81.9243526  79.0100956  57.7431440
  81.4435101  79.3170261  56.3411617  64.4257832  42.5323582  35.2185178
  65.2844715  42.7254534  35.5948210  63.9037323  42.2235441  35.9590077
  12.5257605  62.6501369   4.9487686  13.1439704  62.3796749   5.6276649
  12.2830314  63.5445023   5.1884019  65.9551001  29.2421341  21.9059205
  65.9118652  28.3249187  21.6355872  66.5733480  29.6430182  21.2949467
  53.5138035  43.9357376  22.2387457  53.4554672  44.0419769  23.1882429
  53.3208656  43.0102205  22.0889950  55.5732059  58.9861965  10.9020472
  54.8990726  59.6656322  10.8899558  55.1240969  58.1977367  10.5973113
  62.6307487  55.1564837  37.9611635  62.9563951  54.3210649  38.2962275
  61.9035149  54.9170256  37.3866892  79.4700432  55.5027199  13.2584178
  78.9032269  54.7342014  13.3242083  79.0538168  56.1561441  13.8205731
  40.5050230  58.2549620  24.6767068  39.5903873  58.1619263  24.9431896
  40.8964396  58.8079548  25.3528953  77.1753311  21.0317564  45.7676172
  77.2160387  20.0952291  45.9612465  76.6605949  21.4023924  46.4844942
  64.7954702  37.4857306  11.6655159  64.5355606  37.1355772  10.8134174
  65.3557587  36.8073273  12.0424473  82.2699451  34.8849559  43.2745790
  82.3008537  34.7449708  44.2209864  82.9722500  35.5120587  43.1021500
  74.0233040  48.9737415  39.4891453  74.8466492  49.2706013  39.8767138
  73.3930302  49.6588993  39.7117472  12.0216936  79.0376853  59.6039435
  12.4672884  78.6594103  60.3619572  12.6992411  79.0912484  58.9299318
  18.1329554  38.0746245  18.0354726  18.3173007  38.4130454  17.1592760
  17.5372619  37.3400164  17.8880632  64.3085432  43.9186859  41.6758728
  65.1219225  44.1554832  42.1214867  64.3838453  42.9765177  41.5246105
  63.6468744  49.3971109  22.9470468  63.6049604  50.2902174  22.6052284
  62.9135847  49.3404675  23.5596728  79.5298624  72.8609514  41.1195755
  78.6733770  72.5036669  40.8850288  80.1446152  72.4076843  40.5426311
  75.4594755  64.8795891  27.1750212  75.9425163  64.9780083  27.9955196
  75.0097799  64.0390062  27.2611737   0.9121150  48.1561089  53.5726833
   0.3005523  47.8569269  52.8998470   1.3487548  48.9121914  53.1803513
  83.9895725  54.5679235  10.6629503  84.8869801  54.4103956  10.9563208
  84.0763474  55.2163076   9.9641681  39.8188874  19.7289066  65.6271422
  39.9513242  19.1253165  66.3581505  39.4993255  20.5333976  66.0356793
  79.4386578  42.5176620   8.3963454  79.6840000  42.1751690   9.2558444
  78.7458324  43.1520414   8.5801601  21.3665027  68.2743263  28.2969952
  20.8564586  67.5381804  27.9590964  20.9894294  68.4514427  29.1587853
  70.1692677  44.2779398   7.2708690  70.4159784  45.1334810   7.6221752
  69.3804979  44.0377760   7.7570719  58.3442685  33.3938913  57.0143506
  58.6030671  33.8795451  57.7975425  58.0656144  34.0686683  56.3952753
  39.3134710   8.0408912  41.4244413  38.5955736   7.5968986  40.9730816
  39.1323587   7.9046875  42.3544264  51.6483736   7.9262340  53.1044483
  52.2830248   8.3686972  53.6680794  51.2195492   8.6346799  52.6243973
  49.0194893  68.5009050  24.9918103  48.8485003  68.0453777  24.1674972
  49.6986294  69.1399574  24.7759128   9.9494094  57.9548883  63.6264563
  10.8745688  57.7654362  63.4701729   9.9087447  58.9086533  63.6965179
  72.7964878  72.1902323  11.2979925  72.2513151  72.4301338  10.5486822
  73.5784483  72.7351522  11.2094951  62.4991179  75.4717064  32.4959183
  63.4387064  75.6541204  32.5073504  62.2449493  75.5815077  31.5796351
  39.8453045  65.2576590  28.1531215  39.8124933  65.0044346  27.2306085
  39.2219663  65.9804678  28.2254028  67.8733253  55.5864573  53.7969065
  68.6835909  55.0914097  53.9178562  68.1490993  56.5030289  53.8054419
  75.0485849  51.1538839  65.2385998  75.8186054  50.5917454  65.1531219
  74.3586206  50.6885099  64.7657347  -0.0849610  47.8980637  41.7368937
  -0.4164869  48.5227919  41.0918808   0.5021018  47.3288679  41.2392950
   0.4026336  67.0985699   6.5147758   0.2353782  67.5911140   5.7112461
  -0.3691560  66.5421724   6.6196764  67.5841424  33.6714820  68.8296965
  66.8601987  34.2186431  68.5251354  67.9477307  34.1487006  69.5755472
  16.8283957  49.2519379  26.1396933  16.4841288  49.7005510  25.3673840
  16.6649836  48.3241034  25.9704280  21.0580468  67.1011734  19.4795454
  21.7419457  67.0080280  18.8163435  21.4889431  67.5508547  20.2064204
  57.7110577  32.4911070   8.2374215  58.0579424  33.3227324   8.5603768
  57.3489809  32.0648003   9.0142059  34.5093438  16.3661699  55.8968624
  34.9052570  16.0021142  56.6886637  35.2257440  16.8282441  55.4615590
   5.6225032  62.8768349  24.2189622   5.2253550  63.2714128  23.4425545
   5.8621138  61.9923973  23.9422035   8.6443061  64.3534708  34.4238210
   8.9013118  64.7455549  33.5892868   7.9076213  64.8868322  34.7222471
  72.3004818  62.9605961  59.5309162  71.8412018  63.6855412  59.1069555
  72.4940014  62.3506451  58.8190603  76.2800455  49.2479277  29.7307062
  75.5627298  49.4007730  29.1156197  76.2710857  50.0141811  30.3042936
  23.8210603   1.3815456  13.7616181  24.3288156   2.0311123  13.2753229
  23.6019155   0.7135635  13.1119955  48.2217312  29.4653034   5.3208685
  48.2536697  28.9877892   4.4918978  48.9602900  29.1219044   5.8236963
  50.7682610  74.6062422  30.8663559  50.5299091  75.5160093  31.0445166
  50.2237749  74.0944481  31.4645457  63.0154324  48.5654783  68.3371258
  62.8493452  49.4158316  68.7439966  62.9462433  48.7321472  67.3970890
  79.0354967  72.4625921  12.1981978  78.2866669  71.9658709  12.5279760
  79.0320635  73.2703114  12.7118206  53.3199880  44.2386274  68.1223948
  54.1718099  44.5781163  68.3969498  53.4200380  44.0699701  67.1854985
  68.9292669  75.6850100  39.9256635  69.3343449  75.5446053  39.0698433
  69.5959806  76.1477518  40.4332018  65.0630760  27.8816628  27.9991555
  65.1861858  27.5213528  28.8773656  65.8579731  27.6359653  27.5258636
  12.0316333  79.4792938  21.8142891  11.1097068  79.4815063  22.0717382
  12.4903125  79.1111231  22.5694656  80.8112335  71.2713861  39.3609166
  81.6764355  70.8634710  39.3965673  80.8365822  71.8185616  38.5759401
  71.0974360  57.0235014  21.7716312  70.9342051  56.0848236  21.6795945
  72.0447636  57.0913219  21.8907928  21.6327113  21.0305166  32.7740979
  20.9385985  20.4293489  33.0443668  21.2554854  21.5182686  32.0419550
   1.2148494  58.0177975  28.2762837   0.8669394  57.1282291  28.3383608
   1.9243163  58.0428553  28.9183617  11.3692778  62.0249796  15.7011604
  12.1714324  61.9035530  16.2091386  10.7245368  61.4655352  16.1342382
  68.3509254  24.3104243  27.0055676  67.8796768  24.3765759  26.1750388
  67.6772833  24.4362235  27.6738596  36.1219000  21.7365290   3.6244992
  36.8129754  21.3778712   4.1812828  35.3513073  21.7708231   4.1912821
  25.5053973  16.0082365   3.6412314  24.7756648  15.6740929   4.1628292
  26.1917185  15.3482224   3.7390688  27.5948309  31.7676712   2.8796366
  28.0406308  32.4716975   2.4086359  27.9812645  31.7831160   3.7552288
  73.2295513  58.3405876  54.4077587  73.9488125  57.7114582  54.4633389
  72.6552248  57.9883289  53.7278366   0.5895823  59.9570704  43.7450314
   1.1322612  60.7181644  43.9510918   0.8744925  59.6892309  42.8713512
  84.2895794  23.4436727  55.5253029  84.6854591  24.0109825  56.1868668
  83.9743614  24.0456676  54.8511553  80.0849056  31.0913873  33.9880252
  80.5275822  30.5764580  33.3134031  79.1667938  30.8276677  33.9266992
  39.9207803  22.7341133  46.0572958  40.4328367  23.2138115  45.4062033
  39.6007654  23.4095150  46.6553354  68.1217813  46.7272806  27.6891661
  68.9063883  46.5623903  27.1662593  67.8777266  45.8677340  28.0324507
  73.8685274  29.4884372  43.6040449  73.5392427  28.5896873  43.6113214
  74.6458340  29.4542217  43.0465078  82.2512913  38.9926720  42.1888399
  82.4822521  38.2864738  42.7923059  82.3826790  38.6165476  41.3184929
   2.1185798  52.5850105  33.8280344   2.8557223  52.0192623  34.0577745
   1.8829459  53.0166912  34.6492267  75.6799698  50.7831573  37.4382877
  75.1684189  50.2067661  38.0060148  76.1879158  51.3249350  38.0421948
  57.5300360  43.6015034  61.7890358  57.3756313  44.0457249  62.6227427
  57.6505709  42.6820374  62.0262861  45.6958505  10.2392059  37.2407651
  46.1482546  11.0160213  37.5695896  45.1064321   9.9865394  37.9513860
  55.3872299  54.8618412  19.1150784  56.0135794  55.5650854  18.9436996
  55.7992315  54.3359375  19.8005748  81.1650467  37.7246428  21.3265514
  81.9109726  37.1410179  21.1879492  81.5204620  38.6033630  21.1932778
  83.3237553  49.2276764   3.9652887  83.9042091  49.0600920   4.7077298
  83.8849735  49.1310883   3.1959179  85.9414387  11.8763995  50.9638977
  85.2170467  12.2609842  50.4703522  85.8930588  10.9402966  50.7699871
  61.9517279  35.3722405  20.9450817  61.7937374  35.3148413  21.8874073
  61.6076374  36.2301278  20.6963563  39.1057086   3.7259604   0.6395796
  38.8887524   3.8146092  -0.2884838  39.6195149   4.5080019   0.8411959
  57.6675126  17.9716090  69.1062870  57.5554845  17.7445296  68.1831855
  56.9325826  17.5465850  69.5483943  62.3738909  19.9348760  20.6108522
  62.3540688  19.4848931  21.4554548  61.7306376  19.4693589  20.0762963
  70.9447479  45.2785015  32.5898409  71.8725395  45.0439215  32.5696874
  70.9405470  46.2324619  32.6683950  11.0049647  77.2091293  57.4456120
  10.4743213  76.5780401  56.9594193  10.4756945  78.0065680  57.4597168
  69.0290880  33.0721474   4.6953002  69.9248028  33.1855536   5.0132161
  69.1026831  32.4183583   4.0000468  75.4053020  28.8776827  27.3294973
  76.2988567  29.1100383  27.5820923  75.4423666  28.7831712  26.3776970
  83.7017632  28.8349438  39.0290427  83.4703445  29.5519686  38.4386587
  84.4474316  28.4083033  38.6069226  66.3910675  23.9480925  24.9568391
  65.9563208  23.1946993  25.3563714  66.5496302  23.6807871  24.0514994
  25.7484740  46.5043449  16.6764545  26.2020129  45.6972885  16.4331603
  24.8879260  46.2137508  16.9785202  69.7707269  28.6000280  69.4700647
  69.0570066  28.7587337  68.8522896  70.4632184  28.2056503  68.9398196
  51.8772125  54.8431492  57.4759436  52.4241495  55.6162643  57.6151705
  52.4854755  54.1061926  57.5320244  72.5804949  63.2276630  45.8417082
  72.2218513  63.9695406  45.3546524  73.4959650  63.1803179  45.5661964
  33.1530687   4.0319400  35.7489061  32.4534628   3.3820587  35.6822181
  33.2329771   4.3894344  34.8645735  84.6690083  41.0571194  48.3165073
  84.4959641  41.9977474  48.3553648  84.4503975  40.7370186  49.1917086
  49.8762083  70.8298206  18.4929812  49.4009256  70.3928375  19.1996527
  50.5391836  71.3561010  18.9398873  57.3287317   7.3759132  13.1558657
  56.8016836   8.0408245  13.5989618  56.8716451   7.2194534  12.3295331
  31.8606114  11.5026642   7.7819756  31.3032794  10.7441069   7.9557684
  31.2896037  12.2573496   7.9256275  73.0532262  25.4175691  56.6493234
  72.8267572  25.9962634  55.9212753  73.2082364  24.5665197  56.2395415
   5.3332251  59.1847658  34.8224115   6.2620848  59.0136337  34.9778605
   5.3184813  60.0201225  34.3552971  14.4289205  21.5946893  58.9777252
  14.0607545  21.1349277  59.7322497  14.0599248  22.4762992  59.0310249
  13.0170554  45.8106232  23.8950801  12.3176497  45.3646660  24.3727589
  13.2525748  46.5523291  24.4524288  79.3440390  57.6002836  22.9931164
  79.8128033  58.2979822  22.5351715  79.1827488  57.9541397  23.8677597
   9.7413749  63.8413620  48.2366323  10.3671473  63.1995249  47.9009533
   9.9877089  64.6619558  47.8098106   3.9512748  16.6971457  11.5278006
   3.9143103  17.3429000  12.2333980   4.0233058  15.8551145  11.9772732
  33.5564345  49.0792656  22.6471210  33.3523864  49.6687365  23.3731532
  34.1000003  49.6032286  22.0587087  43.0040621   3.3238722  22.4020508
  42.8936886   2.4836089  22.8470257  43.9477562   3.3973481  22.2596577
  76.2943792  32.0485735  31.8311071  75.4003525  32.2765398  32.0860219
  76.2125587  31.1928654  31.4100337  51.5027711   1.6871766  47.7178618
  52.3443601   1.8113450  48.1566545  50.9285400   2.3445777  48.1106922
  84.0740299  34.2980051  36.7983556  84.8167133  34.8956561  36.8847585
  83.4943199  34.7258925  36.1682129  81.2717724  23.0233240  27.8850269
  81.3644981  22.3922181  28.5987067  80.4995728  22.7277684  27.4027586
  75.4343176   1.4655782   1.9558460  75.0716209   2.2493067   2.3687044
  76.3503647   1.6859542   1.7869551  70.0993633  19.9338305  38.3170676
  69.2799234  20.3053403  37.9903674  70.0574017  20.0579953  39.2652512
  45.6094832  75.9375285  30.6519768  45.0947947  76.1336206  31.4348337
  45.9434885  76.7876814  30.3657648  59.4066193   5.6853538  13.0103099
  58.6399701   6.2582927  12.9954350  60.1527646   6.2821060  12.9521728
  12.6394194  18.9864540  14.0408850  12.3881835  18.3363295  14.6969700
  13.1676692  18.4978986  13.4096193  67.6753521  48.6306095  19.4442654
  67.5650167  48.3444834  18.5375178  67.2619963  47.9417992  19.9647558
   8.1147021  41.2050962  40.9210157   7.9866523  41.3960695  41.8501902
   7.2367114  41.0101891  40.5933380  33.0830121  67.0137596  11.8877888
  33.2199979  67.9489279  12.0392156  32.1538043  66.8750525  12.0710003
   9.0362090  43.3396626  24.2376733   8.7788695  43.4942818  23.3287716
   8.2270831  43.0720329  24.6734738  28.1344506   5.4801969  60.1058635
  27.9707334   5.6313447  61.0367677  28.7504146   6.1689834  59.8560759
  80.9445477  23.8021827  69.1445589  81.5806293  24.0763545  69.8052120
  80.6386375  24.6201301  68.7526226   0.8216113  50.1087904  44.0547466
   0.2144927  50.2903223  43.3373308   1.3566035  50.8996964  44.1216993
  75.1078844  64.1521883  52.0396185  74.2083406  63.8251734  52.0503902
  75.0359201  65.0396252  51.6881800  47.7238274  39.6099639  13.9729202
  48.5456371  39.7550249  13.5040712  47.7757597  38.7021995  14.2720795
  84.7545719  20.6190276  35.6654739  84.8979855  19.8491025  35.1151299
  84.6670532  20.2672505  36.5513778  24.9539465  65.1141690  49.3930456
  25.4676337  65.8623575  49.6972915  24.2140765  65.5048131  48.9280483
  58.9153385  45.8915663  28.2998848  58.1270838  45.9673262  28.8376069
  59.1643286  46.7963171  28.1110573  78.4402657  44.8382759  66.0173512
  77.6179457  45.3266239  66.0565853  78.3492374  44.2774343  65.2470207
   5.0065631  48.5691881  53.5728931   5.7043666  49.1266584  53.9171791
   4.4914836  49.1490889  53.0119705   4.3133658  34.3265343  24.9709487
   5.2416629  34.1303420  24.8444915   4.2682856  34.7201371  25.8423138
  47.1965361  69.9791718  40.9832144  46.8531370  69.9250317  40.0913763
  47.3204136  69.0676785  41.2479162   3.9014503  18.2225853  31.6905737
   3.4174654  18.5500675  30.9324527   3.7435075  17.2785144  31.6860056
  74.4980764  23.3753228  28.8490343  75.2419519  23.9164281  28.5843062
  74.0140152  23.2202697  28.0379391  41.1704016   6.0267472  64.3659115
  40.5885649   5.9926432  63.6066103  41.9418287   6.5007997  64.0554285
  61.7283869  65.9226847  24.3224239  61.6013956  65.4689217  23.4892344
  62.4360275  66.5441275  24.1512847  10.0502795  45.9947300  54.7638893
  10.2619571  45.3158045  54.1231966   9.0942305  45.9901714  54.8106861
  16.4582464   7.6209407  32.4338269  15.7761547   8.1864410  32.0716214
  16.0765526   7.2706848  33.2387257  27.1217936  45.2492857  24.0802622
  26.2312621  45.4662848  24.3561101  27.2549838  45.7569313  23.2797694
   6.4199656  69.2661238  42.5929832   6.6413325  68.7561083  41.8138075
   6.5584201  70.1762533  42.3308182  65.6699944  51.8422556  50.7927418
  65.0872278  51.1875105  50.4081392  65.2885389  52.0279026  51.6507959
  77.8608847  73.6090899  35.4791164  77.5672531  73.0036688  34.7983241
  78.4550762  74.2080259  35.0269628  65.1144218  50.0157261  40.1717663
  64.5562887  50.7375050  39.8823643  65.3763008  50.2568579  41.0603046
  83.8382814  38.2387094  60.6957814  83.0845258  38.7609510  60.4212686
  83.5567376  37.8212814  61.5098569  72.3883677  51.2947989  39.8154378
  72.5809956  52.2300625  39.8818541  72.1702337  51.1600876  38.8932109
  67.6622250  20.8378750  27.4318624  66.8801573  21.1368423  27.8957796
  67.6624825  21.3380771  26.6157579  70.4839230  65.4543972  50.6367874
  71.1930561  64.9645090  51.0531712  70.2905941  64.9636364  49.8380327
  65.9517431  64.3142939  29.3430877  66.7579460  64.2934036  28.8275027
  65.5853462  63.4348583  29.2504525  84.9733448  52.2105122  29.6410394
  84.7720718  52.7431822  28.8716340  85.5595684  51.5284204  29.3134379
   8.1007454  12.2367912  22.8866816   7.6576683  12.9808670  23.2944345
   8.8430616  12.0548969  23.4629726  46.3606950  29.8308998  16.2424445
  46.3651106  30.7498985  15.9747744  45.5388853  29.7249561  16.7216492
  30.4728815   6.6458183  18.6934519  29.6191618   6.3059955  18.4252799
  31.0786554   5.9211403  18.5381889  16.8143150   5.1727634  65.0705147
  15.8934137   5.1572471  64.8098612  16.8769762   5.9038692  65.6851673
  58.7334490  68.0550051  27.3537374  59.6176052  67.7343225  27.5316691
  58.2328320  67.2687817  27.1358728  84.1278172  78.1361341   1.4721100
  83.3050728  77.6687098   1.6164716  84.8027897  77.4615097   1.5464236
  75.6451225  79.7554636  48.9155197  76.1727190  78.9572048  48.9410019
  74.9403286  79.5968866  49.5434904  70.7653713  58.3287382   4.9221733
  70.5531645  57.4833107   5.3177190  71.6132212  58.1896782   4.5002159
  63.2215500  76.9032240  39.9641728  63.1124973  77.4527693  40.7402754
  64.0734148  76.4838600  40.0854158  76.2476492  61.0741758  57.7394676
  76.8817472  60.4390907  58.0723524  76.7490101  61.6166830  57.1307373
  31.0481185  79.9758911  47.3316431  31.4443511  80.2704239  46.5115881
  31.7823905  79.9093485  47.9420900  31.4935037   4.3690067   0.4630783
  32.2871610   4.8855262   0.3232808  31.0095045   4.4463211  -0.3591106
  79.1057584  25.0391940  53.5304341  78.9479634  25.1886920  54.4626257
  78.3175752  25.3682212  53.0983087  21.1547395   2.6049667  60.3843069
  22.0458671   2.9438835  60.2991295  21.1718389   2.0855766  61.1881542
  18.0085296  52.6856947  28.9003491  18.6809081  52.6854420  29.5816278
  18.4966010  52.5936127  28.0820990   4.6266764  49.3272448  31.8969202
   4.1403121  49.7898626  31.2145257   4.0827102  49.4144344  32.6796937
  32.5270197  14.1291099  20.2122116  32.1324178  13.3264785  20.5532479
  33.1545564  13.8271957  19.5554972  45.9785291  23.4560352   0.8784134
  45.4308912  23.4461456   0.0934120  45.3645250  23.6077076   1.5969013
  54.4136477  65.9935713  15.1949239  53.6653519  66.5365410  14.9469829
  54.1385651  65.0995159  14.9918854  23.9161348  57.0716143  22.6948953
  24.3615365  57.9166412  22.6333737  23.0529785  57.2273588  22.3115754
   1.0013598  76.9426155  23.9759183   0.3964156  76.2881184  23.6267614
   1.7331809  76.9456196  23.3589482  82.6138306  44.6449280  20.8805728
  82.8872967  44.6671963  21.7976069  81.6623592  44.5468140  20.9166861
  19.6065160   8.6778980  39.6268034  19.5351955   7.7262455  39.5525742
  20.2587911   8.9211612  38.9698482  73.7633539  41.1928433  60.5986914
  73.4816528  40.6856980  59.8373231  73.5442853  42.0980956  60.3778747
  71.1811972  31.0148525  24.4067788  71.5383148  31.0927057  25.2914453
  70.5528355  30.2950954  24.4646239  10.4154295  35.6442715  58.6677381
  11.2324185  36.0861223  58.4363720  10.0658793  35.3342728  57.8323063
   5.7098502  16.1399162  29.5022464   5.7341117  17.0890558  29.6238089
   5.1458186  16.0104430  28.7397885  27.4728703  50.0895882  22.9821515
  28.0557013  50.7780457  23.3024025  27.4706864  49.4339991  23.6795974
  72.0820996  61.8868834  18.3818221  72.9875467  62.0684320  18.1299341
  71.5713021  62.5708598  17.9488218  27.5700641   5.7170862  28.0620623
  26.6664815   5.4085082  27.9946280  27.9599547   5.1694554  28.7434697
  74.1683412  63.9545415  55.9320328  74.1553236  63.0382107  55.6556222
  74.6240688  63.9443658  56.7737195  61.9679353  65.2588636   6.7322350
  61.7230222  64.3400235   6.6227698  61.5370748  65.7097287   6.0060722
  26.1101958  64.7135491   5.3364646  26.4264009  64.2053396   4.5894903
  25.1602742  64.7417278   5.2220964   8.0500073  34.1875003  59.8957261
   8.8770050  34.4775270  59.5107683   8.1919474  34.2463182  60.8405146
  66.2639428  48.7896143  58.4397885  65.5687833  49.3108808  58.0382058
  66.8228531  49.4320093  58.8770291  55.2080393  20.4941940  30.7365346
  55.9179974  19.9900508  31.1340690  54.7680664  19.8723233  30.1569366
  84.8113466  62.2170256  49.5155236  85.5324054  61.5965985  49.4088790
  84.8913455  62.5243066  50.4185244  77.8338865  70.6789739  21.9448948
  78.5933593  70.0977964  21.9040656  77.4709657  70.5377609  22.8192973
  47.0650718  67.2509903  41.3886881  46.9820735  66.9448513  40.4855728
  47.9919192  67.1337253  41.5971136  34.6418092  62.9802782  13.3938110
  34.4747016  62.9018039  14.3330383  35.0050256  62.1308178  13.1433666
  49.6431205  69.2476005   1.2191968  50.0560043  70.0965351   1.0608621
  49.6109006  69.1710693   2.1727882  32.9285526   8.3700967  30.7873487
  33.0250692   8.8157022  29.9457121  33.2847023   8.9866853  31.4270425
  21.1676213  70.0744707  23.3979225  21.4626691  69.7715670  24.2566586
  20.9844920  71.0057134  23.5223484  33.4847212  25.3805780  30.6744170
  32.6055956  25.7493162  30.5883813  33.4411240  24.8387146  31.4622712
  47.3148823  20.9708214   2.7179497  47.4294043  20.8557248   3.6612785
  46.3710880  20.8909225   2.5797448  75.8346796  27.6567769  32.7873230
  75.8977270  28.2927155  33.4999514  75.5226898  26.8556428  33.2081342
  84.9382496  21.7694044  49.1485882  84.8317146  21.0543466  49.7759438
  84.1093636  21.7940784  48.6705065  85.7310009  14.3610001  41.4807987
  85.1683331  13.7151885  41.0535192  86.5083504  14.4069993  40.9241724
  39.3343112  75.6591082  13.0914986  38.6051652  75.5105383  12.4894178
  38.9461705  76.1370537  13.8244009  30.4325483  70.0533528  38.0502415
  31.0439346  70.5648453  38.5801601  29.7140071  69.8452920  38.6474395
  32.2543425  24.5273827  69.1530178  31.3563055  24.3481587  69.4316553
  32.1924490  25.3425191  68.6550677   8.5325930  54.0813035   1.8191504
   7.8363630  54.6969003   1.5899444   8.1422898  53.2176084   1.6852702
  15.1384828  77.5987807  30.6434655  14.6383903  76.7942834  30.7810283
  14.9047086  78.1560094  31.3858128  25.3044173  68.5624725  16.4587796
  26.1742828  68.4027047  16.8248940  25.1182124  67.7832682  15.9349453
  54.8969555   4.0901831   6.9954759  54.5023012   4.8655722   6.5964133
  55.0200844   3.4820578   6.2666035  21.6773552  66.8107031  66.4490279
  21.5081591  65.8702324  66.5048924  21.9207377  67.0635890  67.3395586
  23.7150571  76.5387068   8.8580245  24.5126006  76.0257307   8.7275982
  23.0293605  76.0294086   8.4259689  70.9148645   7.9758042   9.4802630
  70.7501268   8.9074153   9.6258438  71.5702534   7.9545766   8.7829471
  62.6877666  27.1750449  59.8080179  63.4974432  27.6599155  59.6481463
  62.9206920  26.5350185  60.4805842  51.6172981   9.2247701  65.6472445
  50.7100630   9.3718004  65.3797770  52.1254301   9.3402207  64.8443079
  36.7215011  65.5030209  22.2863722  37.3087642  66.2581796  22.3193884
  36.5204379  65.3156990  23.2032800  41.0182807  75.3420580   4.4678816
  40.3881356  75.8586360   3.9655930  41.8727061  75.6178594   4.1360390
  42.8608653  80.3675588   3.0438089  43.4331844  79.6631563   3.3479488
  42.6980493  80.8976203   3.8240379  47.4616623   0.4305199  11.9891131
  47.3620558   1.0936419  12.6721787  46.7155218  -0.1559186  12.1139908
  35.6352803  75.0885237  33.0073571  36.1251304  74.9781794  32.1924329
  35.6407401  76.0327858  33.1641078  52.5564859  79.3031435   4.8447040
  53.4918687  79.1018591   4.8170182  52.1496961  78.5052929   5.1826292
  61.3661671  25.2795410  43.1823683  61.7120409  25.2255774  42.2914743
  60.5661774  24.7543859  43.1609392  71.8083572   4.4357952  12.3622859
  71.0809994   4.9155200  11.9659996  71.8833208   3.6384615  11.8380034
  64.5941067  12.2086942  30.5079198  64.0806150  11.4530003  30.2224612
  65.0830889  11.8927908  31.2677455  78.4585619  38.4696651   0.2216667
  77.8136444  39.0736842  -0.1464017  77.9654217  37.9508162   0.8571503
   2.7826399  41.6350842  67.1032080   3.1544489  41.8482652  67.9590964
   1.9218964  41.2660803  67.3011711  18.4960002  25.9087372   4.9615157
  17.8480262  25.6122446   4.3224138  18.0468100  25.8466125   5.8044869
   0.7541579  10.3783000  38.9444447   0.5065078  10.8241045  38.1344080
   0.1465243  10.7191455  39.6008229  37.4359131  19.9402928  25.6342173
  37.2923708  20.3899145  24.8014688  36.5564895  19.7251153  25.9449315
  20.0874132  31.0005628  57.1366569  20.4913468  30.9578006  56.2699160
  20.4239125  30.2311157  57.5959501  36.0366631   2.7320057  34.1982508
  36.4165711   3.5781553  33.9617491  36.7875910   2.1419430  34.2627859
  46.0093352  78.5050288  48.3999205  46.7608020  78.0728290  47.9940510
  45.7583234  79.1855692  47.7753448  57.2896910  25.9559035  45.9242296
  58.1266069  25.6282163  46.2535000  57.4708509  26.8599844  45.6672287
  23.9149186  78.0179948  15.4509974  23.3716008  77.7769754  16.2012970
  23.6569640  78.9170264  15.2474439  58.6823559  49.1469479  42.2183466
  58.1156397  48.5435152  42.6988983  59.2444229  48.5791636  41.6911459
  75.8672166  12.6511906  60.1504508  75.0277019  12.2023343  60.2503374
  76.1248899  12.4785064  59.2449018  64.1788385  63.2427604  50.3306770
  63.6305902  62.5774438  49.9147272  64.6856782  63.6194248  49.6113253
  51.2960243   8.2214761  47.2557402  51.0076284   8.8423818  46.5867615
  50.8852291   8.5311413  48.0629492  25.1480383  30.2888809  68.6703989
  25.0177855  31.1493628  69.0689441  24.3947977  30.1770531  68.0904305
  73.0058000  80.4423074  18.7954342  73.4348390  80.4718139  19.6505880
  72.2716996  81.0514465  18.8746285  77.1453548  72.4260186  70.0354465
  77.3667789  71.6966795  70.6144697  76.9527126  72.0134376  69.1934852
  60.7186982  58.5281367  21.4085484  60.4456136  59.4358558  21.5415955
  60.4624173  58.0802984  22.2147703  63.1649876   6.1105329  31.9284248
  63.5995913   5.7001466  32.6760459  62.5421524   5.4514188  31.6220331
  49.2142293  72.4896938  20.7822371  48.3955762  72.1641094  20.4080319
  49.5167873  71.7807729  21.3497949  64.3921373  35.4534001   0.3046264
  63.4667203  35.2107519   0.2736512  64.8475263  34.6357865   0.5055369
  49.9553487  76.8751160  42.5685501  50.0796935  76.1252159  43.1502867
  50.8048103  77.3162461  42.5615263  84.1898227  31.2530373  66.3850605
  83.4568811  31.7820881  66.6999158  84.9235225  31.5015249  66.9473454
  50.1384875  68.1537706  27.5550890  50.1625249  68.8399095  26.8881059
  49.5830962  67.4718375  27.1772838  62.0064256  71.1757333  28.2542872
  62.0849893  70.3697581  27.7439332  61.7793653  71.8461049  27.6098680
   3.2310790  33.3609629  17.6247787   2.7085131  33.5682774  16.8500698
   4.1370124  33.3883810  17.3169589  64.0631581   3.5475992  45.1874158
  64.7396279   3.9484547  44.6415827  63.6734033   4.2811225  45.6630918
  59.3575758  72.9608892  62.6617893  58.7262434  72.9225396  63.3802500
  60.1877016  72.6960825  63.0580100  48.2485056   5.3087181  32.9646230
  48.1484413   5.9623277  32.2725153  49.1660118   5.3778529  33.2285094
  72.0909402  69.4978196  17.9968429  72.7965638  69.9900085  18.4164619
  72.3487947  69.4470543  17.0764279  58.5894537  15.6326115  50.2141333
  57.8484821  16.0071743  49.7378016  58.5695791  16.0661638  51.0672855
  78.2739067  31.6088104  28.4208465  77.9351521  32.2553277  29.0401149
  78.2041693  32.0356083  27.5669074  70.4767036  26.3405585  21.2393284
  69.9247599  26.9058228  20.6989002  70.6712484  25.5892563  20.6790328
  34.3216825  23.4053707  49.6850872  34.8207998  22.6369715  49.9619961
  34.6937132  24.1277266  50.1910782  56.2650013  47.6270199  32.7596235
  56.4079714  46.6865778  32.8662014  56.5514708  47.8130102  31.8654346
   0.9099144  34.1749387  61.1466220   0.0837178  34.6370910  61.0050288
   0.7712788  33.3116709  60.7570299  56.3369751  38.3011293  56.5636349
  56.6088152  38.7067270  57.3869371  55.6599188  37.6740003  56.8176794
  75.4613233  70.5334519  64.3601558  75.7690073  70.9061407  63.5339209
  74.9629617  71.2400387  64.7707680  70.5323601   8.2855761  24.0250468
  70.5807209   8.3377552  24.9795985  70.1682711   7.4176502  23.8507581
  74.7040558  10.2700460  24.8354506  73.8066435  10.5456007  25.0224113
  74.7140646   9.3342471  25.0364804  80.0081539   7.3387557   9.2220354
  80.6775951   7.4759030   9.8923111  79.4227123   6.6820067   9.5990896
  15.9585232  65.7620524  65.5163667  15.9220261  64.9884580  66.0789066
  15.2137560  65.6623577  64.9233970  24.6862125  39.3327260   2.3688160
  23.8637424  39.3089151   1.8797305  24.9628162  38.4176302   2.4169752
  19.1187686  34.9963236  19.4169295  19.4052810  34.1007900  19.5962763
  19.2358416  35.1006746  18.4726644   7.2561831  50.6660484  59.2132267
   7.0848650  51.5340458  59.5785507   7.2561926  50.0825600  59.9720237
  57.2016430   5.6180710  24.9499154  57.3035669   5.4792577  25.8914948
  58.0407810   5.9833306  24.6694422  78.8758230  22.9728794  49.4056606
  78.9533806  22.5927711  50.2807236  78.7546539  23.9095402  49.5612717
  81.6932201   7.5713021  11.4685917  81.8573761   8.2866418  12.0830631
  81.0904789   6.9903857  11.9327831  10.5051631  28.5456896  16.5473938
  10.6199950  28.8829017  15.6589484  10.9483641  27.6973033  16.5407181
  50.7033968   5.5812830  25.5352950  50.9318781   6.0055637  26.3623476
  49.7979593   5.2948540  25.6551671  66.1766911   9.3063170  22.3023605
  67.0816374   9.5809108  22.4503422  65.9526205   9.6712005  21.4462733
  46.2023399  80.3065087  34.9913096  46.0593173  79.9493784  35.8678007
  46.9345710  80.9139313  35.0967240  64.3030739  10.0141108   2.7106652
  64.7585249   9.2348981   2.3918831  64.7595024  10.7453632   2.2945225
  25.7585520  61.2706851  63.7159237  25.7426638  60.3323387  63.5275450
  25.1973719  61.6592358  63.0448481  34.2092061   0.8739559  11.3704491
  34.4020677   1.6824234  10.8956683  34.5397735   1.0309458  12.2549331
  62.2914743  28.8353920  13.7137091  61.4820910  29.2232609  14.0463984
  62.8786564  29.5802498  13.5847211  81.6885353  74.9548029  48.8357207
  82.5581575  74.7100376  48.5193726  81.1366201  74.9411939  48.0537769
  74.5544240  49.8117179   4.4283673  74.2499921  50.6647677   4.7379720
  75.2994344  49.6041459   4.9923724  22.2977179  41.6729355  46.3331413
  23.0820960  41.4014053  46.8098450  22.4727076  41.4276791  45.4245901
  56.4774370  24.0870523  15.0426567  55.5280733  24.1755295  14.9583066
  56.7511129  24.8769307  15.5089474  67.1231747   1.9947039   8.7986469
  66.6160488   2.2015385   8.0136156  66.4719009   1.9452991   9.4983876
  60.9831810  24.3024755  24.2741823  61.0516453  25.1968479  23.9400554
  60.3175163  24.3533587  24.9601364  46.5915963  77.6617689  20.8783531
  46.8565700  76.8233336  20.5001402  46.2798927  78.1734416  20.1318526
  30.6746764  58.9236389  69.7956437  31.5705103  59.0514098  69.4835970
  30.1653761  58.7610410  69.0016575  59.9297142  12.9091454  34.0379214
  60.1595163  13.8383341  34.0323853  59.0926838  12.8721821  34.5007920
  80.0246429  31.8573642  54.7729349  80.5071735  31.4088941  54.0784740
  80.3901196  31.5051222  55.5844688   8.5843510  34.9172823  67.6236312
   8.3583969  35.8319499  67.7926227   8.3664221  34.4624828  68.4372008
  58.4244585  38.5536003  21.6935420  57.8656864  38.9277434  21.0123515
  57.8798437  37.8855872  22.1099353   5.0552577  48.4142017  40.9161615
   5.5197448  49.1282558  41.3527393   5.5480975  48.2659817  40.1090908
  35.7350659  18.9627945  15.7539403  36.4246869  18.3049536  15.8428204
  36.1706352  19.7133291  15.3499484  22.5815407  37.0499319   9.3996626
  22.8103271  36.6362519  10.2319801  23.3204189  37.6275391   9.2081934
  44.4606829   9.3737680   9.0517515  44.6926355  10.2920794   9.1900665
  44.7650862   8.9281505   9.8423183   6.4289206  25.4859161  -0.0747835
   7.0054549  25.8439851   0.6002151   6.1228293  24.6546793   0.2879636
  82.7732754  32.3691320  16.6953838  82.3898411  31.5194726  16.9128478
  82.8942776  32.3414350  15.7462656  50.7171202  54.8615217  24.5852518
  51.1697817  55.5727386  24.1319370  50.2170563  54.4199371  23.8988352
  85.4534912  50.2066183   8.6399531  84.7070980  50.8029652   8.6990088
  85.7699299  50.1290989   9.5400047  77.0987749  46.7577887  30.4150343
  76.8087292  47.5931692  30.0486422  76.5855169  46.6567326  31.2166524
  83.6719322  58.9091396  37.8474426  84.4986153  59.1771030  38.2487178
  83.7682533  57.9672623  37.7066445  26.2202069  33.1675414  57.8293964
  25.9232804  33.6018399  57.0297369  27.1522329  33.3785085  57.8845963
  30.7978106  17.2004724  37.8510857  30.5807042  17.9652464  38.3842087
  30.7326269  16.4609706  38.4553385  19.0261263  61.0140775  63.3202389
  19.3018860  61.3740991  64.1631940  19.8442978  60.7974337  62.8731415
  40.7127380   6.0411191   4.1041717  39.8031974   5.8216417   3.9021796
  40.7591009   6.0140061   5.0598639   5.9188980  59.3938659  61.6110012
   5.8466763  58.5818623  62.1126643   5.3568119  59.2552541  60.8487174
  62.8893757   1.7040712   6.8584782  62.6432896   1.4907329   7.7585667
  62.0677614   1.9612242   6.4400864  74.7742701  24.3788934  46.9563627
  75.4989815  24.0325713  47.4770164  74.0441084  24.4390631  47.5723791
  59.5038700  25.1839232   9.2509168  59.4808149  24.2285180   9.1970634
  60.1788473  25.4429579   8.6235899  82.0417333  70.2645205  66.6618058
  81.4227129  69.8244141  66.0792670  81.5528656  70.3982447  67.4738151
  43.1898069  27.1764517  13.7569094  44.0631104  26.7899513  13.8216209
  43.1663656  27.5706649  12.8849709  22.1968219  69.7130269  26.0291672
  22.5366208  70.5160732  26.4239907  21.8830154  69.1956670  26.7708516
  80.1947784  15.7003570   9.9730909  80.6824398  14.8950553   9.8001647
  79.2834616  15.4171836  10.0475895  66.2032557   2.2530879  27.9070163
  65.5068207   2.8833270  27.7226043  66.1163950   2.0668903  28.8419056
  80.6333923  48.1218052   3.8370830  81.3621521  48.4102964   4.3865415
  80.0144196  48.8516617   3.8575771  82.2199535   8.5662770   7.7462292
  81.4700890   8.1663990   8.1867301  82.1525097   8.2671887   6.8394607
  13.9353511  76.6172982   1.0937015  14.0684697  75.8786679   1.6877857
  14.5141217  77.3018832   1.4292575  12.0664260  75.8114613  17.9983664
  11.4530751  76.5302423  17.8454578  12.4463985  75.9993145  18.8566005
  18.8864369  25.4542218  57.5715360  19.7228760  25.8155368  57.2781894
  18.6509556  24.8171972  56.8970129  34.8186583  36.1886667  66.7274621
  34.1209406  36.3337232  66.0884193  34.7830767  36.9555728  67.2991449
  84.3502620  63.3954508  24.9446011  84.0560010  63.7650198  24.1121006
  84.4878581  64.1561670  25.5090570  73.5153580  28.6857700   9.8482949
  74.2400122  29.1055036   9.3846899  73.7575817  27.7603984   9.8836267
  51.4181471   7.0574474  23.4104204  52.3200560   6.7664874  23.2757521
  51.1086988   6.5415698  24.1549635   2.1284026  15.9094298  42.7108431
   1.2431640  15.8837080  42.3476219   2.5950736  16.5380704  42.1601534
  81.8771458  22.7128601  25.0313807  81.5860271  23.1568885  25.8278251
  81.1154079  22.7359939  24.4522023  53.4720609  76.8360991  17.8896630
  53.8759992  76.6592298  17.0400882  52.5696275  77.0769781  17.6802933
  38.7722442  67.1153039  25.8171129  38.4894035  67.2170264  26.7258954
  38.3192060  67.8143448  25.3455949  28.4798953  78.5855748  28.1697869
  28.5087964  78.3841113  27.2344756  29.3402192  78.9590674  28.3610368
  65.3452063  34.7901487  18.9625371  64.4860649  35.1486874  18.7399101
  65.1658249  33.8904309  19.2355955  37.0679474  31.3660407  15.1832783
  36.9881439  31.0128927  14.2971909  37.8702974  31.8875837  15.1618934
  78.9896322  58.0975555  66.0499015  79.7895885  57.5771318  65.9760043
  78.5409618  57.9670416  65.2145016  50.8971930   4.4739968   1.5139319
  50.4917955   5.3303826   1.3779509  50.2621269   3.8498825   1.1626455
  46.3946962  11.5016294  39.7213364  46.0370445  12.2584081  40.1856661
  46.7490864  10.9421408  40.4124355  45.8659649  12.2477329  12.2935760
  45.6778526  12.5895405  13.1676555  46.7832136  11.9771576  12.3344970
  56.0726070  19.6925628  17.6447177  56.0693693  20.6477165  17.5822449
  56.8392229  19.4220841  17.1393681  79.3263435  20.9973001  23.9375448
  78.9489079  21.7551756  23.4910035  79.5564318  20.3933597  23.2314658
  82.9449272  12.7988732  38.3240557  82.7297211  13.6685407  38.6610985
  82.1447659  12.5063705  37.8876805  83.8108349  10.8562684  11.0485065
  83.8891697  11.6705203  11.5455866  83.3727360  11.1123312  10.2368808
   7.3540324  12.9773259   9.4160563   6.8907946  12.1725321   9.6483129
   6.6589755  13.6111033   9.2387283   9.9430579   2.7694091  13.5841000
  10.1514453   2.9147297  14.5069706   9.4987792   3.5716155  13.3096766
  53.8139772  12.0360804  37.0796490  54.3559361  12.8249848  37.0914626
  54.0194368  11.6168427  36.2440300   3.3614868  30.5116819  60.9297833
   2.5222773  30.5866651  61.3840344   3.4868330  29.5700513  60.8120897
  52.8149030   9.1033725  50.5145308  52.9906652  10.0442819  50.5090675
  52.0447919   9.0068225  51.0747465  51.0308215  76.7655206   6.9636685
  51.7709634  77.2782991   7.2884524  51.4160440  75.9303314   6.6985357
  53.6452005  79.2422434  19.1786230  52.8857038  79.3241507  19.7554171
  53.4519097  78.4784008  18.6351025  56.9199038   3.5305965  30.2297926
  56.7827177   2.5971252  30.3911662  56.4407444   3.9682573  30.9334183
  27.5309181   1.3162020  20.1212525  27.1174765   1.8300149  19.4274986
  27.9786992   1.9643870  20.6649256  42.5442934   4.6695000  24.9294329
  42.2824860   5.5391866  24.6272182  42.6022005   4.1456541  24.1303921
  61.6680050   7.1257490  25.0576949  61.1856318   7.8312081  25.4888296
  61.5356827   7.2817582  24.1226101  64.9094582   5.1623321  34.2046881
  65.5354023   5.7158613  33.7377453  65.0241375   5.3955996  35.1259208
  24.2027110  42.5164366  25.2764821  23.5148925  42.8833294  25.8319306
  23.8415831  42.5553131  24.3908691   4.0499038  35.3020668  27.5062394
   3.2629794  34.9476099  27.9201746   4.7728938  34.9503374  28.0256605
  53.7742662   9.4351959  33.0069900  52.9780769   9.1253531  33.4386253
  53.8943768   8.8379508  32.2686791  68.4061432  38.6147523  21.8706155
  69.1448927  38.1893444  22.3059392  68.7407732  38.8489175  21.0049248
  34.8683357   4.0869293  21.3047528  35.0386381   4.8356074  20.7331681
  34.8799658   3.3304197  20.7184148  81.8846226  50.0914812   9.0665770
  82.2681713  50.9566593   8.9231044  80.9544754  50.2066040   8.8721228
  40.4128596  77.5273517  43.7877417  41.0651395  78.1956405  43.5776043
  39.6021030  77.8525824  43.3964300  75.5256414   5.6960255  22.0296407
  75.5666971   5.7218260  21.0736704  74.5895481   5.6788743  22.2287965
  30.8997178  17.1426511  31.5799356  30.0223398  17.1675098  31.9617963
  30.7849431  17.4852502  30.6935453  73.9194584  26.9584680  37.1365070
  73.9904833  27.9099441  37.0598245  73.7019396  26.8078899  38.0564213
  67.5270176  10.6186056   4.2865741  66.6862392  10.6774628   4.7402897
  67.5142574   9.7572011   3.8693786  84.8404598  21.3133407  31.8066859
  84.6198559  20.3850794  31.7298770  84.3386078  21.7371917  31.1104584
  10.9492034  29.2657781  21.5753245  10.9647864  30.1880884  21.8309236
  10.4225081  29.2475438  20.7762671   0.5389994  20.5366850  14.7580528
   0.6924647  20.4135966  13.8212872   1.4027900  20.4347396  15.1576900
  79.1921997  15.0079679  18.1411862  78.3341742  15.4321551  18.1508887
  79.3244553  14.7144008  19.0426064   0.3409690  18.4693372  26.3510156
  -0.3409177  18.7677324  26.9528747   0.9521598  19.2041063  26.2982631
  37.6744342  57.3021317  25.3150463  37.4767542  57.1925497  26.2451792
  37.4374938  56.4633560  24.9193883  46.5252733  58.2374573  26.8873143
  46.9571066  58.7746096  26.2230730  46.0931492  58.8690519  27.4622822
  57.6712179  53.3059692  16.4441991  57.0844841  53.7129831  15.8067667
  57.1612263  52.5846100  16.8126857  25.0752634  71.6336416  63.7538943
  24.6757693  71.8137525  62.9028979  24.6147627  72.2120093  64.3618885
  12.2996444   2.4474382  26.9506979  11.4422721   2.8729111  26.9396996
  12.1404857   1.5985474  27.3633528  60.8191586  18.7652695  16.7644536
  60.9917498  19.7062409  16.7325342  60.6786346  18.5788906  17.6927578
  21.2155551   4.2046869  12.2083247  20.6605262   3.4313866  12.3092020
  21.8594378   3.9526656  11.5464079  79.0240812   7.6846242  22.6509261
  78.3078289   8.2300586  22.9760647  78.6983681   6.7882097  22.7320647
   3.7277621  53.7508488  40.1321077   4.2766684  53.1955099  40.6857586
   3.8199443  53.3798885  39.2545390  53.3162546  24.8505259  11.4066565
  54.1866112  24.7961211  11.8013096  52.9744530  23.9578223  11.4564872
  78.3043385  47.6851416  27.5652671  77.8154087  48.4181213  27.9393291
  77.6319313  47.1108866  27.1987486  12.2396869  57.6726389   5.1784849
  13.1923312  57.7053308   5.2657533  11.9136542  57.7732372   6.0728085
  15.8845538  52.9526377  31.9897223  15.3990764  53.1001616  32.8013754
  15.3060263  52.4029732  31.4611316  13.4694594  14.6662891  11.4063728
  14.3349952  14.5883405  11.8076134  13.2488555  15.5938625  11.4910686
   4.4471949   7.4199581   2.8261060   3.7945288   7.0817792   3.4392014
   4.4392699   6.7965025   2.0998329  83.4235668  63.4412432   5.9006858
  83.9393997  63.8703823   6.5833223  83.8578987  63.6851406   5.0833130
  51.8143463  41.6489267  12.6304924  51.2833214  40.8583117  12.7262437
  52.6257372  41.4505386  13.0979526  45.1341197  52.9685635  16.1318028
  45.3818366  52.0827455  16.3967502  45.2319286  53.4925312  16.9268632
  79.0592382  63.3303029  36.9210672  78.8806150  62.3988420  37.0503235
  79.2606446  63.6593694  37.7970695  85.7179260  38.6071324  10.5565369
  86.1255550  37.7849126  10.2844703  85.2461338  38.9089227   9.7802830
  84.8269653  52.2588444  46.6500807  84.3645477  51.6275835  47.2013569
  85.2365971  52.8628445  47.2694492  71.8705511  21.6518998  29.4538236
  71.5900898  22.1205807  28.6677480  71.9420815  20.7388353  29.1755605
  46.3706684  69.0933609  25.1784635  46.3278770  69.9550200  24.7638035
  47.3008537  68.9618015  25.3619814  37.7598140  77.3173208  28.5761738
  38.6335942  76.9391773  28.4774661  37.3339698  76.7678419  29.2341733
  56.8088293  35.8602929  16.1238277  56.4522076  35.1481605  15.5928648
  57.7580357  35.7680345  16.0418129   1.5171737  12.5192380   3.5829180
   2.0567149  13.1516385   3.1083733   2.1323794  11.8409467   3.8615972
  35.2907080  76.0307263  68.4504376  34.3582911  76.1685012  68.6172944
  35.7252402  76.3493846  69.2415568  63.7067223   5.6868947   6.1034864
  63.7195539   5.3742498   5.1988757  63.3958244   6.5899950   6.0403889
  85.1368881  63.6160587  68.0870560  84.5384098  62.9296325  68.3818084
  84.7976089  64.4172214  68.4861281  61.7532682  22.2865725  32.6586723
  61.2597513  22.8197980  32.0354986  61.9991112  22.8967595  33.3539867
  43.8828373  34.7434831  16.5186715  43.7864208  35.6740165  16.7212629
  44.2693233  34.3652034  17.3084605   9.9084204  17.6148248  39.9867582
  10.0403666  16.6858375  39.7975373  10.6327510  17.8460515  40.5682325
   3.7231082  50.8079910  29.8460460   3.0918235  51.4334917  30.2016640
   4.3339557  51.3449335  29.3412805  62.7742004  68.5929871  36.5966558
  62.1738100  68.6283827  35.8520031  63.2072735  69.4466114  36.5959311
  50.6127739  27.9714394  10.3365862  50.1362705  27.3741722  10.9131742
  51.3333893  27.4454999   9.9896991  55.9283590   8.2698208  22.1057129
  56.8785334   8.3241332  22.2079754  55.5808926   8.8467598  22.7858877
  10.8984298  68.1946802   3.5981441  11.2045974  68.9799500   3.1444398
  11.5503329  67.5264215   3.3867431   2.6151223  43.4771352  60.2954540
   3.2520050  43.4747572  59.5808884   3.1390375  43.6250930  61.0827610
  83.0604649  38.1212449   0.1799188  82.2004223  38.3290339  -0.1852804
  82.8773785  37.5020981   0.8865797  17.5956458  15.1291180  26.8498969
  18.0278510  14.9623406  27.6875186  16.6620749  15.0349474  27.0391631
  24.8939055  18.2409370  25.0897217  25.5930156  17.6156640  25.2807999
  24.9532908  18.3854032  24.1453528  61.9094563  42.0574665  26.2307262
  61.6469622  41.5420341  26.9933939  62.8660583  42.0243263  26.2369704
  48.1007287  -0.0063964  69.4453534  48.8670299   0.1290731  68.8879812
  47.3762414   0.3821353  68.9550540   8.3089656  62.3263741   5.7193875
   8.1214351  62.0476055   6.6156870   7.7425402  61.7795181   5.1750088
  69.9956989  35.3471041  35.0755143  69.0616798  35.5528307  35.0365233
  70.1903152  35.2936149  36.0111952  18.7452430  31.1251545  29.1031575
  18.8610095  31.3593483  30.0240159  19.3913478  30.4361176  28.9482045
  59.7510907  38.6299876  68.3154845  60.1546476  39.4379119  68.6327232
  59.0915677  38.9226274  67.6864999  84.5138836  18.8639641  16.0484457
  85.2040100  19.4852507  15.8161354  83.9510822  18.8308656  15.2748895
  19.6228308  58.9869236  68.2422179  19.5096249  58.5765730  67.3848799
  18.7942023  58.8290201  68.6946213  53.6098003  54.5668745  26.4395046
  53.5608625  55.5217075  26.3933301  54.3364859  54.3360329  25.8608222
  42.8233165  66.1233330   1.3635893  43.4599322  66.8320656   1.2705560
  42.6855391  66.0475540   2.3077856   2.0266146  30.9663145  49.5237252
   1.4846415  30.5478709  50.1926038   1.8965859  31.9044338  49.6624896
  67.6740742  32.8226900  37.9135489  67.0912600  32.1484113  37.5644016
  67.2005796  33.6431432  37.7760887  30.0973174  21.1140041  60.7918444
  30.5011270  21.8995837  61.1606738  30.8364722  20.5677060  60.5245730
  78.7991381  19.7342563  15.4062581  79.1680956  19.1546595  14.7397971
  77.8670168  19.5172274  15.4229665  84.7682310  74.7335719  67.3214471
  84.5701814  75.2970289  68.0694604  83.9720321  74.2181634  67.1923944
  67.9691410  12.1110475  23.6518979  67.6639414  11.9497395  24.5446825
  68.2185316  11.2469459  23.3242345  78.7445593  37.8113747  26.4583874
  79.1338921  37.1174622  26.9904947  79.4927979  38.3107615  26.1313033
  75.2981043  47.4046803  20.0721192  75.3166246  47.4559736  21.0277653
  75.0984764  48.2967424  19.7882080   5.6700057  21.0462999  24.8449922
   5.3997725  20.2146578  25.2343202   4.9409980  21.6411662  25.0208163
  73.9494893  11.0906772  67.8906400  74.4250867  10.4627828  67.3467788
  73.0298993  10.8434133  67.7934793  70.8557222  55.5269141   5.8455110
  70.8703897  54.5774454   5.9660387  70.4973409  55.8669180   6.6653836
  26.4954966  26.9862390  17.9268432  26.3267440  26.0518050  18.0476236
  26.8808669  27.0490265  17.0528984  68.2889891  20.2557015  16.2359822
  67.4001455  20.0381660  16.5168202  68.1945324  20.5107331  15.3182304
   4.9744243  38.1194568   9.6267200   5.0353164  38.9565015  10.0870228
   5.8711451  37.9334497   9.3482906   9.8362082   3.0582073  16.5169787
   9.8417205   3.9467311  16.8729663   9.8130530   2.4914227  17.2879863
   9.8995799  42.9080772  11.0590661  10.4405993  42.1578741  11.3054883
  10.2578944  43.6379766  11.5641308  84.7845364   1.2905081  18.6147261
  84.2227364   1.5967038  17.9027867  84.1969204   1.2106753  19.3661058
  70.3075027  14.3144333  19.2075622  70.2426958  14.7738230  20.0448155
  69.5031261  14.5471168  18.7438047  77.3102999  11.0437799  13.1713462
  77.8574944  10.2589071  13.1434011  76.4139795  10.7130873  13.1122947
   7.0027560  32.4375701  26.9448066   7.0005149  31.7826962  27.6429224
   7.9190844  32.4962330  26.6743708  17.5558159  72.6811906  19.6437100
  16.9596121  72.2398849  19.0387085  17.0674774  72.7341409  20.4652622
  58.3977079  75.9242010  13.0915880  58.6283779  75.0092506  13.2524741
  59.2091799  76.4069748  13.2486653  16.9260306  79.3000625  67.7429658
  17.5521845  79.8068403  67.2259194  17.4648232  78.8348816  68.3829190
  80.4181957  39.0991259  32.3165250  79.8422670  38.4668803  31.8866396
  79.8239851  39.7546220  32.6818585  63.0520436  80.5948326   1.3247177
  63.1607816  79.6572662   1.4840232  62.3735139  80.8657434   1.9431257
  71.6871881  26.4491367  29.8875976  71.2246656  26.1894536  29.0908098
  72.5785017  26.6402984  29.5956302   1.7721289  37.3396921   2.8381774
   2.3751944  38.0475330   2.6112387   0.9144229  37.6553249   2.5536406
  77.7326584  14.7784746  47.9366302  77.8470278  15.1343584  47.0554399
  78.3614683  15.2609921  48.4732914   9.5988959  26.0201335   4.7155273
   8.7825316  25.8619213   5.1896095  10.0859660  26.6268229   5.2731317
  67.2335908  20.9385995  55.1376221  66.8556306  21.6940002  55.5879018
  66.7539689  20.8879785  54.3108007  84.9074173  11.4218223  34.6834254
  84.9590778  11.6344607  35.6152773  83.9706135  11.4315617  34.4871092
  77.6744843  38.0659080  34.8036528  77.0432615  38.0624342  34.0840840
  78.1712580  38.8750958  34.6825743  54.5166111  62.9598618  36.0907054
  54.3450975  62.7285242  35.1778531  55.2592611  62.4105167  36.3415360
  66.3603974  79.3564580  39.1167638  66.8897439  78.6148714  39.4101450
  66.8147445  80.1257824  39.4601867  59.7812939  57.8410816  15.0146735
  60.7178259  57.9251671  14.8355794  59.7374725  57.3494673  15.8348107
  69.1388441  78.9375995  56.1017343  68.6102581  78.2706712  56.5399501
  68.9516187  79.7447012  56.5810713  60.1577753  75.0477789  66.1167124
  61.1049837  74.9348544  66.1959618  59.8445505  75.0848602  67.0204508
  77.7865982  50.4440641  24.1514897  78.4807062  49.9209833  24.5525289
  76.9816303  50.1298904  24.5632553  45.2347183  18.5766602  58.3397484
  44.9707460  19.4636607  58.0952454  44.9772072  18.4946716  59.2580032
  65.4341078  13.9067733  33.2517529  65.7245731  14.7394145  32.8795004
  65.1130867  14.1336095  34.1245174  67.7949047  28.6235857  40.2959394
  67.3057604  27.8282404  40.0852394  67.9389143  28.5729408  41.2408876
  61.8569326  12.1692336  14.7367227  61.0294294  11.8886018  14.3459356
  62.5233507  11.6537559  14.2824066  26.6325206  42.1749306  33.3301067
  27.5159472  42.1440506  33.6973023  26.0756511  42.4270535  34.0667009
  38.2216448  76.7278455  62.5193366  37.4610800  76.3739441  62.9803553
  38.8733668  76.0279583  62.5599387  20.1319331  41.6602898  30.4570508
  20.8517951  41.5360022  29.8385167  19.9976176  40.7956553  30.8451295
  61.9179630  28.0734062   2.0830663  61.2132883  27.4386358   2.2124082
  62.0594788  28.0845928   1.1364510  74.6452806   5.6435565  66.6360944
  74.3668840   5.6522350  65.7203153  74.3277166   6.4739398  66.9908497
  16.5902633   9.3508220  14.9580121  17.0569533   8.5168320  14.9041760
  16.4503878   9.6063048  14.0462041   2.4540538  30.9122610  10.5316293
   3.2625693  31.4145970  10.6325722   2.3688048  30.4280472  11.3529098
  81.9985199  21.6209245  19.7939861  82.6906681  21.3116717  19.2095745
  81.3477898  22.0099998  19.2096996  33.1876273  63.7614010  62.7436462
  33.4737200  62.8794001  62.5060436  33.4303183  64.3024729  61.9922665
  14.3172116  67.0751165  55.8164570  14.3978304  67.9938696  56.0726353
  15.1479668  66.8726443  55.3862414  79.5080087  21.4982681  68.4737500
  80.2802274  21.9563274  68.8055463  79.6810910  20.5745057  68.6552448
  74.1784334  22.8700590  26.2211847  74.8824263  22.6908469  25.5978799
  73.6042500  23.4843898  25.7638597  55.1387644  29.2801309  17.3750377
  55.5720854  30.1208019  17.2276092  54.3360519  29.5037794  17.8460598
   8.7235850  71.5053988  55.3703594   8.2106131  70.7910156  55.7481766
   8.3403033  72.2990417  55.7437992  17.4197310  32.2799134  13.5034525
  18.2008857  31.9953346  13.9778376  17.4491328  33.2357526  13.5451496
   1.1795849  75.5215310  59.4386026   0.6358713  76.0726737  60.0014934
   1.6276497  76.1385225  58.8599905  72.4423265  55.2444410   3.3266065
  72.2790527  56.1749458   3.1725535  71.9734240  55.0501394   4.1381535
  72.4127293  67.0827103   4.1472885  73.3675194  67.1426487   4.1155571
  72.1091175  67.9468107   3.8691127  71.7416430   5.7500321  31.3796973
  71.5556335   6.3861036  32.0703816  70.8888721   5.5698484  30.9840393
  61.4535046  52.4476576   2.1924867  60.7393265  52.4222994   2.8293049
  61.3036585  53.2524872   1.6964741  54.0958834  48.4296989  31.1635184
  54.2804623  48.2942009  32.0929289  54.9360037  48.6938953  30.7885122
  17.1828193  39.6729755  20.8993268  17.4728793  39.4977093  20.0041318
  17.6264781  39.0104413  21.4288998   0.6760520  54.0568924   2.3792107
   1.2481612  53.7424421   3.0792421   0.6816119  55.0092745   2.4749711
  37.5960490  79.0231300  40.1592970  36.6444013  79.0605867  40.0634241
  37.8907487  78.4935046  39.4184327  17.1730822   5.9770346  22.0122743
  16.5451545   5.7545632  21.3249278  17.7557582   6.6185653  21.6058731
  83.7276340  59.0573381  62.6488593  83.5090089  59.5960926  63.4092393
  84.2533184  58.3414315  63.0057397  83.2648659  21.3504195  13.4846091
  82.7983093  21.2944031  14.3185306  83.3750916  20.4400420  13.2102072
  68.0566597  18.8905931  58.6579370  68.0030918  19.6725714  59.2073679
  67.7226257  18.1851900  59.2120695  80.6114864  33.5848641  14.6749055
  79.7830820  33.9987373  14.4326556  80.7183361  33.7886405  15.6040394
  67.5637054  22.2875285  49.5713711  68.1361818  22.9239106  49.1429758
  67.2410011  22.7415800  50.3497839  30.3719375  75.5099571  27.8778720
  30.6608579  76.3561926  28.2193995  31.1663863  75.1110209  27.5229955
  35.0855851  23.8849187  23.4479761  35.3800035  24.4916511  22.7686930
  35.8511591  23.3402014  23.6307597  35.9983349  11.7127609  30.7129478
  36.3519263  12.2792935  30.0272036  35.0962234  11.5428460  30.4417396
  60.9781885  76.6933870  12.5441146  61.7297745  76.4729595  13.0943549
  61.2109518  77.5318909  12.1454203   6.2779731  31.8381643  34.6249914
   5.9755057  31.7502379  35.5288792   7.1482772  32.2294307  34.7006440
   9.7368258  10.8321774  27.9910588   8.9569491  10.9649503  28.5299492
  10.1868647  11.6767955  28.0088162   7.3592681   6.9246167   9.5493805
   6.8238849   6.4942014   8.8827890   8.2458228   6.9131631   9.1886610
  77.5706244  43.9402485  20.5335379  76.7058754  43.8443995  20.9326053
  77.5850248  43.2875919  19.8334920  48.1142378  11.1867118  13.8925993
  48.4760332  10.3736103  14.2450213  47.3306561  11.3478267  14.4182146
  72.4815512  56.6412592  10.5461657  71.6324806  57.0145273  10.3095484
  72.2695780  55.7961845  10.9425867  49.8854113  27.4195194  18.1896615
  49.7104263  28.2979417  17.8520417  49.1198874  26.9065189  17.9307401
  69.3271923  27.6263738  14.2409968  69.9550200  27.3436642  13.5760617
  68.9533520  28.4343219  13.8892949  11.4172406  72.8790687  66.3944751
  10.6857962  72.3707746  66.0439691  11.9895882  72.2273277  66.7993039
  81.1913586  39.7535157  28.2934570  81.3355732  39.1221333  28.9982915
  80.2969646  39.5827889  27.9982543  18.5882396  25.5271745  39.1723943
  19.3959254  25.9353065  38.8604546  18.8810748  24.8621964  39.7955203
  83.3941746  53.8888025   2.8942081  83.0532455  52.9951334   2.9310286
  84.3442726  53.7810707   2.8502354  29.7598312  75.2253354   7.3041385
  29.7718188  76.1819420   7.2726452  29.0282819  74.9762464   6.7393172
  83.3065414   8.1228483  18.6022890  83.1354141   8.2039684  17.6640105
  83.3295536   9.0253282  18.9204597  61.2068701  34.9224448   9.5694911
  61.1732769  33.9682841   9.6379083  62.1414375  35.1291347   9.5599800
  85.4590225   8.2039505  10.8407569  84.6679401   8.7416404  10.8768857
  85.1440430   7.3295361  10.6118035  64.4845629  32.3891354  20.0406194
  64.8156691  32.3973393  20.9386921  63.5330582  32.4317288  20.1357532
  65.2152014  42.4766541  22.3210526  65.4637337  41.5689850  22.4959946
  64.2678213  42.4442244  22.1882010  65.3577662  36.1393094  53.8212824
  64.5222998  36.3517404  54.2373323  65.1246214  35.5531931  53.1013250
  81.0196590  41.3310099  41.4359951  81.2896729  40.4682016  41.7504454
  80.7490063  41.1818552  40.5300522  23.3178992  69.2010926  66.4821359
  22.5112004  69.3723796  65.9962016  23.3971018  68.2471846  66.4862001
  67.4310702  54.2177677  14.3067563  67.6293868  53.3660841  13.9174783
  67.7847117  54.8536015  13.6847520  76.7423344  68.7147522  45.0797987
  77.0293999  68.6427832  45.9900951  77.0135212  69.5927525  44.8118401
  62.1217108  47.1175432   1.8238187  62.8349590  47.7097368   1.5854640
  62.2480202  46.9544983   2.7585346  10.7557315  47.1356773  28.1802273
   9.8973006  46.9068575  28.5365462  10.8355540  46.6044426  27.3879838
  25.5504149  69.4060802   4.1938916  24.7530383  69.5406294   4.7060564
  25.7274073  68.4683228   4.2681852  11.1084479  37.9275775  18.0768299
  11.4438838  37.4174428  17.3396230  11.8171233  37.9133677  18.7201095
   2.8216094  39.9283934  62.9965448   1.9561690  39.6998549  62.6574135
   3.3795184  39.9712920  62.2199249  17.7133292  47.0896387  31.9841123
  17.3590201  47.9735470  32.0810843  17.2139567  46.7093849  31.2614274
  11.6519183  31.1019206  -0.0248367  12.2805995  31.1908126   0.6914615
  11.3400763  30.1993275   0.0408113  71.0188293  57.3804951  46.3392210
  70.7763243  56.4986324  46.0568333  70.2175999  57.8938961  46.2358665
  81.3565252  12.6897315  68.8371761  80.9307859  13.4679536  68.4775266
  82.2264859  12.6865606  68.4379460  13.2467312  71.1825560  36.3553616
  13.6248059  71.9239448  36.8282649  13.8561673  71.0220979  35.6348964
  10.2986163  37.2837353   2.3573326  11.2187213  37.4455690   2.1489002
  10.2368182  36.3326597   2.4460340  10.1682204  14.1482830  11.8224931
  10.3117675  13.2501197  11.5242839   9.4115180  14.4495618  11.3196385
  74.3615625  25.1640586  59.2113838  74.1538236  25.5931119  58.3813307
  74.0399453  24.2687730  59.1053077  72.8429651  19.3148375   8.5451585
  73.7427473  19.6404898   8.5689962  72.3295498  20.0533700   8.2177323
  56.4162916  76.0465954  61.9235435  56.0458559  75.2591370  61.5248921
  56.2357992  76.7425440  61.2916347  17.8705043  16.5030110  42.6625395
  18.6834830  16.0384178  42.4639034  17.8297442  17.2035038  42.0114803
  52.5801847  23.6481885  69.7501870  52.5430104  24.6039514  69.7871780
  53.4794137  23.4336833  69.9983771  41.2767884   1.9843320  50.2479741
  40.6212089   1.2904100  50.3180930  41.1369083   2.5253991  51.0250935
  85.1797987  61.2282847  61.6611972  84.7902990  60.4421125  62.0438918
  85.8195663  60.8963274  61.0313287  81.3585186  72.1540594  25.7568216
  80.4723549  71.8397570  25.9361506  81.3007832  72.5501823  24.8873472
  65.0069332  42.2089100  62.9383469  64.8049259  41.3973045  62.4728155
  64.4307041  42.8622961  62.5417614   0.7623309  46.1137867   4.3006116
  -0.1427537  45.9198952   4.5444503   1.0192221  46.8289709   4.8826286
   6.5690535  44.4812012  43.4909010   6.1334533  44.2510891  42.6702118
   7.2713393  45.0771618  43.2304001  57.9288149  46.0197163  41.1890221
  58.6878490  46.4789534  41.5484571  58.3029222  45.3006124  40.6799364
  75.1264524  63.6652279  33.7722063  75.8472061  63.2699680  34.2626262
  75.5081701  64.4476891  33.3743644  82.1862888  33.6661291  34.4359708
  82.8087902  33.8496590  33.7323833  82.4773788  32.8307104  34.8014474
  64.7118622   9.8368382  60.4189539  65.0229412  10.6308210  60.8537579
  63.8988286  10.1020825  59.9890089  73.7103051  56.5911293  43.6267138
  73.8935119  57.5033140  43.4017897  74.3324083  56.3870287  44.3249702
  62.3424727   8.7075680  33.0535698  61.5349895   9.1787815  33.2589030
  62.0765167   8.0415422  32.4196053   2.5283432  29.5072676  16.2012699
   1.6739511  29.4743182  16.6315678   2.4188137  28.9790751  15.4105499
   1.9655779  56.9748922  14.7621086   2.8462866  57.1488174  14.4299439
   1.8270305  56.0423334  14.5966652  81.3950214  53.4766769  65.5851412
  81.0519487  54.3459988  65.3782272  82.1919501  53.4024954  65.0601339
  83.9995199  27.4223401  19.2436531  83.5018473  26.6176440  19.3886307
  83.9365750  27.5763394  18.3010224  55.8352783  72.4177047  16.7868355
  56.4995387  72.3986407  16.0979107  56.3049915  72.1588321  17.5796726
  31.5383106  58.4090640   7.2347096  31.0183960  59.0359332   6.7317703
  31.2893801  58.5674502   8.1453016  67.7157599  74.8735380  43.6234093
  67.1859330  75.5606699  44.0275908  67.3492473  74.7741127  42.7447653
   4.4468278  51.2679005  51.7499542   4.3646556  51.9544888  51.0880804
   5.3844178  51.0779762  51.7829227  78.8699001  16.2803638  58.9656353
  78.2713681  16.2025583  58.2227087  78.3291018  16.0836005  59.7305250
   3.8180402  27.4101353  64.4770670   3.6616659  28.3530164  64.4245958
   3.1885165  27.0987773  65.1274443  10.7700514   3.8867499   2.3890236
  11.1444687   3.0610682   2.6961020  10.1058864   4.1062428   3.0424288
  84.3564366  31.7646885  69.8207951  83.5095802  32.1902061  69.6866322
  84.7944122  32.3049212  70.4784870  57.6794988   0.9246136  34.8861817
  57.9813346   1.1775900  35.7586125  56.8314984   1.3582875  34.7910336
  35.6267309  19.4751060  58.8917875  35.6504655  18.9144528  58.1163263
  36.5423107  19.7062910  59.0483093  40.0740948  72.9947563  37.8913334
  39.2208817  72.5944968  37.7238491  40.6114474  72.7352663  37.1429089
  81.2328619  65.9986353  50.2514648  82.1077663  65.6372166  50.3934145
  80.9963733  65.7138014  49.3687534  14.3945158  23.8242149  37.5965786
  13.8260090  23.9335918  38.3588576  14.5677125  24.7166562  37.2969389
  47.7201834  66.5661093  19.9586609  47.4388352  66.5227838  19.0447643
  47.6641872  65.6625529  20.2695969  81.2896400  12.5777890   6.1451700
  81.7793089  12.5019051   5.3262070  81.3558322  13.5036494   6.3789013
  74.5431474  70.5984112   7.9206923  75.1449111  70.0191351   7.4531916
  73.6720946  70.2754422   7.6900604  49.1511362  49.6827532   5.9124401
  49.8675125  49.6513487   5.2783659  48.9040744  48.7668539   6.0402420
   6.8553811  29.3280292  64.6791029   6.1449146  29.4819784  65.3018141
   7.5954717  29.8208952  65.0334787  74.8996076  72.9125496   4.9984053
  75.6669220  72.9075619   5.5706289  74.6976289  71.9871159   4.8605326
  81.4984426  67.7673292  60.3520346  81.9569293  67.1881104  59.7433186
  80.5920052  67.7688694  60.0444603  80.3797132  34.1632986  39.1645932
  81.1274663  34.7596955  39.2021132  80.7660758  33.3056068  38.9876151
  15.0093212  79.4654175   2.1811608  14.4696775  80.2454253   2.0523051
  15.9080520  79.7744199   2.0670012   1.4785779  46.3185167  40.0371027
   2.0549603  45.8040142  40.6021690   0.9137175  45.6699228  39.6169949
   1.2011847  23.4083486  49.6825600   1.1878944  22.9642105  50.5303812
   0.6225299  22.8844023  49.1286039  33.2182770   5.1899172  30.0099495
  34.0120559   5.0895764  30.5353859  33.0784493   6.1358048  29.9654988
   1.9099949  22.6523113  66.6995335   2.8142864  22.4049115  66.8926144
   1.5303871  22.8581691  67.5537872  65.7716399  26.7356205  40.0983763
  64.9245864  27.0480728  39.7803998  65.6498629  26.6321969  41.0421467
  27.0230019  69.1619798  20.0290421  27.8320005  68.6580296  20.1172856
  26.3255748  68.5111304  20.1079205  37.2782915   5.1075674  33.9945915
  38.2188504   5.0647808  34.1670731  37.0354038   6.0072924  34.2130688
  71.5827376  57.6266193  65.3207493  71.0539633  57.2918701  66.0450268
  71.3700455  58.5589933  65.2798653  74.2315727  26.4218426  39.8810673
  75.1204187  26.4673638  40.2333689  73.9583450  25.5177283  40.0364828
  10.1192072  52.0258280  15.1915100  10.6232705  51.2588092  14.9197891
  10.6974247  52.4903651  15.7965782  23.0637097  18.9587046   4.8404721
  22.6707482  18.4025694   5.5131748  22.3169875  19.3429972   4.3811682
  77.0822024  78.5368061  63.7539053  76.5520465  79.3315172  63.6939430
  77.4027979  78.3949852  62.8632116  64.0191799  59.3078756  38.0728292
  64.1467029  58.4062290  37.7778721  63.1404334  59.3137217  38.4523058
  61.8673426  71.7018795  66.4566040  62.3785788  70.9948206  66.8502235
  61.9744807  72.4385595  67.0583153  21.3005900  26.7551231  62.9345942
  20.9539318  25.9019637  63.1957054  21.4963484  26.6590548  62.0025635
  84.3080075  48.6312580  67.9747152  84.8666064  49.0836048  68.6068392
  84.0870516  49.3012857  67.3278189  31.6329038  50.6799467   4.8019674
  32.0905515  50.0495561   4.2457321  32.1271980  51.4931734   4.6991757
  31.0125980  79.9924465  33.3473042  31.1705371  80.3352829  32.4676731
  30.6802027  80.7424136  33.8405541  84.2308527  31.5213801  20.8459595
  83.7789016  30.6780220  20.8191803  85.0304442  31.3489415  21.3431004
  31.5036892   7.8022124   6.3037852  31.5319323   6.8458487   6.3322190
  31.9044089   8.0288149   5.4645565  29.2544809  27.8655105  69.1080189
  28.2999049  27.9302364  69.0792608  29.5330862  28.6455112  69.5878220
  45.4886859   7.4854351  18.2219818  45.9626251   6.7915656  18.6804131
  45.9284371   7.5564505  17.3747471  66.6703653  18.5939099  20.9741142
  66.1592763  17.8088643  20.7773331  66.2007224  19.3021275  20.5335549
  19.0303767  40.7087517  33.7298155  19.2249334  40.0832605  33.0318642
  19.0907276  40.1952171  34.5353413  48.6242681  21.1653210  34.3316963
  48.1305050  20.5587126  33.7799195  49.0636062  20.6043030  34.9708107
   8.4445646  59.2782446  32.3799351   8.2167223  58.3930536  32.6641205
   7.7273991  59.5358725  31.8006829  86.1130650  14.2307889  33.8640022
  85.2218955  14.5561802  33.7368464  86.0541310  13.6659074  34.6345019
  12.0633924  37.1011639  56.6730356  12.9071629  37.4881530  56.4395380
  11.4934134  37.3039222  55.9312487   9.7807005  17.7335315  56.5217876
   9.5454684  17.3522525  55.6759024  10.7375172  17.7110344  56.5368795
   0.6153011  36.5073229  26.5116051   1.1692047  37.0341278  25.9355000
   0.6005883  35.6415154  26.1036995  74.5896453  35.7300305  62.5837898
  74.9252289  35.2388287  63.3336782  73.7937444  36.1503339  62.9095459
  24.3044787  47.5445868   9.8523405  24.7299796  48.0577399  10.5392578
  24.5212203  46.6363169  10.0628403  13.1674945  67.1976614  60.6380892
  13.0942512  67.9820776  60.0944376  13.4347177  66.5086889  60.0296974
  14.8439145  57.5187136   6.1752871  14.8627734  57.4910952   7.1319035
  15.5443835  56.9251181   5.9046868  55.1800421  78.3227583   0.2981070
  55.3120997  78.7573715   1.1406639  54.2900970  78.5639425   0.0410822
  84.8828369  28.5498644  25.6494835  83.9992576  28.9160611  25.6118515
  85.4566079  29.3139864  25.7054833  82.4092668  23.9806557  41.4144230
  82.8441819  24.7100830  41.8560266  83.0547842  23.2739830  41.4267874
   5.6475639  33.1658293  16.1934212   6.5138220  33.0012442  16.5659073
   5.7908892  33.1713082  15.2470329  26.8503594  25.2849078  51.0636282
  27.1277475  25.8907318  50.3764105  26.4339018  24.5630455  50.5927658
  84.2777117  38.8702130  46.9255447  83.9688575  38.3663201  47.6784945
  84.4414174  39.7463560  47.2745514  58.0393690  30.9056879   0.1383236
  58.9810618  30.7575919   0.0516442  57.9692515  31.6860510   0.6881932
  67.8318399  37.5047995  18.3790138  68.6951774  37.9133011  18.3157185
  67.8344052  37.0703055  19.2319134  51.7319563  72.5253912  19.2732361
  51.1161688  72.9590412  19.8639897  52.1969416  71.8999406  19.8289612
  77.1700615  64.5406055  68.0770588  77.7824944  63.9221096  67.6787901
  77.0580476  64.2233276  68.9731741  13.1061244  47.4315977  64.5530081
  12.6942027  47.8671741  65.2992153  13.3220387  48.1427860  63.9498329
  38.1466391  80.0712868   3.0910710  37.2319129  80.0568028   2.8094700
  38.5474696  80.7651397   2.5674895  13.2366431  74.8851395  54.7216368
  12.4182153  74.6276045  55.1459980  13.6175179  74.0617847  54.4162655
  25.6156516  71.4815569  59.9135017  24.6920943  71.3832331  60.1450300
  25.7715559  72.4254131  59.9460125  25.6880045  74.7507668  63.3724070
  25.1897073  74.5259476  62.5866652  25.0274491  74.8289347  64.0607262
  41.7139736  14.5384269  45.2720356  41.7580262  14.6515804  44.3225670
  42.4609819  13.9777046  45.4813290  80.1016021  26.8069077  47.9815817
  80.5703616  27.6203132  48.1683111  79.1823232  27.0677018  47.9255009
   0.6556180  67.0721292   9.5367432   0.4648222  68.0057907   9.6267706
   1.5771964  66.9912100   9.7824615  15.7357264  12.6141310  62.7851915
  14.7925842  12.7772987  62.7947998  15.8292484  11.7763543  62.3317432
  78.6032158  24.1050078  16.3247803  78.5947519  24.5623423  15.4839447
  77.9611688  24.5731284  16.8585137  16.3542747  60.6879616  33.8227010
  15.8367312  59.9556923  33.4877968  17.2009480  60.6031418  33.3843160
   2.6349333  66.7703505  22.8955200   3.1106737  67.3409363  23.4991196
   1.9704011  66.3473626  23.4393147  52.1318847  62.1354866  39.8495078
  52.2511703  63.0775785  39.7292542  53.0083543  61.7670202  39.7387481
  80.2756959  28.5184266   4.9690750  79.8962908  29.3519665   4.6906927
  81.2046319  28.5932661   4.7506502  31.7912679  65.9552409   4.4147089
  32.6263672  65.6406523   4.0684775  31.9871360  66.2123610   5.3156784
  81.8511110  67.2861385  46.3674688  82.3647159  67.3165178  45.5603027
  81.2157804  66.5853596  46.2208652  31.2061620  74.2637491  52.5308847
  31.3639569  74.6539307  51.6711807  32.0527411  74.3122149  52.9749441
  79.5322424  13.5326411  20.5598572  79.5547825  12.6133276  20.2941826
  78.7694603  13.5972525  21.1345032   8.7890028  43.4552313   1.4763430
   8.3541846  43.6557700   2.3051670   9.4651460  42.8186919   1.7084673
  23.7631678  52.6033522   6.2955406  24.3114161  53.0771471   6.9209793
  24.0490222  52.9198958   5.4386166  63.9464837  71.9223356  51.5728951
  64.3345839  72.0615482  52.4367428  64.2771441  72.6470470  51.0421562
  66.8825716  37.0357466  43.6685705  66.8883985  36.3296866  43.0222940
  67.8066391  37.2485042  43.7992048  23.6430621  62.2108650  58.4293079
  23.7570715  62.8096914  57.6913118  22.8369045  61.7350864  58.2293653
  76.2888288  56.9855213  69.4355440  76.5572709  56.1170721  69.7354937
  75.3327006  56.9684505  69.4774771  20.8851051  36.1676311  52.9924440
  19.9748218  36.2440848  53.2784033  21.3420463  35.7929420  53.7454700
  58.9983375  62.1640135   0.5662516  59.6440464  61.5332724   0.2477291
  58.6934293  61.7964293   1.3957957  -0.0461722  48.1266905  32.9554585
   0.4308962  47.7704264  32.2059754   0.1229214  49.0682246  32.9214314
  14.6106314  20.2564694   0.8737066  14.3313527  19.8210646   1.6790989
  13.7944722  20.4699875   0.4214647  52.1488458  34.2925858  69.4513035
  52.3547321  35.2085781  69.6378469  51.6893297  33.9863563  70.2331591
  76.0820740  20.4838587   2.9209116  76.1914998  21.3183905   3.3767775
  75.5667418  20.7010676   2.1440676  84.6158005  68.8816595  40.4622936
  84.8505995  69.6665621  39.9672914  84.1653527  69.2139959  41.2387466
  65.2538299  58.3305861   3.9726952  65.8950495  58.2747580   3.2642105
  65.2705758  57.4643923   4.3796995  76.5092009   2.6995541  17.5524452
  76.5523892   3.5932042  17.2122219  76.4235883   2.1504380  16.7731026
   9.5741028  54.6324015  50.1187611  10.2852082  54.2137623  50.6038427
   9.5947295  54.2164421  49.2569160  61.3293388  19.5821434  55.4055834
  61.8594721  19.4865852  56.1968231  61.3204410  18.7077766  55.0161886
  41.7781835   9.4787241   2.7589348  42.6579719   9.3509938   3.1137446
  41.2723189   9.8277403   3.4927777  26.2280750  79.0430212  56.3135338
  27.0122409  78.7987995  56.8051338  25.9328294  79.8566246  56.7223215
  82.2875518  30.5166030  53.3510494  82.7665260  29.8165846  52.9074383
  81.8342179  30.9801579  52.6468897  54.6062439  29.4033457   0.2737168
  53.8202962  29.2521550  -0.2513191  54.7537302  28.5740496   0.7284048
  62.3312514  64.5668723  16.2172821  62.2969281  65.2867152  16.8472698
  63.2618480  64.4693400  16.0155132  73.4215182  19.2317988  16.4464310
  72.9151922  20.0338198  16.5754059  72.8305906  18.5292841  16.7175511
  61.1324814  20.5192524  67.6916647  62.0148161  20.1586300  67.6040697
  60.5710414  19.8919635  67.2361231  80.6043404  45.2906227  62.5230312
  80.4248702  44.3714523  62.7208996  81.5461978  45.3199434  62.3548698
  21.3499712  11.2461640   6.6547754  21.3228201  11.4599921   5.7221630
  20.6521964  10.6016995   6.7731550   1.4398885  75.0443316  53.0844116
   0.9449681  74.2259264  53.0457354   2.0886885  74.9651623  52.3851109
  31.0423606   9.5226341  60.8710957  31.1804431  10.0269371  61.6728735
  31.7301020   9.8237472  60.2773190  19.7083998  64.2246437  66.4911222
  19.3643081  63.3325386  66.5356779  19.3914926  64.5620203  65.6532812
  74.2726519  51.0947355   8.2050589  74.7680476  50.7205411   7.4765042
  74.3016627  52.0395287   8.0542114  71.0409278  64.8250723  58.3015251
  70.4687244  64.5157003  57.5993109  71.7443353  65.2910662  57.8495312
  12.5148371   9.9215847  56.9284773  11.7170515  10.2559715  57.3383045
  12.3332908   9.9539905  55.9892130   7.3764861  61.5697575  43.2024336
   7.4663889  61.7288828  42.2628403   7.7864665  62.3302746  43.6144590
  80.2436667  10.9470297   1.7107132  80.0748544  11.0765387   0.7774618
  80.5024820  11.8116642   2.0295456  32.5386643  78.5870266  67.6739454
  32.6325750  77.7086163  68.0424643  33.3716726  78.7517214  67.2321272
   3.4666958  65.0942087  45.1676846   4.1546094  64.4775772  44.9171400
   3.5887316  65.2197933  46.1087275  64.5245722   0.4678970  61.7763186
  65.0802543   0.1735263  62.4979830  65.1290133   0.8884864  61.1647749
  14.2500567  25.4119539  39.8697948  14.8154163  25.2598023  40.6270599
  14.7519004  26.0060692  39.3117499   3.3008680  58.6405563  65.4259014
   3.2392848  59.5871305  65.2976799   4.2411035  58.4624243  65.4472828
  51.1557105   5.2083831  52.3306608  50.3243783   5.2312141  51.8567419
  51.4128235   6.1271816  52.4076557  58.1961179   7.5704266   6.4594629
  58.5156932   6.7188479   6.7576578  57.9860084   8.0428673   7.2649983
  61.3073730  10.6530167  24.5157078  60.9534868  11.4286972  24.9508122
  62.1556642  10.5091835  24.9351624  72.6789277  39.1016985  20.7853058
  73.0366963  38.3853795  20.2607754  72.6312237  38.7476565  21.6733387
  78.4735924  55.9150934  60.2316523  78.3684331  55.4640102  61.0693216
  79.1860288  56.5364361  60.3819895   6.5879041  60.3066111  56.5760899
   5.7357329  60.7092571  56.4090157   6.9749856  60.8434153  57.2676420
  44.3812766  63.2232257  20.7252911  43.8679912  63.8197227  21.2702397
  43.8136747  62.4622484  20.6029347  67.5187784  54.2108370   1.8372277
  68.2045632  54.8757483   1.8991020  67.4531632  54.0207983   0.9013823
   8.2465887  48.3724213  51.2827301   9.0372151  48.7495852  51.6685915
   8.5700971  47.7864790  50.5984449  52.1899182  56.9992399  67.2453833
  52.1015578  57.0210266  68.1982470  51.8993932  57.8648424  66.9580507
  16.8610108  60.4069710  48.4427309  17.2317195  60.4692221  49.3230343
  15.9255409  60.2638006  48.5863638  47.3026457  75.4444571  19.4911888
  47.3942294  74.9797364  18.6593941  48.1618443  75.8388515  19.6410683
  65.6047689  15.2067210  20.6337574  65.9196817  15.8914401  20.0436524
  65.5646699  15.6295897  21.4915398  34.5445367  35.0629955  38.6707735
  34.4025615  35.9115463  38.2512069  34.1382453  34.4313865  38.0772853
  85.4559117  22.5370146  16.4928177  86.1577707  23.1873442  16.4664391
  85.6331306  21.9629981  15.7476071  74.6001965  74.3274403  49.0595913
  74.1720897  75.1446867  49.3146706  73.8986748  73.7976122  48.6809349
  23.8897872  12.0428043  65.4602098  23.7102279  12.9811340  65.4008770
  23.1869539  11.6988426  66.0115242  22.4559093  75.5421114  66.0450268
  21.8667698  75.9191275  66.6984797  23.2714462  76.0329056  66.1462831
  21.1726165  73.8723660  50.9657955  21.8971157  74.1149569  50.3891802
  20.4556394  73.6536694  50.3705215  83.8862639   5.8629586  11.8242386
  83.0611425   6.2428643  12.1260288  83.6696749   5.4551054  10.9858063
  53.9737775  23.9556385  14.6302345  53.1051069  24.1529585  14.9805382
  53.8077914  23.3595683  13.8999108  38.4389886   4.8312622  69.5243454
  38.0280766   4.0712791  69.9364281  39.3212667   4.8567157  69.8947144
  79.2779404  43.5930634  52.2539806  79.1943526  42.6413107  52.3124504
  80.0121558  43.8048744  52.8304338  81.5826073  23.0321646  55.6380463
  81.5665132  23.9830518  55.7466125  82.5032160  22.8249788  55.4774666
  12.4484756  49.1215148  10.4977921  11.8835881  49.6440091  11.0671166
  12.9602030  48.5805937  11.0992649  39.2594820   7.9767682  15.2504948
  39.1722589   7.7729536  14.3193176  38.7433808   7.3026587  15.6925896
  72.3584955  15.7583834  14.6287659  73.1433600  15.8697773  15.1652458
  71.6446953  16.0814692  15.1786164  13.6418283  66.0165501  35.8182955
  13.3880675  65.8642769  34.9079943  13.5629451  65.1587343  36.2356281
  64.8459458  49.7738387  10.5995777  64.3323671  49.1527201  11.1159924
  65.0098669  49.3200518   9.7728708  68.3574742  13.1981732   5.3311804
  68.5620778  13.7319876   4.5634487  67.9730957  12.3987271   4.9714974
  62.1082166  76.9762941   8.7876156  61.5145972  77.7255793   8.8368252
  62.8737953  77.2434421   9.2962959   9.4729960  77.1931076  54.8888493
   9.9465251  77.9757214  55.1708460   8.6688572  77.5292969  54.4931602
  26.4580655  57.6106882  70.1511192  26.2003613  58.5183525  69.9899960
  27.4146032  57.6238060  70.1179886  43.9872616  14.8796584   6.9623306
  43.2613319  14.3927742   7.3524597  44.6106332  14.9956728   7.6793936
   7.6552269  78.9721111  51.1767817   7.9084465  79.8497631  51.4628553
   8.1178972  78.8475016  50.3481436  26.0253864  13.6260344  45.7468346
  25.3107768  14.1127898  46.1574867  26.3866764  14.2315604  45.0995091
  37.6128569  71.4161464  37.7501991  38.0928531  70.5916162  37.6728275
  36.7982319  71.1784120  38.1930283  60.3806969  18.0366303  10.1228455
  60.2339276  17.1655823  10.4915837  60.1361185  17.9509617   9.2013958
  81.7244863  49.3799448  63.3470201  81.1597732  48.6317873  63.1531239
  81.9658056  49.7268200  62.4881411  41.7160135   2.1819521  14.6706608
  42.5469118   2.6328160  14.5204476  41.9346362   1.2517668  14.6142414
  23.9747071  34.4554639  22.6150012  23.6199403  35.2890563  22.3059750
  23.4992528  33.7924933  22.1143556   4.2177123  49.0932083  59.5615005
   4.5158204  49.1626453  58.6545610   3.4086010  49.6039915  59.5874405
  13.8926672   3.6119915   4.7032860  14.7062563   4.0320088   4.4242027
  13.9343094   3.6208798   5.6595400  77.5850022  62.7989149  50.4223061
  77.6739484  61.9202185  50.7913733  76.8536180  63.1873941  50.9022999
  75.6488281   9.8091221  52.0143509  74.8998552   9.2354655  51.8525171
  76.3536656   9.4383162  51.4833689  12.1704698  45.5960035  66.9801235
  12.1990895  46.5376854  67.1493673  11.2385368  45.3780794  66.9956541
   3.9207124  23.7211777  25.0047329   3.2698774  24.3722845  25.2668408
   4.7418618  24.2104079  24.9537209  70.7652777  11.7191388  15.0605801
  70.8468884  12.6485182  15.2746418  70.0934570  11.6883398  14.3794468
   8.0283308  59.6309805  67.4633360   7.7473986  59.4991779  66.5578318
   7.5042242  59.0102100  67.9694843  79.9713451  41.3587046  54.0675211
  79.9444139  42.0819092  54.6940041  80.8617228  41.3787365  53.7167263
  47.3944953  73.2571002   5.9135988  48.0300691  73.3387252   6.6246632
  47.2100547  74.1593333   5.6524685  79.7264033  41.2254168  23.3079270
  80.5275088  40.7973887  23.0058411  79.7647386  41.1593844  24.2620781
  69.9248450  40.8203055  16.7989186  70.5302876  41.4632441  16.4297131
  69.5893114  40.3436877  16.0396507  44.9204415  21.5261961  26.2172344
  44.3810087  20.7546307  26.0442284  45.7874280  21.2913538  25.8864525
  32.6441860  71.6565990  38.5665345  33.0874419  71.5820503  37.7214313
  32.4620914  72.5916767  38.6598253  60.8230856  34.0863853  65.3219175
  60.3436330  34.7905498  65.7583952  61.2777570  33.6311012  66.0305977
   5.2681306   5.9626442  52.1120739   5.8302381   5.9705215  52.8868055
   5.8340123   6.2667804  51.4024830  80.3766804   3.6248518  27.8257397
  81.2589508   3.9190318  27.5992706  79.9375945   4.4114615  28.1492737
  55.9385014  67.7903700  52.9387712  55.3250170  67.2404003  53.4260082
  56.7055941  67.2335434  52.8055668  80.8266070  38.5604625  55.5930424
  81.5491917  39.0081363  55.1529455  80.0972560  39.1785198  55.5451775
  68.1969216  49.0895324  64.9455118  68.6818507  49.7557884  64.4585037
  68.8696530  48.4853607  65.2595901  83.1187206  24.5293261  12.8406933
  83.4996849  23.6840750  13.0787018  83.7175470  24.8856760  12.1844509
  78.5214436  53.2143831  49.7078180  77.6948422  53.5261440  50.0762892
  78.2714546  52.4820042  49.1444683  60.5865779  20.3967453   0.1112726
  59.6758815  20.2354933   0.3579739  61.0151019  20.6494452   0.9290388
  32.8141522  80.1603889  57.1463823  33.1049538  79.2794418  56.9105959
  31.8964171  80.1900578  56.8759918  64.0878895  14.1604477  57.1269131
  64.9328664  13.9302879  56.7405558  63.5509160  13.3762699  57.0130634
  12.4161505  47.5492503   3.1712177  13.0742335  46.9561697   3.5337237
  12.4922156  48.3434607   3.7000683  65.2180913  12.6430851  61.0591650
  64.5372989  13.3128124  60.9941673  65.4188111  12.5955158  61.9938755
  85.5931851  58.0112028  58.4382963  86.3452235  58.5917711  58.3216381
  84.9397330  58.5519123  58.8819885  26.1105132  70.0181007  65.7705736
  25.7947445  70.7238817  65.2063084  25.3247213  69.5179272  65.9909916
  16.2244952  53.8754082  37.8294063  16.7311263  54.1542006  37.0666289
  16.0719550  52.9412031  37.6872039  74.4297927  20.9868504   0.7634619
  74.2728096  20.0519825   0.6307438  73.6719530  21.4157607   0.3660372
  24.9768591  56.8895721  66.1488056  24.2069626  57.2273445  66.6064119
  25.7139230  57.3547125  66.5445471  20.9637713  78.5482788  44.9604511
  21.2417674  78.2860708  44.0828419  20.3942251  79.3038225  44.8155355
  78.5743001  78.6885091   3.8642672  79.3524697  79.0883203   3.4758881
  77.9166034  79.3838759   3.8526180   1.3282132  35.8524825   5.4720000
   1.8259477  36.1950041   4.7295883   1.5927195  34.9346901   5.5347040
  56.3219309  65.1250696  62.7744389  56.2875938  66.0754871  62.8828478
  56.8626738  64.8202705  63.5030842  57.1969011   2.8719001  68.3553076
  57.5357464   2.0262962  68.0614185  57.9420379   3.4679371  68.2795334
   4.2729157  77.4751997  52.9324770   4.2366305  78.1185722  53.6402845
   4.3526050  76.6322327  53.3788872   3.6696195  33.2001568  30.2366284
   3.0376172  32.5259139  29.9872235   3.8885974  32.9984213  31.1463478
  84.5417245  57.3754692  55.5511427  84.5585668  57.4728870  56.5032244
  84.5478178  58.2729530  55.2184010  59.1346743  31.8193032   2.9966810
  59.9330964  32.3216845   3.1590536  58.5331135  32.4479414   2.5977209
  13.9481986  59.5614100  51.3109779  14.4735730  60.2842331  50.9678459
  14.4709098  59.2053986  52.0294905  52.2305229   3.7313228  50.2963829
  51.3854769   3.7870079  49.8502588  52.0370891   3.9607864  51.2053156
  18.9728769   9.0637451  58.1925201  19.2223456   9.4051033  57.3337603
  19.7705993   9.1296631  58.7174273   9.7304296  32.6676537   6.1787775
  10.3874015  32.5760104   5.4886893  10.2237892  32.9728295   6.9401530
  50.1269620   6.9994713   0.7834986  49.5015102   7.2755171   0.1135424
  50.9109109   7.5200154   0.6083086  53.4399345  29.4609314  48.4347534
  53.8726285  29.1436248  49.2274237  52.6346186  29.8715740  48.7495089
  40.6755352  69.0518618  48.6714220  40.3217411  68.4546328  49.3305016
  39.9092817  69.5128202  48.3299494  70.3612187   9.4991546  52.6196003
  69.4479468   9.6208053  52.3600388  70.3124717   9.0569931  53.4671545
  16.3232327  73.6819220  61.5973854  15.8262146  74.2280817  60.9883595
  15.7669783  72.9163313  61.7412090  56.3240718  14.9751975  11.8448666
  55.7736244  15.0495936  12.6244286  55.7389658  15.1867129  11.1174515
   6.3013703  71.7595959  70.2423954   7.0937908  71.2233829  70.2145624
   6.4546055  72.4472427  69.5944023  72.1020835  40.4325892   4.3137434
  71.5019458  40.6907488   5.0133303  72.6573663  41.2005259   4.1789988
  52.5540283   2.4197536  60.0511360  52.1417811   1.5751129  60.2324152
  53.3003857   2.4553066  60.6493998  39.7022858   9.1211181  62.7284002
  38.9954331   8.5837989  63.0860043  39.4015780   9.3598323  61.8515730
  67.5245931  25.9658580  43.7878323  67.1024969  26.5965706  43.2045031
  67.9997185  26.5050846  44.4200754  20.9434652  24.5777202  64.9604988
  20.4599166  23.8886333  65.4161024  21.5822601  24.8868608  65.6028414
  52.1040299  12.7165943  29.1390181  52.4233249  12.2404724  29.9055600
  52.5030282  12.2666984  28.3942866   4.8811546  67.3090506  51.4370728
   5.3735036  66.5891218  51.8314362   4.1493487  66.8827152  50.9910583
  61.6600993  53.5374476   5.3961018  60.7852491  53.4267737   5.0237873
  61.7243969  54.4741465   5.5823591   8.2692909  71.9881105  63.1225300
   9.1193378  71.9514084  62.6840019   7.7817875  71.2472725  62.7623463
  73.5545772  19.9358441   5.3866175  74.2267137  19.9275519   6.0680798
  73.6566227  19.0957571   4.9393252  81.4383560  11.2282540  14.6751812
  82.0727878  11.8306328  15.0635937  81.0878568  10.7375075  15.4185227
  79.3306642   6.7097260   6.2687138  79.4880896   7.5997902   5.9537008
  79.5667535   6.7385413   7.1958950  16.1684513  60.0876617  61.9472027
  15.3342056  60.1570892  62.4113607  16.7955899  60.5378628  62.5131035
  65.2731549  38.8622881   6.6522482  65.3078299  39.5175578   5.9553555
  66.1288744  38.9192606   7.0773724   1.2565302  42.1587206  18.9106968
   1.2497711  41.4762904  19.5818737   0.5750679  42.7720190  19.1858319
  28.0940604  21.0844570  49.2068481  28.8627647  20.9153801  49.7515869
  27.8823279  20.2344661  48.8209534  68.7100261  26.1253430  24.0928486
  67.7793639  25.9350516  23.9750031  69.1444653  25.2812506  23.9703778
  50.2962544  10.4203659  49.0726566  50.7997086  11.1751228  48.7675190
  50.5571726  10.3123241  49.9872494  74.6442574  34.7491909  42.4575737
  75.2332550  34.7352387  41.7031792  73.7814313  34.9296500  42.0844868
  64.0829470   4.0196376  60.4971170  63.7134769   3.3020836  59.9824858
  64.0250757   4.7819954  59.9211884  81.2985426   4.5244862  14.9129418
  82.2453862   4.6035887  15.0289562  80.9400778   4.6233441  15.7949665
  40.1547804  80.3628274  45.7989720  40.8532551  79.8049136  46.1411694
  39.6024897  80.5481597  46.5584782  26.7203522  75.4360008  55.6331825
  27.4162555  75.5367374  54.9837208  26.4266729  74.5307064  55.5310869
  17.6080265  18.4302192  65.9808874  17.9654899  17.7134758  66.5050411
  16.7597440  18.1058651  65.6784868   4.5506757  44.6376038  68.2444286
   3.7244946  44.3674660  68.6452818   5.1870948  43.9902258  68.5479259
  40.1387947  38.6312081   9.9447087  39.3912500  38.0712582  10.1541546
  39.9725776  38.9278580   9.0499428  84.6541025  69.9769211  67.7673912
  83.9713088  70.0871897  67.1056747  84.2171720  70.1699829  68.5968781
  27.5730300  76.0741949  45.3014183  28.3937716  75.7449198  45.6677389
  27.8277659  76.4878225  44.4766426   7.5228166  43.8122488   9.5716837
   7.1071290  44.0887667  10.3883675   8.4450554  43.6955191   9.7998980
  56.5085795  25.4597145  59.3780041  56.2794807  25.3201919  60.2968502
  55.7443836  25.8988433  59.0046406   0.2788080  49.6583843  47.4536324
  -0.1652832  50.1778984  46.7834663   0.9705842  49.1969109  46.9795847
  13.1648898  43.6802889   3.0066231  13.4533238  42.8080965   3.2755497
  12.2767043  43.7568881   3.3551815  48.1282118  13.7857013  41.8441439
  48.7287524  13.3711677  41.2246752  48.5191789  14.6414047  42.0206404
  76.5810972  51.6066195  27.5448826  75.9426897  51.6320731  26.8321255
  77.3938280  51.9223048  27.1498516  66.1092189   8.1160503  58.9647341
  67.0374730   8.3491855  58.9498186  65.6703952   8.9008861  59.2928982
  50.1639986  75.0433111  66.8708467  50.7644510  75.2893734  66.1671877
  49.5530081  74.4308949  66.4611340   8.0433249  38.8142230   2.7094629
   8.8140344  38.2483269   2.6648167   8.2485151  39.4443108   3.4002045
  19.5494914  19.1943528  32.8226307  19.8672986  18.3120896  33.0145577
  19.0399765  19.0957095  32.0183304  56.2905491  61.7577197   5.3545216
  55.7536345  62.4792220   5.6822375  55.7195815  60.9912516   5.4069546
  82.2208148  55.9656168   0.3547552  82.9474979  55.5273558  -0.0880644
  81.7285042  55.2558066   0.7670954   7.1092820   1.5727211   5.0911167
   6.6212034   1.9282748   4.3484238   6.4940500   1.6128136   5.8233145
  85.3826839  64.1467190  61.8515348  85.6305623  63.7808895  61.0024452
  85.4944986  65.0916100  61.7470837  50.5989164  42.0224692  16.9793347
  50.9363156  42.9061915  16.8329266  49.6604829  42.1450831  17.1226624
  24.6245503  45.9277369  20.1978329  23.8326239  46.4630438  20.2481201
  25.3351426  46.5300013  20.4182175  16.5732628  20.1675488  24.7997025
  17.4154549  20.1660134  24.3447998  16.5427786  19.3234755  25.2500847
   3.2032299  34.9372078   8.7871102   3.5176396  35.1128699   7.9002503
   2.9285836  34.0204789   8.7666729  61.9099617  57.7022743  50.3684092
  61.5495491  58.0588770  49.5565176  62.0374918  56.7714405  50.1853323
  18.3647471  58.8119627  14.3490437  18.2554537  59.4122149  13.6114910
  18.2624489  59.3639971  15.1243046   4.3005609  15.3672434  44.6160248
   4.8940205  15.2339531  43.8769272   3.4418058  15.4963328  44.2134026
  57.0200600  25.3119446  25.4405907  57.3808950  25.8963705  24.7738960
  57.6057605  25.4138352  26.1907891  75.9713059  34.4186570  11.3760308
  75.4865854  35.1502253  10.9938172  76.2829416  33.9178873  10.6221417
  70.2575114  20.8950096  61.3712502  69.5075896  20.5816894  60.8656025
  70.7458833  21.4455753  60.7591963  10.8830202  65.7425356  62.8408146
  10.0007463  66.0655737  63.0237675  11.1724043  66.2519073  62.0838308
  65.5157477  34.4872928  63.4854126  64.7167259  34.6982169  63.0023956
  65.2632409  34.5528316  64.4063807  68.7350445  17.0032765   6.3289479
  69.1542345  17.1093346   7.1829155  68.1956177  17.7875163   6.2278727
   7.9951095  25.0219513  40.6602791   7.1561384  25.1044251  41.1136559
   8.0853843  25.8407093  40.1727226  67.2404456  24.1276909   7.6555470
  67.3231297  24.6421172   6.8525770  66.7441695  24.6900727   8.2502535
  78.5786920  14.0205647   0.1843718  78.9618283  13.1434180   0.1768187
  77.6790052  13.8915373  -0.1158783  30.8017254  75.7551050  62.2042751
  31.6766500  76.0388041  61.9392204  30.4321146  76.5118694  62.6591682
  83.9990270  71.2478495  28.5711241  84.1263814  72.1912909  28.6707783
  84.8580152  70.8691406  28.7580800  24.6770596  56.4442278   5.0593594
  24.3243193  56.6819312   4.2018583  23.9085459  56.2003828   5.5752590
  11.7342162  28.1026150   3.3767870  12.1134018  28.3818127   4.2101505
  12.0224547  27.1956040   3.2744053   4.4492435  28.0397202   9.1797331
   4.8220753  28.9198233   9.2311600   5.0629758  27.5512911   8.6310938
  71.1703127  15.3683735  12.1319226  71.7721313  15.4590393  12.8707245
  70.9076267  16.2653758  11.9255093  74.4615358  58.1584002   2.9522589
  74.9062901  57.4457861   2.4933460  75.1697045  58.6713244   3.3416775
  20.3063035  67.2319746  56.6095734  20.1545453  67.9659271  57.2049856
  19.5964611  67.2915316  55.9701920  85.6497341  49.4449927  11.3405731
  85.3236919  50.3139426  11.5748051  84.8759847  48.9743830  11.0306290
  49.1419294  10.9903389  64.3988371  48.8744405  10.2110248  64.8860264
  48.3483281  11.5227276  64.3441534  77.1468449  67.1919632  53.5180235
  77.7364349  66.5649939  53.0990648  76.3420010  67.1456099  53.0019712
  26.6429186  80.4204082  61.8838882  27.0866489  79.8090458  61.2960339
  27.2942376  81.0995960  62.0591784  73.0097168   6.8325926  11.2680271
  72.4045365   7.2203471  10.6358555  72.5840455   6.0193087  11.5393379
  10.8749914  60.6600857  58.0769634  10.6849420  60.2445602  58.9180660
  10.0368667  60.6592512  57.6146030   9.2228031  36.8203331   5.6684902
  10.1134920  36.5104414   5.5045632   9.3378734  37.6973177   6.0344008
  35.3918433  71.2379551  41.7583275  34.4596744  71.4298439  41.8606472
  35.7936525  72.0887899  41.5826511  61.0659077  79.0318867  29.2293957
  61.4157393  79.4780346  28.4581593  60.4157069  79.6389361  29.5829037
   8.3599356  68.1806274   4.7996977   9.2509404  68.5219665   4.7233561
   8.0249122  68.1829592   3.9030436  48.0066302   6.2684017  54.0304756
  48.4743896   5.4574924  53.8308239  47.4931803   6.0626083  54.8116636
  55.6447628   6.2948471  63.0437088  55.7278374   7.2301632  62.8579044
  55.4693344   5.8960014  62.1914291  85.3639298  18.5724760   8.1333187
  85.1620584  19.5029093   8.0344656  85.5562454  18.4667851   9.0650204
  84.6867495  10.1738144  16.1203888  84.7621542  10.2535082  15.1694992
  84.9755841  11.0226275  16.4555386  21.9417858  78.3050013  42.2487354
  21.1885715  77.8140163  41.9203568  21.9290328  79.1234112  41.7524767
   9.1139662  39.2010736  60.5381489   9.7362435  39.2623806  59.8134136
   9.5147401  39.7114873  61.2417793  62.1310642  45.2373339   6.2896755
  62.1747204  45.7546450   5.4854897  62.3459422  44.3464400   6.0133246
  29.8995810  12.5229765   4.4491890  29.4350653  11.9541146   5.0630739
  29.9700361  12.0039059   3.6480454  82.0229119  62.6208878  54.1000891
  82.6383567  62.0812511  53.6038542  82.3886380  62.6498318  54.9841928
  10.9079360  43.4135653  27.4734429  10.1399803  43.7438322  27.0071724
  10.7082533  43.5603644  28.3980015  47.7538538  69.1440582  53.4144211
  47.2070789  69.9279404  53.3615446  47.4492693  68.6922216  54.2013836
  49.9005606  15.3492981  38.0728722  49.9340036  14.5638424  38.6189222
  49.1363075  15.8298355  38.3910441  64.5302773  65.0471306  69.0498495
  64.3195295  64.7962761  68.1504679  64.0332985  64.4345617  69.5920706
  60.0430777  20.7831054  34.3471813  60.6360367  21.1375194  33.6845946
  60.6208327  20.3736931  34.9912405  65.7475283   8.8225704  48.1007719
  65.9164789   8.5868984  49.0129948  66.3469985   8.2726341  47.5963497
   5.9905004  18.9537026  33.8441590   6.6230750  18.3569695  33.4441689
   5.1709032  18.7791802  33.3815125  46.5012482  20.2147918  52.1959448
  46.9584289  20.5067878  51.4072990  45.6732502  20.6949192  52.1844101
  65.7838371  22.3119312  47.2489595  66.4896276  22.3877578  47.8910971
  64.9827817  22.4382072  47.7574825  69.5017903  49.4211890  33.6724976
  68.7780219  50.0454356  33.6204270  69.1589003  48.7004496  34.2008713
  72.3998835   7.1835380  59.8789072  72.1603778   6.9078498  60.7637024
  72.1637872   8.1105285  59.8447227  47.3169318   4.2429977  63.1085777
  47.6387992   5.1379734  63.0006456  46.3637736   4.3262249  63.0804014
  48.9432338  19.6590000  53.1392574  48.9686039  18.7847381  53.5281801
  48.0203417  19.8006778  52.9284763  37.1212420  31.7422348  67.5249720
  36.4099166  31.6720348  68.1616163  37.8257224  31.2089782  67.8931808
  75.8340972  20.2553584  13.0683449  74.9409502  19.9956633  12.8423432
  76.0315352  19.7647883  13.8662079  40.4533743  45.1055361   6.0893372
  39.8193955  44.4492842   6.3785485  40.4519486  45.0355555   5.1346997
  12.5759243  73.4673335   8.9104679  12.2688174  72.5916792   8.6756399
  13.4913945  73.4829356   8.6313513  82.3265603   3.0304580  50.7390594
  82.4079230   2.3198181  50.1029778  83.0312445   2.8716140  51.3670921
  61.5546754  32.9404026  67.8668165  61.3242247  32.4873691  68.6779165
  62.3134139  33.4758716  68.0988121   9.0747451  43.8250376  15.3000096
   8.1318354  43.9888121  15.2818802   9.3434381  43.8705565  14.3824223
  22.8618932  76.7956448  46.8597460  22.9785490  77.6344633  47.3058462
  22.3314309  77.0049620  46.0909605  10.3584551  44.7717787  17.5356701
  10.0681400  44.2045428  18.2499436  10.0917625  44.3108584  16.7402676
  71.9178536  51.7294937  56.3994551  71.0193494  52.0582443  56.3704681
  72.2872594  52.1119171  57.1953964  54.8247364  14.2849403  59.9024200
  54.6408179  15.2029567  60.1015282  54.0030387  13.9480453  59.5452881
  81.2940457  80.3904792  36.4115170  80.7235101  79.6595188  36.6490296
  81.4138415  80.8758565  37.2277764  24.1756752  22.9534679  38.8671994
  23.5774573  23.1952530  39.5742393  25.0481188  23.1190925  39.2244673
  80.2509740  25.3977924  45.8949757  80.1446107  25.9546238  46.6662455
  80.5294707  25.9976917  45.2030230  36.7961027  16.7940695   4.8304346
  36.4902642  16.5466292   3.9578131  37.1340182  15.9807570   5.2053526
  30.8201749  39.8515945  63.7607384  31.1236989  40.4840999  63.1095600
  31.5263381  39.8144298  64.4058609  54.4465801  51.7346980   2.3896101
  54.5048046  51.2606646   1.5600756  54.5639064  52.6537157   2.1490458
  76.3872391  67.9843044  61.7899942  77.1325242  68.5386372  62.0212889
  76.5025306  67.1949720  62.3190451  39.4475818  71.5561962  60.0100279
  39.9093342  71.1469364  60.7418251  38.5990858  71.1138773  59.9847651
  58.4270082  46.2485911  15.3811959  58.0713584  45.9059359  14.5612457
  59.3047836  45.8710600  15.4378441  51.3939836  15.6976276  68.5817385
  52.0988300  15.6047969  69.2226791  51.6779116  16.4154678  68.0157757
  25.3949213  69.5666075  35.6933999  26.0964513  68.9155388  35.7075310
  25.8384991  70.4001141  35.8506799  73.3964255  10.0471740  38.2818031
  74.0566304  10.6649738  38.5959506  72.5683787  10.3899913  38.6180377
  60.0856951   3.3002716  30.9623957  60.0573519   3.9021450  30.2186394
  59.2338302   3.4034019  31.3865662  64.6954730  22.2419506  68.9505053
  65.6143453  22.4974399  68.8690615  64.3658498  22.7634102  69.6823931
   7.9415464  42.4351622  12.7803066   8.5362410  42.3591925  12.0341137
   7.5789427  43.3181216  12.7086666  22.3818516  23.1854512  -0.0907347
  22.5792670  24.0417887   0.2886656  21.5426707  22.9388977   0.2981308
  20.3798652  76.1805964  64.1363239  21.3024163  76.0293627  64.3418932
  20.1860309  77.0357990  64.5201111  74.5282727  69.2692757  43.7775564
  75.2896029  69.0942574  44.3307066  74.4263571  68.4756184  43.2522440
  18.7027859  44.2389609   0.1030853  19.0484881  44.7429778   0.8397654
  18.5083174  44.8953368  -0.5659363  37.1679806  44.9331118  13.5846356
  37.0134377  44.8551394  12.6432160  36.5506720  45.6050612  13.8738373
  83.0512002   7.0726448  66.2708378  82.5313475   7.6029354  65.6668663
  82.4127677   6.5026718  66.6995049  72.0644539  25.9916092  16.9554642
  72.4034959  26.7924525  17.3553780  72.7851778  25.3655364  17.0248917
  77.6874643  47.1542860   7.9055956  76.8299132  47.1330859   7.4808720
  77.5836330  47.7784182   8.6238697  69.0867665  35.7261806  51.8796873
  68.7578824  35.2842575  51.0968924  69.1355517  36.6492229  51.6309738
  24.0322995  53.9017630  68.0738831  24.6003294  54.6084070  68.3808470
  23.2898521  54.3500662  67.6688814   9.4544193  10.3204685  60.6598330
   9.1678974   9.4568973  60.9571266   8.6519739  10.8413559  60.6283808
  55.0506571  15.7270389  55.5487919  55.8949521  15.2765613  55.5272150
  55.0510457  16.1967426  56.3828230  11.4347338  33.6371924   8.3396271
  11.5515875  33.4597327   9.2729452  12.3240923  33.6557938   7.9861763
  81.8158722  70.5364084  53.6980581  81.5563488  70.3038359  52.8065443
  81.0750484  70.2671337  54.2411137   7.7363229  17.0785749  32.7822113
   8.6116427  17.1126747  33.1680679   7.7323282  17.7836132  32.1348047
  66.4915565  67.4279768  25.1405215  67.0695803  67.4451608  25.9032941
  66.5705338  66.5368170  24.8001862   4.4119480  12.4066341  40.6998968
   5.0112921  11.6698611  40.8189964   4.2215461  12.4112821  39.7618365
  22.0558831  39.4307355  12.8602532  21.9162073  40.3493745  12.6304177
  22.1647110  39.4356444  13.8112286  80.9583330  40.5290174  49.3601799
  81.1829182  40.3661442  50.2762938  81.2552360  41.4241219  49.1962767
  57.9082161  25.9987593  41.3266420  58.2893735  26.8497539  41.1104059
  58.5702640  25.5707836  41.8695641  36.4119816  22.2099233  37.2058153
  37.0119858  22.2786975  36.4631867  36.8356252  22.7103853  37.9031634
  56.3808757  29.2308831  43.9827871  56.8319017  29.3364692  43.1451368
  57.0672423  28.9581323  44.5916700  50.5878907   3.3751076  63.9199305
  50.1908117   2.9313338  63.1705141  51.4991909   3.0822706  63.9164019
  76.4901861  41.1010765   3.9033917  76.2782868  40.7834430   4.7811392
  76.1641988  40.4187208   3.3165768  11.2077475  27.9765320  63.9134264
  10.3765464  28.0384898  63.4427881  10.9644783  28.0321884  64.8375225
  23.2130265  21.9240189  42.3464346  23.2162046  21.1618280  41.7673969
  24.0222907  21.8445492  42.8514194  45.9548950  15.5182910  58.3818102
  45.9446573  16.4721739  58.3028507  45.4980707  15.3411078  59.2040920
  71.5184420  31.0979867  48.5624552  71.0313588  30.8382702  49.3444586
  71.7102772  30.2738118  48.1150484  23.8733160  68.2838507  11.4583996
  23.4191891  67.8014632  10.7675293  23.7122944  69.2047950  11.2530544
  50.2858827  79.4787880  66.0780001  50.2461884  78.7027881  66.6369963
  51.1920837  79.5067198  65.7709932  34.5828882  70.6272980   4.3034104
  35.4913851  70.3271027   4.3307570  34.2057439  70.1805945   3.5454872
   5.4404062  23.5462594  62.5027466   4.6851945  23.5984445  63.0885506
   5.1670039  22.9417682  61.8127680  77.3838696  62.4035188  19.3857887
  77.9458579  63.0459305  19.8190430  76.7185339  62.1879407  20.0393131
  20.3074503  22.0609760  50.1095390  20.5604291  22.9386520  49.8233271
  20.0860763  21.5997529  49.3005276  79.6814946  64.6049959  11.4997470
  80.2904585  64.5999760  10.7612550  78.9299730  64.0971321  11.1939371
  80.7750201   0.5055154  61.1400223  81.0697406   0.0366048  60.3593206
  81.5819895   0.8076850  61.5568256  46.3718659   0.4117407  26.2237453
  46.4226514  -0.3460236  25.6411266  46.6009337   0.0662693  27.0865369
  56.2081817  50.9139617   4.1777781  55.5070260  50.9149309   3.5261563
  57.0065024  50.7674464   3.6703804   8.7331164  18.3659530  50.8497953
   9.2363453  19.0635431  50.4298401   8.1604123  18.8217723  51.4666176
  82.9394150  35.8643222  26.0300612  83.8751563  36.0599804  25.9817076
  82.7780285  35.6937408  26.9580102  83.4351054  36.5484691  52.2988176
  84.2244020  36.0736656  52.5592089  83.2919064  37.1799064  53.0038071
   6.3438237  42.9702330  46.0010958   5.4513603  42.6328897  46.0781765
   6.2674868  43.7157249  45.4055738  12.6257300  18.1337023  56.5883636
  12.8679514  17.6718724  57.3910284  12.8628075  19.0458024  56.7559910
  29.0418130  13.2903063  44.6003628  28.1681138  13.6588943  44.7308302
  28.9096147  12.3428917  44.6344280  45.1255885  79.1536408  65.4139709
  45.6994012  78.3949096  65.5202627  44.9461809  79.1884940  64.4743776
   0.9438693  34.7389603  40.3387308   1.5100804  34.3750358  39.6581435
   1.4370397  34.6186161  41.1502314  17.9577282  80.2683670  49.9825287
  18.4794215  79.5202438  49.6920490  17.2723201  80.3541416  49.3198872
   8.0608022  28.8893342  47.8490925   7.1236736  29.0805936  47.8870773
   8.3569318  28.9614129  48.7564754  58.4600904  46.0966200  49.0446711
  58.9680931  46.8732161  48.8100195  59.0522161  45.5789060  49.5901871
  18.7800384   2.4773251  48.4091282  18.0278301   2.7741098  48.9213133
  19.2775738   1.9250736  49.0122128  75.7843882  15.9439480  53.5482645
  75.4560786  15.5573881  54.3600607  75.7670647  16.8875396  53.7081623
  82.1473434   1.5880473  39.5422077  83.0228230   1.9591007  39.4322681
  81.8370730   1.9483893  40.3729439  76.4142889   5.5079234  41.9707823
  75.6141728   5.3390664  41.4732552  76.9353342   4.7121322  41.8637276
  72.7152651  78.4786320  57.3760509  72.1316463  79.0221834  57.9053640
  72.4267369  78.6244059  56.4750910  40.8765459   2.1171576  37.4960780
  39.9270892   2.0626956  37.3874521  41.0033464   2.7977237  38.1571245
  31.1560377  78.0008288   3.5288313  31.4647814  78.3833524   4.3501642
  31.5769717  78.5249158   2.8473786  22.7886105  38.1617856  66.4182901
  23.6357903  37.7544999  66.2376356  22.1917391  37.4250317  66.5493250
  56.6907188  73.3683009  42.2049475  56.0713221  72.7521271  41.8139124
  57.4212891  73.3980191  41.5872002  83.8236220   7.4426621  29.5201778
  84.0009463   7.3412710  28.5850263  83.9531007   8.3759725  29.6886969
   7.6170829  48.6923875  24.0299538   8.3465460  48.2498743  23.5960129
   7.4442413  49.4600334  23.4849003  77.9173410  31.7148566  48.1383467
  77.3109823  32.1703553  47.5543261  77.8454137  32.1825933  48.9703846
  71.8331450  47.0936871  44.2944670  71.4158815  47.4251127  45.0896263
  72.6104599  47.6415730  44.1856813  70.6904453  74.1769028  44.0862083
  69.8798484  74.6580982  43.9200211  71.1184722  74.1263294  43.2315302
   1.6615640   9.8060703  10.8265221   1.2177046  10.4958558  11.3198960
   1.1232531   9.0270859  10.9666526   4.2487219  41.7187071  41.7915630
   4.5535457  42.6260757  41.7911291   4.6143404  41.3428307  40.9907675
  65.6314641  11.6351867  48.1430721  65.8559805  10.7202530  48.3125448
  64.9744207  11.5958047  47.4481106   6.5956277  28.8247776  30.8859277
   6.9200736  28.2831120  30.1665092   5.7038307  28.5120010  31.0379148
  85.6452590  66.5106344  39.7067571  86.5204763  66.6120338  39.3326640
  85.3953767  67.3949480  39.9746823  15.4455757  16.8573308  34.1667867
  15.3201139  17.6350999  34.7104454  15.0871062  17.1012414  33.3134174
   0.9830430  78.5066458  15.0937203   1.4687827  79.0397926  14.4644001
   0.7868340  77.6976510  14.6212128   0.0479713  42.6603603  59.9002075
  -0.3001633  43.5208368  59.6665096   0.9931259  42.7950716  59.9692535
  78.7626749   6.7158139  29.8144937  78.3152783   7.2883660  29.1913939
  79.5233911   7.2213721  30.1007676   1.6400592  33.5139251  48.6021900
   0.7377835  33.7979078  48.4556103   1.9181803  33.1552792  47.7594233
  43.9912849  14.2020823   4.2698458  44.0238279  14.6613289   5.1090506
  43.8055914  14.8879696   3.6285141  26.4507749  67.0686456  10.7337502
  25.8887642  66.4749022  10.2359036  26.1442841  67.9438515  10.4964474
   4.6284842  27.3008633  11.9728625   5.4041862  27.8468657  12.1009219
   4.4740820  27.3218369  11.0284305  21.7718363  29.3453550  32.7243614
  21.5677047  30.2583647  32.5219440  21.0681200  29.0668392  33.3104014
  29.9082783  77.4430773  67.8397274  29.3268112  78.1301088  68.1654787
  30.7362154  77.8916225  67.6677942  75.7606095  16.0143483  42.1170187
  76.2068057  15.8335483  42.9443359  75.3127068  16.8475020  42.2635508
  69.9719542  20.4869032  41.2817907  69.8437291  20.8890224  42.1409130
  70.8876973  20.6655908  41.0679722   1.9033916  23.4263420  45.4760551
   2.7707994  23.1289816  45.7506704   2.0649377  23.9343619  44.6810389
  13.8093174  34.3203020  64.8799801  14.5932865  34.4689250  65.4086876
  13.8891029  33.4138918  64.5828485  84.9161301  24.1959667  38.4084749
  85.1507829  24.4685698  39.2955256  84.2984265  24.8628139  38.1084919
  78.3093625   5.4996134  10.0176171  78.1473761   5.3978278  10.9554985
  77.4423366   5.4379918   9.6167353  20.1728582  19.8368335  64.9107838
  20.5266309  18.9879656  65.1762962  19.2443585  19.7913122  65.1389265
  76.8536359  47.1457243  46.9957256  75.9891951  47.5145769  47.1771669
  76.8144327  46.8849230  46.0755777  57.7081209  54.6413326  55.5082750
  57.0343882  55.0468779  54.9625206  57.4027544  54.7760201  56.4054060
  33.8250836  48.6537011   7.1293715  34.4193557  49.4040819   7.1283701
  33.0241295  48.9819547   6.7207697  33.0203342  28.4740615  42.1712732
  32.5584102  28.6740851  42.9854250  33.5452485  27.7006507  42.3775101
  18.2297683  31.8048644  34.4708705  18.2164514  32.1752381  35.3534102
  17.3202550  31.8542838  34.1766334  57.1661074  16.5125634  35.0404194
  57.4396947  17.4222590  35.1580456  56.8638443  16.4687468  34.1332558
  12.9412746  29.1688776  38.5165644  13.0802667  30.1148438  38.5619426
  13.4676540  28.8147950  39.2333508   7.4629760  67.5996304  49.7487450
   7.2060555  66.7553616  50.1194715   6.9661057  68.2438421  50.2530718
  59.4486072  56.2542470   7.7435520  59.3089774  55.6901141   8.5041359
  58.5667494  56.4687534   7.4393347  13.2896614  41.5951490  63.2035923
  13.6365318  42.1080637  62.4736357  13.0227184  40.7654810  62.8078365
  16.1384904  19.7198749  17.7016354  15.7029474  19.1807294  17.0414412
  16.1090922  19.1918647  18.4994900  49.4916609  77.5711457  67.7223635
  49.4632688  76.6853431  67.3607302  48.6425302  77.9499925  67.4950218
  58.2519489  33.9721417  51.0574436  57.6217610  33.3652830  50.6690931
  58.4029013  33.6294389  51.9383526  37.9520917  22.8563261  24.4786978
  38.5637283  22.8888702  25.2142763  37.9638314  23.7429047  24.1180396
  35.6738952  65.3752037  25.0787476  35.2018651  65.8541342  25.7599571
  36.2431916  64.7741624  25.5592564  15.0556800  76.8280602  62.3076630
  15.3160426  76.6821540  61.3981819  14.8408124  75.9558029  62.6381636
  15.8184469  20.9923363  50.9334564  15.8483338  20.5227470  50.0998974
  16.6004980  20.6996727  51.4014101  32.5539309  50.8645268  17.5374821
  32.1970552  50.3904589  16.7863968  32.9324758  51.6591521  17.1613148
  79.3669012  78.5020803  43.7003183  79.9719122  78.7237295  42.9924583
  78.7299517  77.9133496  43.2954502   0.2188593  26.9922376  37.4962616
   0.7292156  27.4771905  36.8477321   0.6353869  26.1312318  37.5337172
  11.8113041  25.7530022  38.5585999  12.7035177  25.8853269  38.8790345
  11.5906370  24.8607922  38.8259935  81.1429825  13.7757993  23.6227393
  81.6545662  13.7265289  22.8152204  80.5496824  13.0260718  23.5765195
   8.3321840  46.5751696  29.5083499   7.8924644  46.0412455  30.1700187
   7.8763002  47.4163246  29.5376563   0.9799766   0.8716656  15.3219345
   0.4777026   0.7762791  14.5127037   1.8699526   1.0684945  15.0296524
  75.2450114  17.0839489  48.6011028  74.8417658  16.6148734  49.3315792
  75.8665305  17.6828527  49.0149403  74.9601740  31.4591980  23.9158106
  75.0862867  32.3522735  23.5952735  74.3540937  31.0633087  23.2895732
   6.8052113  50.0649261  42.4449539   7.3867851  50.8206081  42.3615980
   7.3524362  49.3834591  42.8353119  84.6956441  35.3241277  49.1939306
  85.4910526  35.8486772  49.1022587  84.0385860  35.9400654  49.5181608
  74.1250187  48.0929232  43.2034016  73.4771925  47.5782967  42.7220345
  74.5337707  48.6463451  42.5379086  62.2967940  50.8052254  48.1674099
  62.8259379  50.0388336  47.9463148  62.4233943  50.9200764  49.1092253
  68.1771094  10.4979122  50.8915949  67.9545504  11.3683438  50.5613661
  68.5589880  10.0465715  50.1388073  52.0337889  69.3923551  54.3483162
  52.7081099  69.9963123  54.0372562  51.2245634  69.9029619  54.3224955
  14.1745224  76.1031361  50.4456452  15.0649026  75.8509227  50.2010182
  14.2816153  76.9238849  50.9264115  49.5686036  54.5405293  55.8252287
  50.3144985  54.6236420  56.4193392  49.0892512  53.7774277  56.1479139
  27.2558479  21.3982077   6.5831116  28.1494878  21.1209234   6.7849854
  26.8281243  20.6073936   6.2546375  24.3982458  76.2183543   1.8304852
  24.2142352  76.7381712   1.0480765  23.6017558  76.2875982   2.3568323
  74.2669156  64.8719688  15.8821610  74.4990352  65.1748248  15.0043038
  74.1521600  65.6751438  16.3900688   5.4173541  34.7183275  59.8229408
   6.3652837  34.7694087  59.7002554   5.2885145  33.9470601  60.3750086
  52.3862466  78.1209422  41.7108822  52.9624436  77.3660741  41.8308973
  52.9410398  78.8780004  41.8987608  84.5335917  31.5278864  63.1923103
  83.7923723  31.1030436  62.7606440  84.3422699  31.4515352  64.1270828
  40.7067218  53.3344467  12.5907543  41.2212696  54.1080566  12.8209713
  40.5602112  52.8874572  13.4243992   7.2882885  20.2545834  51.9023514
   6.5238208  19.7065461  52.0797682   6.9873255  21.1474061  52.0712328
  10.2658248  78.6568356  31.4905572   9.9329221  78.1430387  32.2263694
   9.5166552  79.1798925  31.2052727  74.3980437  11.0379197   7.9011801
  74.6414977  10.7365490   7.0258883  73.7490302  10.4017283   8.2016352
  11.3458350  41.6435843  13.5297230  11.9026866  41.0980710  12.9742459
  11.2420395  41.1374118  14.3354824  59.0917657   6.5502669  21.1864689
  58.7298916   5.8360697  21.7110756  58.8581876   6.3276698  20.2852848
  52.5440266  67.7108904   1.1188105  52.2198871  68.5973044   0.9593180
  51.9669512  67.3636099   1.7989662  20.5646372  66.8175793  46.5374947
  20.3184819  67.5400448  45.9598398  20.4433465  66.0322475  46.0038519
  25.3203380  64.7867342   1.2757567  25.1098573  65.7131501   1.1587933
  24.4811055  64.3744465   1.4805535  70.5880338  12.0911908  37.2844434
  71.4008111  12.4417686  37.6487517  70.5883545  11.1691999  37.5416684
  82.8393393   4.1660572   4.1331557  83.6915427   4.4129778   3.7739781
  82.3815303   3.7528016   3.4011248  14.4517720  54.1934681  59.0607500
  14.4204402  53.2837820  58.7645674  14.7590518  54.1402531  59.9657249
  32.0889884  80.7971736  16.3850144  31.5279177  81.3049670  15.7988575
  31.5312811  80.5973168  17.1368435  70.6690222  26.8757153  45.8842802
  70.5198854  26.8995595  46.8294907  70.6908089  27.7960086  45.6219530
   1.9954179  43.8796854  50.7255030   1.7304067  44.1015291  49.8328733
   1.2079486  43.5091639  51.1240482  81.9475126  57.1952343  58.4581089
  81.8877512  57.3902798  59.3933201  82.1089035  58.0440903  58.0462456
  69.3452448  58.2465839  50.0676823  69.2280143  57.4877596  49.4961262
  69.3432993  58.9967871  49.4731903   0.2705914  18.8690817  48.7634611
  -0.3004998  19.3598390  49.3544292   0.4445124  18.0486727  49.2248821
   3.4394154  18.7177110  66.4049482   3.3018902  17.7933931  66.1976910
   4.1905051  18.9739943  65.8697701  23.0432391  24.3611050  54.3952990
  23.2445955  24.1002965  55.2939987  22.3414946  23.7686586  54.1254950
  68.5251811  78.9948965  53.0760241  68.6400345  78.5992618  53.9400339
  69.3932131  78.9506560  52.6750326  16.0558033  34.1959834  23.3432198
  15.9426880  34.0836549  24.2870522  16.2360609  35.1295781  23.2330298
  32.7316373  66.4302202   7.0053461  33.2078662  67.0856806   7.5150612
  31.8651065  66.3950010   7.4104574  22.7084160   7.6573294  63.4519529
  22.8203082   6.7224640  63.2795000  22.2752714   7.9953110  62.6681232
  25.5048037   2.8115693  62.9605436  25.8592701   2.9198661  62.0780134
  25.3401613   1.8718949  63.0388832  52.0492509  71.5149017   3.8566902
  51.4420703  70.8341261   4.1467074  51.7913869  71.6966649   2.9529741
  71.7071181   1.2013640  56.0578585  71.3935071   0.6322351  55.3550291
  72.3335177   0.6624195  56.5409660  64.1170868  80.1957507  51.4832211
  64.7415683  79.7367991  52.0450211  64.6309069  80.8906016  51.0716343
   4.7118214  35.1817036  45.5720234   4.7633475  34.2562461  45.3330517
   5.6158251  35.4924822  45.5227661   4.5864525  21.7332840  60.6689453
   3.6565185  21.5100288  60.6287909   5.0299203  20.8926082  60.7822323
  71.1877209  30.0449467  57.2086143  70.6586593  29.6982932  57.9270554
  71.4067477  29.2773128  56.6804123   4.3579707  50.5666542  38.1655765
   3.8698995  51.3196850  37.8324580   3.7768948  50.1736879  38.8168502
  58.8101006  11.5620089  68.0641794  58.5776329  10.9328973  67.3812389
  59.7652054  11.6134953  68.0273390  76.5144581  29.1826701  41.7404366
  77.2543389  29.7463655  41.9663954  76.4413124  29.2534828  40.7886696
  11.3704371  20.1235844   8.2772186  12.1592164  20.6644751   8.3159569
  10.7237482  20.6058909   8.7923935  67.6803142  62.2449732  38.4769154
  67.8327376  61.9111538  37.5928545  67.3627859  61.4869928  38.9677072
  73.2824379   8.0341429  68.2898664  72.7491552   7.4312925  68.8079500
  72.6712805   8.7165642  68.0123425  14.2878842  73.5819435  49.3569660
  14.0659392  74.4553995  49.6795225  14.2164946  73.0171585  50.1264811
  33.9084890  62.7851983  21.4653519  33.9367041  63.3353372  22.2481564
  34.8045197  62.8010627  21.1290386  73.1478602  23.0807519  53.7274170
  72.7061361  22.3983192  53.2220459  72.9498786  22.8692484  54.6397209
  20.2090621  29.4660807  63.1594372  19.3250632  29.5709276  62.8076124
  20.3685546  28.5227442  63.1292105  20.6966758  48.8969994  15.1299632
  20.5108309  49.5752525  15.7793176  21.6412163  48.7559319  15.1945758
   9.8408782  33.6013675  50.7241106  10.1726568  32.8600478  51.2306690
   9.0555680  33.8807368  51.1947203  31.9996595  20.3560257  46.1125422
  32.5230527  19.5977831  46.3720798  31.9076657  20.8695745  46.9150591
  81.2071806   1.4175106  24.3151596  80.3991180   1.4966465  24.8221043
  81.1930996   2.1695019  23.7230900  29.9071932  12.7599525  52.8985214
  30.5937982  12.9121435  53.5478640  29.2362165  12.2667682  53.3705282
  80.1506674  34.6793318  30.1747656  80.2043021  34.7726321  31.1258960
  79.3422592  34.1884041  30.0274682  79.0458405  43.8259602  45.1051188
  79.9991244  43.7468958  45.0700474  78.7240010  42.9680538  44.8282766
  82.5881326  33.9349127  63.9533997  82.0385560  33.2068205  63.6634350
  83.4710410  33.5673642  63.9935589  63.0735236  22.5951862  51.3485861
  63.9524037  22.9426193  51.5005541  62.7133685  22.4628139  52.2255135
  77.3373020  41.0603333  65.4678679  76.9417846  41.7270470  64.9063587
  77.6794046  41.5495729  66.2160921  76.9464451  28.1008196  58.9236069
  76.0709715  28.4805083  58.8486862  77.3763961  28.6221433  59.6015453
   8.0686349  41.1210823  44.0298080   7.8066182  41.5564632  44.8409891
   8.2523173  40.2186728  44.2908573  55.9900933  19.8947656  48.3836746
  56.3195401  19.1460800  47.8865194  56.3817054  19.7969627  49.2516088
  24.5604920   0.3593900  39.1474390  24.3440866  -0.0215442  39.9984908
  25.5163717   0.3288941  39.1074657  45.5519774  19.2818709  18.9568546
  45.5431881  19.5424338  18.0358437  46.4762535  19.3080540  19.2043617
  79.9190366  38.1927562  62.2769976  79.0270263  38.4505939  62.0444679
  80.3637779  38.0841064  61.4363813  82.2338644  28.4222889  50.9120798
  81.8449616  28.7732959  50.1109695  83.1239730  28.7742400  50.9203625
   4.1507366  49.0568829  68.2946920   4.1081387  49.2754126  67.3637438
   4.8770201  49.5819139  68.6309719  83.8753828  71.3269516   2.6645401
  83.8484534  71.0575600   3.5826567  84.3557176  70.6263371   2.2233465
  67.9964012   7.3465973  42.5891209  68.6648899   6.7897803  42.9882574
  67.9255479   7.0282018  41.6892147  74.6920997   6.7567718  64.0064096
  73.8694936   6.6511643  63.5284996  75.0389737   7.5959563  63.7036228
  64.6256607  25.6198288   3.8719156  65.1467663  24.9528338   3.4249285
  64.9716079  26.4512612   3.5474613  64.0742731  33.8745953   3.3191088
  63.5611903  33.9087702   2.5117615  63.9054882  33.0015351   3.6733845
  72.9842216  12.4574411  33.3374572  73.8985771  12.5396872  33.6084199
  72.8034490  13.2649183  32.8562784   7.5104445  44.1411638  57.6056957
   7.2650003  44.2673540  56.6891479   8.1068105  43.3925533  57.5930643
  65.7976872  43.4646368  47.9683018  65.9546894  42.5991011  48.3457041
  66.6059512  43.9492321  48.1359577  65.9586078  26.9789147  25.2488327
  66.0849136  26.0411286  25.3931832  65.1013809  27.0431209  24.8277950
  33.9378139  65.8913537  21.5807751  34.8174956  65.5371900  21.4505413
  34.0774044  66.8229814  21.7505196  83.1993100   9.3879616  67.8933811
  82.2848940   9.5935082  68.0878735  83.1938016   8.4564543  67.6731682
  15.8663058  44.0649796  35.1103830  16.4351654  43.4165049  34.6955204
  16.3976443  44.8602533  35.1484752  31.4431381  75.4622002  16.6389969
  30.6582132  74.9769040  16.8931893  31.7452663  75.8708235  17.4501541
  83.7865071  12.6101232  63.1360197  83.2181632  12.8471506  62.4031925
  83.2064089  12.6059210  63.8973999   8.8081422  57.6061102  12.4370030
   7.9702857  58.0689176  12.4432400   8.6650112  56.8594511  11.8554142
  79.3686318  10.0552464  48.8670158  80.2147299  10.1325381  49.3078947
  78.8009494   9.6314764  49.5107460  11.5607131  25.3095078  35.7231355
  11.6204762  25.6223679  36.6257858  11.0829270  25.9988403  35.2618599
  76.7282516   8.1220323  47.2954893  76.7930889   9.0194803  46.9689703
  76.9950282   7.5777626  46.5546560  70.0138956  22.5409555  46.3490295
  70.0571817  21.6247892  46.6228819  69.9549657  23.0331707  47.1678591
  15.6352496  31.9523072  45.9371281  16.5885878  31.9269800  45.8550406
  15.3533864  32.5728989  45.2650785  15.6303489  46.1153078  30.3244472
  14.7272909  46.4252520  30.2562308  16.0233390  46.3347149  29.4796681
  47.6826173  18.8965344  36.9979692  48.2230073  19.3139100  37.6687956
  47.1948177  19.6178007  36.6004038  36.8199944  31.3657784  49.1365099
  36.0225916  31.7940784  48.8251543  37.4086690  31.3778591  48.3818245
   6.5974486  19.8564875  59.1317940   6.3737309  19.6198332  60.0318956
   6.2546945  19.1363132  58.6025524  42.2559228  50.7327588   2.9433897
  42.2477081  50.7057865   1.9866064  41.5801611  50.1079448   3.2064226
  17.8601384  62.7701378  61.4609480  18.2509482  62.7495337  60.5874062
  18.4505832  62.2437716  61.9999695  80.6983793  59.1789341  31.0659027
  81.3513493  59.7782803  30.7044482  80.1008660  59.0083027  30.3378248
  22.0997787  43.7374163  61.8558025  22.5491166  44.5276499  61.5560389
  22.7819490  43.2232141  62.2876263  41.0662174  24.2286754  31.1197996
  40.7923126  25.1344156  31.2641668  40.3036833  23.8083267  30.7222080
  38.3808255  16.2198913  55.4154158  38.7995863  16.1395788  56.2724018
  38.9424562  16.8242645  54.9300957  25.3333047  60.2771181  66.1070728
  25.4469875  60.9833783  65.4710627  24.8708275  59.5921320  65.6242228
  55.1662636  31.7259836  50.1112461  54.3591022  31.3343334  49.7775841
  55.7420492  31.7748308  49.3481493  20.4865670  27.5872302  22.1335864
  19.5985389  27.2473288  22.2435999  20.9067464  27.4381113  22.9806066
   8.4653976  52.9329022  10.8423641   7.8674295  52.4498578  11.4127377
   8.7624708  52.2851558  10.2032974  14.9257445  25.8721519  27.9817605
  14.7829115  26.7861438  28.2276249  14.3417048  25.7304573  27.2367406
  11.0483003  35.6647754  52.7428532  10.2332318  35.1643705  52.7042437
  11.6356504  35.1253915  53.2723045  71.2482506  14.6707165  52.8083372
  71.0085601  13.8690805  52.3434067  70.6661338  15.3397191  52.4480486
  33.8171077  18.2705116  53.0531216  34.7063184  17.9384160  52.9296303
  33.2669735  17.4871969  53.0548382  35.9813809   4.5581946  68.3336115
  36.4468145   3.7222204  68.3062172  36.6694784   5.2182883  68.2497549
  17.1285656  13.0938011  51.0998154  17.3048499  13.3629184  50.1982975
  17.9047432  13.3686119  51.5879345  19.6760368  30.6672812  21.5362978
  19.3401206  31.2234402  22.2392035  20.1495743  29.9692297  21.9887543
  23.5045314  34.7146463  42.0728350  23.8014245  33.8631678  41.7517948
  23.6510372  34.6785927  43.0180693  47.6076951  76.1154958   3.7563160
  47.9829636  76.9189139   4.1167668  48.1493512  75.9201976   2.9916599
  62.3190963  31.1107041   7.4685791  62.8745961  30.4842450   7.0046786
  61.4621645  31.0263897   7.0504978  59.2325312  48.7991047  48.1099892
  59.2313391  48.7949085  47.1528006  59.7642547  49.5593929  48.3455086
  13.7161648  31.5189409  64.6952343  12.9384160  31.2287021  64.2186832
  13.4877706  31.4059329  65.6178904  55.7015711  56.1799145  44.8706150
  55.4770976  56.0375595  43.9510632  55.3374678  57.0411253  45.0754929
  11.1915612  51.5216064  28.7825894  10.6507850  51.2501955  29.5242977
  11.6699612  52.2865868  29.1022205  25.3374850  70.0480147  27.4332264
  24.8485598  69.8720761  28.2371071  26.2537996  70.0664564  27.7093723
  66.7688352  57.3092413  50.7366276  67.2128302  58.0601788  51.1305761
  67.4692196  56.8105412  50.3159285  72.4990266  28.8425279  40.7509947
  73.1121284  28.1222534  40.6042194  71.6362065  28.4577918  40.5968761
  64.7574609   4.1347243  26.6152504  64.2682284   4.8636271  26.9968155
  65.4554569   4.5526864  26.1109284   0.4469561  14.7420670   8.1219509
  -0.4298592  14.9320008   8.4556416   0.9912610  14.6701933   8.9060429
  69.0727907   6.5171505   0.0212649  68.2664090   6.9244410  -0.2951166
  68.7860590   5.6943108   0.4174402   4.6237874  18.3211829  20.3219727
   3.9330506  17.9433896  20.8663872   4.4363188  17.9998518  19.4400242
  25.2701879  33.0215454  69.6509266  24.6764374  33.6513400  69.2422056
  25.9874415  33.5554481  69.9925804  30.1182943  43.1602694   6.1207369
  29.7674733  44.0263201   6.3283947  30.4818016  42.8444411   6.9479874
  57.4410063  54.4376802  68.7397146  57.9340297  54.8541880  69.4465923
  56.8378478  55.1161766  68.4362793  33.1680703  70.1204252  51.6079521
  33.2500935  69.5637417  50.8336067  32.2881794  69.9413538  51.9395542
  50.4949477  76.9030639  18.0557755  50.4231003  76.4035793  18.8691548
  49.8854664  77.6325556  18.1680420  10.5807328  25.0788188  65.7294273
  10.9941399  24.8739076  64.8907757   9.8019671  24.5228362  65.7547522
  59.6588975  14.4507290   8.1497744  59.7314837  13.5005356   8.0598286
  58.7443563  14.6418501   7.9416397  18.0489087  37.2688746  53.4577513
  18.2472908  38.2002807  53.5544777  17.4290347  37.0815539  54.1626644
   4.8978844  44.2600060  51.3634443   4.4095606  44.9620676  51.7934227
   4.2594960  43.8444138  50.7838106  16.4027917  49.0106964  21.3558531
  16.6573846  48.1743383  21.7456174  15.6457758  49.2934608  21.8688893
  12.0136011  55.4083109  58.6888504  12.0911384  56.3313532  58.4475708
  12.8621936  55.1892614  59.0737391  84.5413057  68.0035830  47.1410799
  85.3121848  68.5496044  47.2954845  83.8195236  68.6265945  47.0566988
   3.5539377  49.2028046  48.5172844   3.2806113  49.5747852  49.3558264
   3.7115628  49.9633598  47.9578686  58.5722166  66.0999632  45.6118774
  59.0260249  66.7304564  46.1711359  57.9243022  65.6926918  46.1868286
  77.1490055   2.6928212  13.9623860  77.3303466   2.2704960  13.1227425
  78.0116087   2.8225113  14.3565014  20.1612353  71.4186144  27.3296952
  20.9371734  71.0537100  27.7551317  20.2855992  72.3665190  27.3770189
   3.6580798  55.7623196  69.4754887   3.0781513  55.5855608  68.7347651
   3.4953332  56.6800642  69.6934128   3.2895261  55.5414486  31.8789697
   2.8113708  55.7021332  32.6924682   2.9384768  56.1851788  31.2636590
  83.4819278  37.8718686  44.4910049  84.2876571  37.4894667  44.1434431
  83.7128521  38.1533575  45.3762579  16.0685610  46.8145491   3.7718323
  15.7754731  46.5046145   2.9149368  16.4900279  47.6547934   3.5913113
  83.4008337  60.1395845  52.1976757  83.4461139  60.3361607  51.2619734
  83.0961201  59.2330551  52.2374964  82.2312269  70.5815697  60.4198551
  82.7847752  70.8989668  61.1333513  82.2450617  69.6288776  60.5116081
  15.0613916  77.3753500  66.2527370  15.7757354  76.9973278  66.7656183
  14.7830558  78.1399155  66.7569208  21.3304424  26.1056685  42.8189564
  20.7857132  25.5600333  43.3862162  21.2332678  26.9900131  43.1721210
  79.9504888  63.5582829  26.9685173  79.1693360  63.6718702  26.4271021
  80.2535880  64.4495678  27.1416450  54.3199735  37.0567728   4.6844986
  55.1617790  37.5082709   4.7457007  53.7904658  37.6136137   4.1137293
  23.2833552  45.9950829  61.1701202  23.1462121  46.8576002  61.5618944
  24.2262387  45.8465910  61.2419128  78.9694619  28.3573508  54.5964813
  78.7563497  27.7689099  53.8722229  78.1193972  28.6240482  54.9464703
   2.4094298  49.7052159   4.4278887   2.1732834  49.1586312   5.1773623
   2.8966120  50.4360058   4.8084524   2.9868084  53.0499744  43.1673384
   2.2251290  53.5694361  42.9099703   3.5866353  53.6833715  43.5613585
  72.9315358  25.7246423  53.6928368  73.6199778  26.0332680  53.1037426
  73.0475813  24.7748923  53.7200546  23.3807683  28.6559939  37.9510713
  23.6581135  28.8207388  38.8522768  23.9969850  27.9990530  37.6271296
  22.9897690  53.3969927  55.9518433  22.1539783  53.0314779  56.2418175
  23.0336165  54.2564487  56.3709450  12.1358704   5.7768847   4.3441084
  12.9579949   5.2867247   4.3532398  11.7105412   5.5160023   3.5272434
  11.9354880  27.0347142  54.7261238  11.1853647  26.4907455  54.9662209
  11.7759907  27.8700376  55.1654720   5.0569701  20.6362368  14.3655709
   4.8137354  20.7459237  15.2848271   4.4603657  19.9628712  14.0386608
  21.3640285  62.7190971  56.8050528  21.5757990  63.5978889  56.4902353
  20.8564615  62.3261547  56.0949755  76.5440184  34.6364665  56.1213875
  76.8177253  35.5456996  56.0004950  76.8698949  34.1828632  55.3440332
  67.9217094  33.1619763   1.4110339  67.9143757  32.3031592   1.8336605
  67.2295016  33.1104851   0.7519218  82.2714567  52.3938370  67.9023170
  82.1053374  53.0268717  68.6008167  81.9908759  52.8398228  67.1031904
   6.4895189  79.7090530  47.3102331   6.3903719  80.5511093  47.7544689
   5.6238061  79.3046999  47.3674059  83.1356019  70.3191090  42.4649763
  82.1953678  70.1398563  42.4572802  83.1972325  71.2742329  42.4783945
  51.4976489   3.8792540  11.1602143  52.1299624   3.2914044  11.5735462
  51.3246744   3.4828068  10.3063229   3.0548802  45.3468657  42.2679377
   3.3729947  46.1531830  42.6739979   2.4171504  44.9999666  42.8917885
  75.1682093  77.0511313  16.6441849  75.9266236  77.4287911  17.0896176
  75.3978827  77.0783826  15.7153443  21.5665388  39.2732882  58.5351324
  21.8699336  38.3759713  58.3972645  21.8305397  39.7398829  57.7421474
  37.7761793  26.3793468  50.2755213  38.6997437  26.5656614  50.1065683
  37.3062325  27.1036863  49.8623466  81.6508967  65.9641600  13.5686743
  81.2512046  66.0434198  12.7025354  82.4918866  66.4138269  13.4864295
   0.6833022  30.1019955  31.3197565   0.8849742  30.6634378  30.5711961
   0.0457453  29.4727898  30.9823346  39.0030449   4.8447396  54.7974995
  38.4656888   4.0543391  54.7451142  39.8245054   4.5502593  55.1908329
  16.2493253  16.8131137  68.8597012  15.5860364  17.0891416  68.2271767
  15.7847047  16.2207758  69.4508791  73.4947258  47.2830820  37.4602580
  73.9782637  47.9514742  36.9747949  73.5585684  47.5581741  38.3748507
  22.1438098  57.3444176  59.2118692  21.3502598  57.8621721  59.3476677
  22.4201536  57.0939541  60.0934219  38.1210890  51.4155789   5.2956703
  37.6178422  51.1129304   4.5397738  38.5106376  50.6199249   5.6581858
  45.4812717  69.6425104  64.4724035  46.1942625  69.8178864  63.8582993
  45.9011984  69.6400881  65.3325748  14.9851384  68.3775159   1.9732407
  15.7989540  67.8740235   1.9525078  15.1602092  69.0905376   2.5873926
  51.4962959  71.4911938  44.4494677  51.3976145  71.9966459  43.6426163
  52.3386955  71.0471487  44.3524122   3.1505671  52.3736811  70.1984596
   3.5895851  53.1797934  70.4698896   3.4986129  52.1937990  69.3251133
  27.2860783  74.8282095   1.0207918  26.4058397  74.6570631   1.3556317
  27.8576420  74.7134562   1.7799881   6.5875864  73.7097073  61.7271519
   6.1883205  74.1413927  62.4824429   7.4020767  73.3384991  62.0663357
  72.5855929  44.7933531  64.3807888  71.8604594  44.5543432  64.9581003
  72.8222424  43.9759541  63.9425087   4.0443265  18.9202189  69.1045856
   3.8860577  18.7801278  68.1710100   3.1888106  18.7922442  69.5143986
  13.0426571  69.9847575  18.2464722  13.5153839  70.2748009  17.4663189
  12.9393694  69.0407034  18.1267765  82.2599989  19.4688976  54.2276001
  81.5922680  18.8123143  54.4257545  82.5109899  19.8205924  55.0817347
  24.8877215  53.6094713  50.0215673  24.3680668  53.7521839  50.8126545
  25.6739712  54.1394377  50.1526308  41.7576983  19.2795997  30.8184385
  41.4798751  19.8772483  30.1242733  42.1812299  18.5561805  30.3563643
  14.6447345  78.4738346  11.3558415  13.9306137  78.8307019  10.8277252
  14.2063305  78.0043026  12.0654705  30.6417155  13.6379635  37.0478964
  31.2368798  14.0169787  37.6947021  29.8212528  13.5092580  37.5238228
  64.0384072   4.4317891  10.0538948  63.7095439   4.0789534  10.8806923
  63.6064118   5.2815749   9.9674252   4.1100082  40.8027411  69.7510958
   3.7593037  39.9395442  69.5317125   3.6532763  41.0495090  70.5552912
  77.2898298  46.4083529  68.7783003  78.1034392  46.6610432  68.3419323
  77.4947160  45.5755901  69.2034626  45.7676044  66.5639587  17.1310833
  45.6578281  65.6824060  17.4875191  46.0041037  66.4238592  16.2142018
  17.7118957  34.9971390  51.9967556  17.2817707  34.3957210  52.6046371
  17.6887071  35.8444333  52.4414873  30.0468087   9.9890763  43.9432859
  30.0355148   9.2822194  44.5886183  29.1230059  10.1671398  43.7668991
  -0.0340605   5.4307248  25.5116871   0.4996871   4.8227717  26.0232952
   0.4143643   5.4917313  24.6682289   8.5079378  18.6143267  30.6885052
   8.7662274  19.3656385  31.2224030   7.5880098  18.7748361  30.4782653
  57.5992638  14.1327047  52.9824543  58.0849868  14.7502935  53.5291624
  58.0118281  13.2859945  53.1530476  11.8947983  51.8003225  53.0419779
  11.1551988  51.2034655  52.9280281  12.6262665  51.2319851  53.2831764
  53.1995395   3.5464149  33.4007430  52.8675654   4.2631775  33.9413667
  52.6995519   2.7810436  33.6843848  63.4161901  54.5830107  61.3169479
  64.0649939  54.8213816  61.9791174  63.3035183  55.3775024  60.7951117
  54.6702892  65.8945465   5.2182424  54.3695337  65.5660009   4.3709913
  54.9507862  66.7924166   5.0410891   4.6898019  66.3572264  37.3678684
   5.3624994  65.8625031  37.8357935   5.1662517  67.0767117  36.9536614
   8.8124335  56.9918013  24.1493869   8.2948476  56.2019777  24.3059468
   8.6719137  57.1906614  23.2236767  83.5422878  14.8538208  33.7905669
  83.3950575  15.7664061  33.5420871  83.0006045  14.7273076  34.5695424
  72.7486151   5.0997378   3.7299422  73.5379797   5.5941178   3.9506844
  72.9992073   4.1834237   3.8474301  70.6733483  20.1748919  47.8847647
  70.2665085  19.3138969  47.7878141  71.2052101  20.1006246  48.6771297
  20.6464696  41.2478495  62.3341942  21.0806513  40.8812094  63.1044483
  21.1663389  42.0199680  62.1110344  27.6925373  31.2111807  64.0694427
  27.4988222  30.4253197  64.5804501  28.4164238  31.6282630  64.5366240
  18.4228623  50.8950853  66.5521336  18.2847977  51.6586256  67.1126509
  19.3694878  50.7541275  66.5683031  42.5707293  78.7448311  62.6607323
  42.3510408  79.3890762  61.9877386  43.5142469  78.8437510  62.7880907
   0.6186509  20.5764033   1.6435173   0.8750796  19.8137881   1.1249665
  -0.2222658  20.3316428   2.0297554  78.2864785  41.5429163  31.1506248
  79.2062664  41.6284418  30.8998132  77.8332275  42.2045994  30.6281590
  48.9544108  60.3866156   6.3761404  49.7229555  59.8498889   6.1825064
  48.4456530  60.3777619   5.5653885  64.4737464  28.3084752   2.7275446
  64.8693001  28.7576653   1.9805506  63.5553640  28.1976725   2.4815157
  59.7239542  36.6400623  59.9990511  59.8368406  36.2736797  60.8761215
  58.9169788  36.2403917  59.6745634  78.4676421  61.4803600  63.7737274
  77.8678745  60.9810019  63.2195139  78.7894362  62.1816540  63.2072687
  13.8322210  45.2758265  62.9821587  13.3177495  45.9393120  63.4418678
  13.5556781  45.3487730  62.0686817  69.1517419  39.8799777  59.5268154
  69.4754285  38.9845705  59.6253300  68.9286035  39.9532652  58.5988760
  60.6839191   3.1890513  13.6787155  60.1461714   3.9116455  13.3548096
  61.1074867   3.5384489  14.4627693  33.7396121  65.3871536  60.3928328
  34.3785071  65.8574104  60.9284639  34.2033792  65.1988840  59.5769215
  65.1558193  54.1848870   2.7377966  66.0977444  54.3508323   2.7761820
  64.7784456  54.7998603   3.3667877   0.5994367  29.0899683   1.8845061
  -0.2808571  29.0613867   1.5096787   0.4770517  28.8466193   2.8021315
  73.8957983   2.3228194  37.0160416  73.5393398   2.2449948  36.1310986
  73.9173859   3.2650019  37.1835545  31.1457253  49.3697977  15.6409955
  31.0853720  48.9187050  14.7989130  31.6204476  48.7600470  16.2058628
  22.3703027  40.0195312  64.1882372  23.0166626  39.6593094  63.5810423
  22.4849725  39.5098042  64.9902725  82.8759730  26.5280676  37.4754906
  83.7433945  26.5693188  37.0728612  82.6836750  27.4324250  37.7232671
  12.1977592  75.2216625  69.2256212  12.2743320  76.1060810  68.8676167
  12.0421338  75.3544283  70.1607084  43.0074706  78.1817599   8.1881312
  42.9469171  77.2264953   8.1821326  42.4815324  78.4598060   7.4382570
   8.8937902  35.7690121  11.4377335   7.9411077  35.8608080  11.4235047
   9.1381168  35.6646372  10.5181435  13.4066271  30.5597378  16.2457207
  14.1170334  30.5560900  15.6042031  12.7097153  30.0486256  15.8342484
  12.2161520  55.3550196  45.6924009  12.7950954  56.0226727  45.3245735
  12.7123392  54.9831009  46.4215803  12.4650880   0.7959228  66.6242599
  11.7809793   0.6111293  67.2677517  13.0522510   0.0417095  66.6756201
  79.1672974   6.3235928   2.1444681  78.7357121   7.1634938   2.3010853
  80.0922137   6.5457989   2.0377615  69.5976883  51.0026862  19.1397217
  68.9326220  50.3175761  19.0722874  69.8063546  51.2240817  18.2321575
  13.3056664  28.2807232  10.3260925  13.1012654  29.1350533   9.9458721
  13.0535626  28.3614422  11.2459686  24.6004820  58.4147978  61.3099909
  23.9878845  57.7378082  61.5974617  25.2454162  58.4693050  62.0151997
  11.8854785  52.3013163  42.8253937  11.0637498  52.7345371  43.0562878
  11.6641366  51.3707018  42.7908182   3.6483836  11.4167763  10.1435974
   3.5673737  11.4999367   9.1934660   3.0327057  10.7218625  10.3765610
  83.2644921  23.9692379   9.1690090  82.6242953  24.6783663   9.2283371
  83.8528448  24.2361905   8.4627417  83.4917598  25.9787346   3.1933048
  84.0722113  26.0004784   2.4324921  82.8032714  25.3591992   2.9516676
  61.1551192   3.7728267  64.4031572  60.8825758   2.9618793  63.9738512
  60.4542163   3.9606243  65.0274181  70.4470208  15.6906658  64.7154808
  69.8301604  14.9642044  64.8047829  70.3774264  15.9524875  63.7974167
  24.2438006  34.1410614   5.0042799  24.9723744  34.6887375   4.7119406
  23.8263201  34.6491219   5.6998518  70.7634830  56.7476892  67.9538250
  69.9892855  57.2632122  67.7277899  70.4193258  55.8812380  68.1707287
  45.1249018  60.1972075  19.3848637  45.5843320  60.1229914  18.5484150
  45.2828732  61.0985299  19.6657494  59.2713335  26.0940796  59.0750074
  58.3590629  25.8998352  59.2900991  59.5149424  25.4235416  58.4368277
  13.3206009  10.2419306   7.5393704  12.6616644  10.7881190   7.1107510
  13.7213873   9.7456623   6.8257073  74.8978615  72.3137140  28.5207343
  74.1130304  72.6539946  28.0912161  74.8458767  72.6495790  29.4155669
  17.9338121  46.0772085  65.3905344  17.9651749  46.2747955  64.4544744
  17.0122480  46.1826372  65.6268311  22.7748394  60.6490278  68.6146975
  21.9649577  61.0505581  68.9294958  23.0362320  61.1896753  67.8693056
   0.4119398  55.5871725  58.5930824   0.2817733  56.5297222  58.4887695
   1.3626364  55.4771709  58.6106396   9.9990773   5.3632142  11.3763645
   9.9843525   6.3201596  11.3599804  10.8157467   5.1438834  11.8248871
  62.9583209   0.8802296  17.6514843  62.2272419   1.4265467  17.9400852
  62.5561279   0.2213980  17.0854309  24.4525766  59.0677404  58.6659908
  23.5059333  58.9976835  58.5427332  24.6113491  58.6803770  59.5267868
   1.5536141   7.8217055   0.4797915   1.4676570   8.7696721   0.5808094
   1.2152123   7.4618079   1.2996605  71.1120367  44.9247265  48.7449026
  71.1070538  45.8731127  48.8744068  71.6603231  44.7914505  47.9716969
  40.7869101  77.4135971  59.3424606  40.0182343  77.0289850  58.9212132
  41.0560560  76.7623043  59.9902344  40.3216719  26.3874651  23.5948113
  41.0159993  25.7657029  23.8128689  40.7228016  27.2476603  23.7189034
  60.8685329   4.0847355  44.6355200  59.9700382   3.9062076  44.3579102
  60.9225300   3.7221580  45.5197477  17.4510550  27.3483826   0.2195337
  18.0420804  27.7878167   0.8309391  16.9828295  26.7091872   0.7565859
  11.3509488  71.1689472  54.4211435  11.8811643  71.8115377  54.8925066
  10.4738212  71.2634659  54.7925520  21.0142347  16.4013630  53.7771368
  21.4669761  17.0061451  53.1893492  20.1163104  16.7308479  53.8145685
  54.6822241   6.3440662  60.3682375  54.7092512   5.5828243  59.7885656
  54.2167142   7.0120102  59.8648691  63.5954454   3.2886558  52.1030998
  64.4590714   3.6085659  52.3639345  63.2533791   2.8570991  52.8860331
  35.1849103  74.0693712  22.1868992  35.4533935  74.0633011  21.2681437
  35.9557009  74.3834782  22.6596022  22.3012900  48.4235789   5.3984526
  21.7299914  49.1639830   5.1943806  22.0419764  48.1569411   6.2804344
  25.9937549  70.8682442  41.3733339  25.4234076  71.0926962  42.1085596
  25.3937721  70.7088089  40.6447506  19.5805096  32.9920746  11.3731411
  19.0131831  33.7029530  11.6715077  20.4640889  33.2767703  11.6065243
   8.8924575  79.3298769  48.7482738   9.0886146  78.5431004  48.2396173
   8.2153177  79.7793531  48.2426214   8.1296754  71.5669537  40.0668716
   8.2013160  72.3008442  39.4565415   7.4920034  71.8586636  40.7184172
  40.9432840  68.2614803  55.5117607  40.6467915  67.4754667  55.9705687
  40.3892612  68.9625168  55.8550453  57.0615557   1.7076545  62.1485662
  57.6047972   1.8686252  62.9200649  57.3847845   2.3273235  61.4945173
  19.0177202  57.8933144  63.9444351  18.9564013  58.8468981  63.8882971
  19.9548972  57.7093840  63.8803816   5.9725225  70.1920891  36.2746978
   6.5282482  69.6875286  35.6807113   5.5711401  70.8595037  35.7182074
  18.9971244  79.6220827  61.9401121  18.6296213  79.0468836  62.6111650
  18.7836933  80.5059528  62.2391987  28.5944510  59.4110107  48.7276268
  28.5435486  58.4619284  48.8411045  29.2147803  59.6993542  49.3971634
  69.9025395  21.3446289  50.9476948  69.1530850  21.8648010  50.6579256
  69.5172170  20.5339580  51.2802076  26.1634612  66.6386175  53.8518953
  25.8665800  66.4860678  54.7490120  26.6785216  67.4437618  53.9037037
  10.0493288   9.5237423   7.0905045  10.0640893   9.1320111   6.2172535
  10.2730941  10.4428936   6.9445017  19.7118092  65.3356934  30.1429033
  20.6343341  65.5437326  29.9949241  19.4816482  65.8188152  30.9365320
  24.5445085  72.9675007  51.3742018  25.1791358  73.4038401  51.9426107
  24.4261670  73.5703850  50.6401968   7.8246367  57.8443289  46.2046337
   8.2691616  58.4034014  46.8418694   7.1880150  58.4213400  45.7827282
  35.9989285  61.9781494  66.5031338  36.0030770  61.0209751  66.5091896
  36.4263201  62.2247076  67.3233652  76.7416528  21.6718345  68.2109737
  77.6782849  21.5049225  68.3162928  76.5424779  21.3687378  67.3251438
  40.2566814  67.6223707  67.9407930  39.7873926  67.0987749  67.2912979
  40.9594536  68.0438995  67.4461699   0.6681823  18.0068518  12.6553848
   0.3220462  17.1224381  12.7746704   0.2079772  18.3424212  11.8860748
  26.1906123  68.9457083  59.0979052  25.7629919  69.7887135  59.2486286
  26.6822410  68.7793350  59.9021769  19.8102188  32.2239637  51.8681192
  18.8962173  32.0487785  52.0920467  20.0808311  31.4633703  51.3538218
  61.4133170  10.0528770  62.5050020  61.7478659   9.2474037  62.1106434
  62.1317985  10.3672271  63.0538177  22.5224543  54.2887306  51.4982843
  21.8635368  54.8500443  51.0896444  22.1118259  53.9885950  52.3091745
  26.5522814  49.1339064  49.3914270  27.3116970  48.8379955  48.8894749
  25.7981801  48.8222551  48.8909912  64.0508654  72.1477075  13.6485794
  64.2753175  72.9243751  13.1360939  64.4969609  72.2759815  14.4857052
   8.8199353   8.3321406   3.1901386   8.7991404   7.3770596   3.1299999
   7.9682993   8.5675456   3.5582903  44.4699064  16.4383083  67.7930880
  44.3582526  16.1247879  66.8956137  44.1460171  17.3388534  67.7742386
   5.4373285   9.3805652  67.7791023   4.5368454   9.0561348  67.7889681
   5.4917833   9.9592071  68.5396624   2.2356843  52.5005366   0.7202461
   3.1859040  52.6142527   0.7397440   1.8905949  53.2998301   1.1180762
  15.2724934  58.0089617  53.7164879  15.0081933  58.9091587  53.9062834
  14.6142256  57.4688292  54.1537237  73.6306458  36.9477297  14.7288445
  73.7782019  37.2362973  13.8281849  73.6651581  37.7519919  15.2467373
  57.2961057  21.9154622   1.4214781  56.6426094  21.4940049   0.8633116
  57.5451088  21.2391116   2.0513800  81.9378381  20.2541567   6.7175558
  82.3678499  21.0937001   6.5548161  81.3825780  20.1167084   5.9500769
  85.3029635   0.9201484  58.5630560  85.3213218   1.6400867  57.9325151
  85.9893277   1.1368614  59.1940641  17.0668054  53.8365221  65.7381773
  17.1886396  54.6613407  66.2083483  17.9209054  53.4067345  65.7832193
  45.7804039   7.0450836  68.2487392  46.6115895   6.7112308  67.9112434
  45.1915720   6.2908321  68.2239771  14.4353247  58.4083748  17.8931093
  14.1994202  58.8290882  17.0663202  14.1779196  59.0396166  18.5650539
   3.0013275  49.8409392  24.9361542   2.4865984  50.3195311  25.5859497
   2.3868250  49.6700503  24.2224243  34.4632270   3.4171755  17.3638657
  35.0367620   4.0826017  17.7440003  35.0616100   2.7751333  16.9818333
  10.5929279  27.2886921  12.0859650  10.4498672  26.6928364  12.8213051
  10.3600287  26.7749716  11.3126114  20.0561190  68.9189005  60.0740767
  20.3546262  69.3190289  59.2573643  20.6546378  68.1851339  60.2140570
  28.6149001  60.3001404  22.3209977  28.6169648  60.7141399  23.1840348
  28.5121012  61.0271263  21.7068648  31.9470215  64.0067911  68.0032825
  31.6795683  63.6579132  67.1530008  32.9023218  63.9468622  67.9970169
  80.2581456  13.6277252  43.8684797  80.0803235  13.4153133  44.7847176
  81.1429456  13.2971244  43.7133408  72.0889333   7.4091011  54.6237898
  72.9892066   7.4606662  54.3027353  71.7305663   6.6254097  54.2070913
  83.4435564  20.8928276  22.6616600  82.6966625  21.1878706  22.1407726
  84.2094570  21.1385371  22.1427658  15.4923594  73.9827871  52.9069901
  15.9354377  73.7043428  53.7084818  16.0155618  74.7177076  52.5870275
  62.3863131  54.2302322  52.7735376  61.6170198  54.0722418  53.3207655
  62.9050499  53.4296799  52.8527021  50.6487036  73.6783171  53.8701391
  50.2844667  72.8322744  54.1304731  50.0612068  73.9904594  53.1819201
   5.3606462  52.5535513   0.4530886   5.2544522  53.4946467   0.5920246
   6.1596393  52.3296477   0.9302786  85.4817587  22.4930026   0.0006703
  84.5505601  22.6301457   0.1747111  85.7695633  21.8974425   0.6925562
  21.5927735  10.6472927  13.0852854  21.3964209   9.7189766  12.9591811
  21.5612432  10.7720714  14.0337932  41.9704533  78.6693954  47.3708248
  42.2453117  77.7948809  47.6463413  42.7778673  79.0939808  47.0809221
  62.4365523  49.8397594  65.9040546  63.2030990  49.6211773  65.3740978
  62.3682978  50.7926899  65.8448887  19.5331442  73.9866924  69.5170307
  19.5147216  74.1423035  70.4613209  18.9852357  73.2119656  69.3912268
  25.3806138  63.9850807  61.7564440  26.1727500  64.0988541  61.2312651
  25.3973222  64.7143841  62.3761749  19.5334244  75.3608322  53.1629181
  20.1900244  75.0147009  52.5585175  20.0259352  75.9373474  53.7471199
  12.9231262  48.4517479  53.8245153  12.9470944  48.3031607  52.8792238
  12.0162499  48.6990738  54.0051746  13.6415720  60.3863907  63.1456995
  13.2613897  60.6702089  62.3143530  13.3764350  61.0594749  63.7725115
  28.5920167  80.8788490  12.8759694  27.7266073  80.4867077  12.7596807
  29.1222143  80.1798820  13.2588017  40.4470778  76.0489893  40.1332808
  41.2380695  76.0876465  39.5956278  39.8196912  76.6097260  39.6770024
  52.2571256  79.6383210  26.2071827  53.0880645  80.0631281  26.4200428
  51.8419793  79.4853445  27.0559910  26.6716552  60.5062294  47.4115133
  27.3210216  60.1258421  48.0030012  26.5323329  61.3920069  47.7465105
  82.6367569  69.8381901  30.7131481  81.6923141  69.9896622  30.7494974
  82.9430294  70.4043341  30.0046921   5.4065609   4.3524147   4.3806484
   4.8946690   4.3602444   5.1894358   5.0721740   5.0954606   3.8783529
  23.9711761  59.5253801  55.8177137  24.4444466  60.2954435  55.5026817
  24.4049025  59.2975044  56.6400194  74.7150040  76.7511797  60.4381609
  74.4124985  76.6258955  59.5387030  74.0907669  77.3702288  60.8167648
   8.0218679  16.0042381  66.8150520   7.1083844  16.2865150  66.8608713
   8.5231829  16.8191326  66.7857122  39.0455794  68.1983805  39.7370625
  39.0770292  68.6909866  38.9169526  38.1114841  68.0850887  39.9127412
  66.5370252  60.7792826   1.6281346  65.6544164  60.8762713   1.9856623
  67.1057990  61.1892911   2.2797659  57.2450831  18.2398754  59.4593525
  57.4860456  19.0174823  59.9628353  58.0808618  17.8713661  59.1731548
   4.8577737  43.4159972   6.6286925   4.1478920  43.9180495   7.0290068
   4.4145154  42.7828528   6.0640028  29.1770482  29.0551497  11.9400051
  28.2222342  29.0576674  11.8725041  29.4186234  29.9812628  11.9537857
  78.4953695  55.2350664  42.6267624  79.3784326  55.4170561  42.3053408
  78.6154658  55.0303555  43.5540724  40.0721550  75.3401041  56.4252424
  40.4457855  75.5770922  55.5764389  40.7161665  74.7478580  56.8134689
  14.9778676  61.2171078  56.0613680  14.3732500  60.7126760  55.5171061
  15.7483637  60.6556511  56.1470222  68.1935924  58.4054613  54.1871023
  68.0546766  59.1902065  53.6569023  67.6927274  58.5651064  54.9870253
   0.4704067  27.2962433  43.0990028   1.1294767  27.4163967  43.7826824
   0.5648681  26.3814979  42.8333712  80.2008515  39.0785481   2.2143582
  79.7714787  39.7899653   2.6894930  79.6876674  38.9823653   1.4120987
  77.4544388  36.2905241   1.9716862  78.1842356  35.6711842   1.9782427
  76.8286222  35.9299160   2.5998142  68.6166948  43.1864954   4.7324398
  68.4248119  42.2984435   5.0337389  68.9731115  43.6290003   5.5027607
  70.3578382  36.3118197  14.0549973  69.8690170  35.7681109  13.4372071
  71.1178117  36.6147973  13.5581330  27.9123235  67.8803158  60.9032059
  27.4213791  68.0451584  61.7082119  28.7642574  67.5631332  61.2029266
  53.4955647   3.2551628  70.0332880  52.6620653   3.0135589  70.4371929
  53.4095481   4.1902118  69.8475027  73.5225182   6.1567952   7.7610567
  72.6337939   5.8191039   7.8722552  73.4010475   7.0711209   7.5051621
   0.4698094  62.3315763  29.8583841  -0.1575121  61.6191435  29.7353601
   0.9473863  62.3758984  29.0300202  78.1751829  34.4094063  13.1736115
  77.3126870  34.2149426  12.8068474  78.7714153  34.3520571  12.4269798
  72.8866723  10.6924205  17.6950753  72.7390483  10.4937416  16.7704308
  72.7647736  11.6396766  17.7589428  14.6057308  71.1286068  65.8006239
  14.7998214  71.8800926  66.3608313  15.4288435  70.9499407  65.3458738
   8.2216835  22.6628567   8.2851532   7.3494148  22.5159480   8.6509350
   8.8192343  22.4821164   9.0107516  77.6267627   0.7874256  50.4546547
  76.8095496   1.0865360  50.0559998  77.4823716  -0.1428551  50.6277323
  55.3981665  18.8893085  12.5306213  55.5398944  18.9054828  13.4771323
  56.1401942  19.3739467  12.1690118  21.3156891  74.0680122  43.0901623
  21.4827418  74.3417454  43.9920473  22.0098543  74.4859219  42.5805378
  15.6572127  69.5231724   7.0980817  14.7487533  69.8014212   6.9818389
  16.1764860  70.2638578   6.7850763  80.0094205  43.0352618   1.2867096
  79.0607768  42.9117228   1.3190916  80.3004985  42.8919245   2.1872404
  84.6052700  26.1964823  14.7736958  83.8812094  26.8009831  14.6107605
  84.5535975  25.5625321  14.0583828  24.0078068  71.4898777  48.5589123
  24.8391438  71.9470501  48.4320164  23.8950181  71.4571762  49.5088816
  14.4311738  36.2547755  35.6300187  14.2852783  36.7694378  36.4237881
  15.0484061  35.5733967  35.8964300  77.5249177  13.7039639  10.5633763
  78.0596357  13.3527686   9.8513535  77.8908401  13.3091904  11.3548783
  65.0911978   7.2417694  42.6630068  66.0153725   7.2213703  42.9114342
  64.6614340   7.7118831  43.3775187  83.0469638  21.6002203  10.5282620
  83.7665992  21.4745928  11.1467865  83.1337910  22.5092293  10.2412060
  44.6673086  15.1361709  60.6989050  44.7264352  14.4104629  61.3202524
  43.8036635  15.5173164  60.8572721  10.4312706  24.2467953  25.3429440
  10.0334930  23.4880663  24.9159363  10.8294916  23.8926865  26.1380890
  54.4197634  12.4500042  66.7482805  54.3935349  13.3695465  67.0128250
  53.5016563  12.2112136  66.6206551  29.6360942  28.3375316  31.2239146
  28.7000008  28.4835010  31.0873342  29.9737256  29.1898113  31.4993238
  21.7670441  42.3191357  58.6949921  21.3390398  42.0563316  57.8801441
  21.0477304  42.5806379  59.2698288  19.3364501  12.0908476  42.5287083
  19.6309399  12.9791428  42.7297905  19.7297883  11.8948437  41.6783550
   2.6306962  11.5540005  15.6890705   3.4442758  11.2127520  16.0603741
   2.1315455  10.7736088  15.4481056  35.7557150  26.3662010  27.1821046
  35.6343314  26.5647464  26.2536240  35.1804790  26.9821315  27.6359391
   6.2960529  64.6727467  52.1147728   7.0981759  64.6217918  51.5949345
   5.6176031  64.3114233  51.5443468  10.0053691  30.3446509   8.5238293
  10.8979249  30.4885699   8.8382557   9.8348259  31.0840632   7.9403713
  24.6352887  54.1693522  11.7548969  24.5558238  53.7513853  12.6123551
  25.4535555  54.6635558  11.8042591  55.0171569   1.5251117  48.5701656
  55.7656219   1.3319069  49.1347027  55.3710893   2.0999389  47.8915405
  19.9506878  59.5977713  23.3655575  19.1900420  59.5822073  22.7846840
  20.5680727  58.9836146  22.9682282  23.1342196  32.3331763   0.0706175
  22.8131651  32.2441317   0.9679630  22.4839425  32.8860213  -0.3626653
  66.5687278   1.9456058  42.0045042  66.0337117   2.7381569  41.9615126
  67.3835852   2.1823841  41.5615845  60.3448727   1.6162067  41.6496325
  60.6268194   1.8326049  40.7608652  61.0930422   1.8457180  42.2008133
  21.8869900  77.9632498  17.3343781  21.3368487  78.7453295  17.3781613
  21.3564610  77.2744967  17.7348641  36.7076111  75.9859657  53.6049891
  36.2113619  75.1689196  53.5558796  36.9823408  76.1538792  52.7035666
  66.3142872  67.7692461  39.0190315  65.8729029  67.3295069  38.2923698
  66.5946865  68.6093092  38.6558437  15.9755682  46.1071040  19.2475250
  15.7109046  45.8401514  20.1278237  16.4017510  45.3326346  18.8803700
  48.6047840  63.0014515  53.4197378  47.7366829  62.5994587  53.4519625
  48.4522438  63.9192200  53.6448145  24.3253493  54.3385436   1.2488678
  24.2250704  53.8934637   0.4073885  23.4382367  54.6117999   1.4825037
  49.0837502  51.7426230   7.6106528  48.9999794  50.9560229   7.0716932
  49.9714636  51.6962840   7.9656771  52.1179774  13.1764656  38.9790010
  52.5072315  12.6159816  38.3077574  52.5564244  12.9188209  39.7899365
  30.5370975  79.9011374  62.1625948  30.8373404  80.6610870  61.6640234
  30.7598233  80.1070690  63.0704546  30.4642605  60.3261782   5.5614451
  31.1660122  60.9730364   5.4882887  29.8374533  60.5749346   4.8821333
  16.4525532  31.5987135   1.2294081  16.2629580  30.8881117   0.6167629
  16.5881037  32.3653246   0.6724861  44.6876433   4.3325287  69.1692066
  45.5853012   4.0746074  69.3787766  44.1442623   3.6493736  69.5619822
  61.1178019  31.6950565  51.5125322  61.0267546  32.6022392  51.8040180
  60.8028653  31.1735206  52.2508049  85.3064111   1.5017753  26.4188981
  85.5525306   0.7459503  25.8856177  84.6405127   1.9538360  25.9007740
  47.7981391   5.0174766  25.5783010  47.2682717   4.3544632  25.1357126
  47.9522672   4.6571403  26.4515877  44.4703904  12.9562622  27.8760529
  43.6497012  12.5445800  28.1466413  44.5490554  12.7448993  26.9458008
  18.2556266  66.0096121  54.6753168  17.3721331  65.6476021  54.6073723
  18.3275908  66.6069984  53.9308834  14.4380605  71.3639069  62.3096561
  14.9336410  70.5563402  62.4455595  13.6150789  71.2214470  62.7772427
   8.8158104   7.4783760  55.3856659   8.4785387   8.2419258  55.8541584
   9.6664211   7.3061233  55.7894230  64.2020252   0.1872593  47.9335308
  64.5815018   0.4566055  48.7700033  64.7377708   0.6284671  47.2743320
  37.0552250  16.2577873  40.6196547  37.7414128  16.6647583  41.1485767
  36.9892451  15.3650814  40.9586859  80.5107117  47.3844385  40.0353003
  80.5700588  48.2645988  39.6637917  81.0814285  47.4096632  40.8033371
  53.4143209  62.9166985  53.5710669  54.3333817  62.6968098  53.7233829
  52.9348564  62.1255016  53.8167334  16.5249035  25.5172020  44.0534210
  15.9826776  25.6352192  44.8333549  16.2003872  24.7090583  43.6561441
  58.4388876  79.8925686  57.8204632  57.7853155  80.5406761  57.5577354
  59.1699600  80.0320625  57.2185469  10.3296301  29.2968326  37.6669002
  11.1824104  29.1813808  38.0860281   9.7772285  28.6195808  38.0572939
  25.3835416  17.0856624  49.3152857  25.1243847  16.6403442  48.5085917
  26.3249445  16.9269806  49.3846512  31.6405821  63.9137936  59.2825079
  32.3522758  64.4464064  59.6375322  30.9266591  64.0180159  59.9115419
  74.9771023  74.3001318  61.1749268  75.0834656  73.9700365  60.2827644
  74.8025990  75.2348804  61.0652494   8.9492368  39.5557906   7.0802143
   8.5533666  40.2814413   7.5628737   9.7945833  39.4169880   7.5072411
  77.9202461  45.2611828  63.1248236  77.5788689  46.0775614  62.7598333
  78.8207978  45.2134705  62.8039455  33.6144525  10.7669979  49.5211220
  33.3627900  11.0165840  48.6319637  34.4784412  11.1600261  49.6447468
  36.9971135   4.0348678  51.8939161  37.1062562   4.9675613  52.0793867
  36.6919139   3.6604553  52.7202940  74.6567443   6.0410839  59.1665030
  73.8695767   6.4793449  59.4898081  74.4108870   5.7150226  58.3007812
  51.3617590  26.4750343  19.9593914  50.8759048  26.9389682  19.2775249
  51.0533669  25.5708175  19.9001360  34.7360727   6.7631488  63.9187479
  34.3729517   6.2959247  63.1663656  35.0585481   6.0719257  64.4970655
  81.1669427  71.0330416   0.3409699  81.8837457  71.5322901   0.7323435
  81.5461426  70.1736285   0.1569823  81.7881203  70.9439993  48.5378981
  81.1164474  71.0011482  47.8583241  81.2976742  70.8076906  49.3485308
  67.1921122  32.6178719  24.3208245  66.3049298  32.9491164  24.4601563
  67.1169370  31.6718461  24.4458035  76.5922206  60.2127387   0.1248100
  77.4289900  59.8779036   0.4471997  76.1598104  60.5655791   0.9024695
  54.9264281  38.3253504  10.3062752  54.3657392  38.6924340   9.6228245
  55.5177922  37.7349211   9.8394612  20.9837889  28.9068057  12.3913601
  21.7802119  28.5980154  11.9594029  20.5693411  29.4811036  11.7474297
  52.4496343  13.4749942  62.3544359  52.8071072  14.3080097  62.6618910
  51.7819407  13.7224060  61.7147446  63.5235548  78.1371069  46.0247040
  64.3606853  78.5165453  46.2920570  63.6878633  77.1947479  45.9901476
  75.6532764  73.4407091  64.6074438  75.7793474  73.5320377  63.6629868
  74.8268938  73.8905668  64.7833776  51.0249710  72.3080444  47.3415089
  51.1344481  71.7257881  48.0933237  51.4504194  71.8477154  46.6180992
  52.6284504  75.2047062  70.3105164  52.9416275  75.2592230  69.4076443
  52.5057220  74.2681170  70.4653168  85.9384455  59.6516323  64.9414015
  86.1908298  60.1168823  65.7389450  84.9827601  59.6130133  64.9789000
  81.3167289   8.8323742  65.0026178  81.4066890   9.2657238  64.1538906
  80.6778958   9.3646198  65.4767895  47.3400619   4.7484572   8.2118872
  47.8729560   5.2605326   8.8201979  47.2443416   5.3122408   7.4442795
  80.8736947   3.3322673  37.2972703  81.0480550   2.7806240  38.0598450
  81.3951590   2.9425960  36.5955138   6.0576224  68.2204866  64.1428614
   6.4197969  68.7449408  64.8570108   5.7819068  68.8634109  63.4895182
  85.5891758  20.3646637  10.7574585  85.2691107  20.8913447  10.0250653
  86.4520198  20.0612379  10.4752091  75.1713544  64.1637897  41.4932060
  75.9736061  63.7347174  41.1956835  74.6971744  63.4817410  41.9687986
  76.4951375  26.2948566  49.7295523  77.3668053  26.3592582  50.1197815
  76.5963462  26.6687923  48.8542509   4.8713082  72.7354765  44.1602421
   5.4277253  72.7429485  44.9390745   4.0579182  72.3230171  44.4509411
  30.8099246  30.8534934   6.8738106  29.8884415  30.6988646   7.0816305
  31.1705184  31.2518860   7.6659516  78.1084299  52.0023298  67.7067327
  78.5993147  52.7817392  67.4463797  78.2138968  51.3966799  66.9730425
   3.8462183  18.5058075  57.2098780   3.1285640  18.8591152  57.7355957
   3.6906931  18.8498264  56.3302803  43.7396765  71.8415833  64.3376732
  43.8088608  72.4754810  65.0515461  44.4879389  71.2578154  64.4623756
  62.0032072  59.1704607  57.8330469  62.2343969  59.2148638  56.9052458
  61.4786386  58.3736324  57.9113007  42.8739405  67.1774149  66.0610342
  43.8051605  67.0253086  65.9000111  42.8354025  68.0608988  66.4273643
  71.0361436   8.4080368  18.0386281  70.6446221   7.8713089  17.3495257
  70.8737758   9.3096786  17.7612960  71.5847066   8.6643463  35.8446336
  71.9805720   8.6123233  36.7145848  72.1000722   8.0599552  35.3104496
  48.7237051  14.3686252  57.9508638  49.3237188  15.0469738  57.6409292
  47.9919877  14.8527294  58.3335686  29.3033171  48.0987507  27.4361873
  29.9184750  47.9089599  28.1445575  29.6265110  47.5868755  26.6947293
  43.5995817  63.6967134  30.8166218  42.8362894  63.7538385  30.2418613
  44.2260408  63.1607533  30.3302836  52.8721666  61.2623453  58.2247972
  52.9252148  60.5037498  57.6434612  52.0383978  61.6766310  58.0024719
  78.5087686  44.7588278   3.4604386  79.0651184  44.3326594   4.1124323
  78.1083542  45.4911066   3.9291218   0.2182793  41.1456706   7.2205094
   0.9451317  40.6192709   7.5533989   0.6377387  41.8334891   6.7035940
  49.0870407  28.6195045  54.9859810  49.5491078  28.7465816  55.8145809
  49.2085603  29.4439560  54.5150900  50.7585526  68.9647293  69.3705750
  50.6220245  68.2330799  68.7686777  51.3226080  69.5694256  68.8884783
  16.8277237   9.9422317  43.3339262  17.7846929   9.9213749  43.3332157
  16.5717146   9.2072445  42.7767229  56.0892799  14.3076378  24.0378881
  56.7387894  14.3742233  24.7378421  56.0264709  13.3696228  23.8578725
  18.2709565  19.8234039  30.4845858  18.4322753  20.7318264  30.7394838
  17.3744037  19.6497589  30.7714224  40.8112001  67.7875805  61.7772532
  40.6501961  67.4274015  60.9051418  40.4575014  67.1305466  62.3767805
   5.2582955  18.1013514   1.5935877   4.4212436  17.6438881   1.5142182
   5.9172272  17.4196412   1.4620188  71.6339972   9.6787506  30.9464478
  71.5013125   9.7603470  31.8908882  71.8274930  10.5693870  30.6539392
  70.9467459  60.8958292  45.4829073  71.6860390  60.3039503  45.3437805
  71.3312626  61.7717028  45.4478264  21.4962539   1.6590076  63.2713985
  21.5436551   2.5934463  63.4734201  21.6476646   1.2245136  64.1107559
  79.6341997  59.6134879   9.6150187  79.3801599  58.6988284   9.7378424
  80.0625711  59.6302439   8.7591866  55.1629069   4.7051674  36.4108348
  54.4248584   4.3840652  36.9289136  55.9347442   4.4898945  36.9344306
  46.4095783  66.4202213  38.6927342  45.8976650  65.7079840  39.0760064
  46.6511345  66.1006737  37.8233838  70.0845528  48.7082434  57.9485989
  70.5611753  47.9091406  58.1733131  69.8886728  48.6161041  57.0161963
  35.6330180  72.2086048  61.7308950  35.1867890  71.8873215  60.9473848
  36.4669156  72.5504351  61.4084053  39.9895882  42.8102137   1.6738537
  39.9604582  41.9127203   2.0053557  40.6609177  42.7919413   0.9917858
  68.8883784  23.9287620  60.3579473  69.5766642  24.3455272  59.8394871
  68.2257655  24.6106201  60.4685974  60.8333161   0.5632835  60.6596565
  61.0894969   0.9156471  61.5119696  61.6289285   0.6153350  60.1300144
  46.5818262  62.8102398  49.4567633  46.9076347  62.9172373  48.5630989
  46.7183352  61.8831778  49.6520758  20.8132935  72.7054739  67.6193714
  20.6145668  73.3057642  66.9007635  20.6556988  73.2194567  68.4113407
  47.7613068  72.7391434  52.2270203  47.2082329  73.3309460  51.7170095
  47.1451807  72.2290707  52.7528095  48.4221163   6.2262207  66.4994049
  48.8492253   5.4425960  66.1533737  48.3918085   6.0844665  67.4455643
  61.5665274   9.9114920   1.6026476  61.3557892  10.7440974   1.1800507
  62.4680459  10.0183369   1.9060925  77.1480277   3.4625393  36.9982553
  76.2186387   3.4039264  36.7768049  77.3228648   4.4021564  37.0510507
   8.7145397  23.0482441  38.6980152   8.6101743  23.4013324  37.8144646
   8.3547422  23.7256103  39.2706871  38.3750606  68.3663130  17.3525023
  38.8741207  68.3844566  16.5358973  38.7949395  67.6827335  17.8746653
  40.9400940  61.9972515  65.1773405  40.7458639  61.0602808  65.1530266
  40.1006031  62.4107313  65.3786373  16.7841455   7.0182186  67.3755646
  16.3425848   7.8640228  67.2989607  17.6842806   7.1921592  67.1003580
  35.0154972  68.8369083  67.0419598  34.8434281  69.7691774  67.1742392
  35.4413962  68.5547447  67.8514194  45.1422167  65.1172733  65.3987551
  44.5649576  64.4366980  65.0525951  45.2401352  64.8996067  66.3257170
   7.9901385  41.1780287  22.4875668   8.8300991  40.8149268  22.7683762
   8.0566859  41.2258173  21.5338734  25.1155066  49.0676047  12.2552231
  25.1148867  49.8905493  11.7663506  24.8471570  49.3145491  13.1402329
  35.4734826  66.7721128  53.2986212  34.6544528  67.0264769  53.7237358
  35.2876210  66.8378115  52.3619413  86.2324310  53.2782602  53.0983305
  85.8001101  52.7237940  52.4487972  85.5490479  53.4734583  53.7395144
  12.7414119  57.4472284  63.0555487  12.7364063  58.3338928  62.6949453
  13.4578705  57.0068026  62.5984430  17.9070055  61.4794731  55.3010273
  17.3304188  61.8144131  54.6143055  17.8890800  62.1546888  55.9792566
  68.9805844   5.1152855  49.7122717  69.0498593   4.3055397  49.2065716
  69.8433354   5.2220207  50.1129007  74.9764824  80.7915211  23.9837980
  75.3941488  81.6180897  23.7417722  75.7058430  80.1964378  24.1574073
  42.3537302  76.3729858  61.4073610  43.1584501  75.8546782  61.4109087
  42.5670338  77.1500301  61.9240141  33.6841538  27.2646099  47.6848650
  33.1391647  26.7000156  48.2330036  33.1180748  27.5049835  46.9513750
  74.8548653   7.0531803  19.4935131  74.4219878   7.2909027  18.6735535
  74.1466143   6.7403656  20.0563288  60.6584528   3.4446197  56.5702248
  60.8141616   3.4958511  55.6271648  59.7050932   3.4358745  56.6554451
  72.6010611  14.7837024  58.6051941  72.6450875  13.9306026  58.1733084
  71.9175914  15.2572399  58.1309986   4.3175670  13.6370235  53.9005327
   5.2178594  13.3379894  54.0281630   4.3851015  14.3239933  53.2374096
  73.6439567  20.5405117  22.9434994  73.4804099  19.6578003  22.6113823
  74.5524007  20.7224299  22.7029350  19.2080522  58.2696342  57.1373081
  19.9887490  58.7594175  56.8787384  19.0551460  58.5254860  58.0469179
  62.7465582  51.4383173  68.9596272  61.8201590  51.6293669  69.1063023
  63.0603504  51.1123228  69.8031282  24.9920630  36.8268706   2.0042208
  25.4706931  36.2928416   2.6382187  24.4403862  36.2024237   1.5331057
  84.7271604  71.7308617  48.4477711  85.1696990  70.9195137  48.6969709
  83.8071035  71.4833450  48.3557796  11.2011564  40.8888435  54.6154165
  10.8912528  41.2750626  55.4345798  10.4565799  40.9637070  54.0185642
  45.8955744  11.1912876  64.8000813  45.9602681  11.7260700  64.0088463
  45.8293512  11.8260627  65.5134583  66.0370445  66.9962692   7.6397443
  66.8629646  66.5442514   7.8122830  66.0420132  67.1520424   6.6953176
  29.7726893  76.2354136  65.3650999  29.3197584  76.9633055  64.9393463
  30.4792619  76.6497993  65.8603525  60.1700878  69.0003157  43.1901312
  60.8859158  69.2663860  43.7672186  59.6397924  69.7904110  43.0863667
   8.2148859   5.1645904  68.1477785   8.4085581   5.9960037  68.5807610
   7.3286506   5.2747017  67.8032589  66.2217572  18.1234890  67.2275972
  66.6640427  18.7573486  66.6629362  66.2770393  18.5040813  68.1041431
  58.9074564  64.4761372  49.6603775  58.6110401  65.2689600  49.2133808
  59.6839142  64.2020750  49.1722870  57.3485329  20.7692581  45.4223537
  57.2349694  21.3824993  44.6962214  57.7241328  21.2982898  46.1261225
  79.2189410  63.8397475  20.8280304  79.5241359  63.2007762  21.4720848
  78.9873889  64.6104165  21.3463715  18.7287637  25.1375061  49.9888039
  18.2104942  25.0572353  49.1880655  19.5685741  24.7325187  49.7721529
   5.2828666  13.2603984  67.7228069   6.1089441  12.8079658  67.5521278
   4.9192688  12.8146415  68.4878731  15.9840130  40.9699084   7.8213576
  16.7708754  40.4995085   7.5460318  16.3039374  41.6368700   8.4288529
  27.4306059  77.9516602  66.1230850  27.0431638  78.6069822  66.7033243
  27.1168900  78.1889915  65.2504539  14.8937916  30.1080204  31.6360691
  15.1711869  29.2450215  31.9435051  15.3283190  30.2117707  30.7895210
  68.2330396   8.3460003  30.5201769  69.1766694   8.4676223  30.6250858
  68.0940702   7.4107223  30.6690788  65.6707525  80.7101440  57.5067282
  65.2155399  79.9583387  57.1275139  65.7128048  81.3486862  56.7948866
  78.2269957  10.5908256  31.4605260  77.6297381   9.8706775  31.2582970
  77.6892045  11.3783603  31.3780546  35.8043882   5.5475193  37.0859647
  35.3624365   5.1904445  36.3156343  36.7290708   5.5753189  36.8401837
  61.0360745  67.1374540  47.0056674  60.5454225  67.9471139  47.1468732
  60.9244687  66.6448621  47.8187653  49.8576426  56.6692759   0.9080008
  49.8472476  56.4009215  -0.0107548  50.3977131  57.4594618   0.9206227
  25.7146143   1.0968710  33.5071209  25.8383345   0.9663130  32.5669697
  25.8952450   0.2400519  33.8937309  43.4757450  22.1129470  68.6070395
  44.1603341  22.6382595  69.0213060  43.7652400  21.2079483  68.7228107
  60.8767605  68.7756968  34.4347644  61.4786863  68.9353895  33.7078404
  60.1982832  68.2111883  34.0643239  28.2538914  37.7082802  16.7842987
  27.5437092  37.9969527  16.2111119  28.2527899  36.7543532  16.7052105
  47.4403477  67.4641085   6.5262663  47.7376747  67.3957300   7.4335450
  48.2187986  67.2707701   6.0038990  49.7093153  71.0152769  54.4343376
  49.0794802  70.3737020  54.1058207  49.1697025  71.6998196  54.8298788
  20.1694893  32.2763754  16.3873413  19.9034047  31.4570738  16.8046787
  20.5429005  32.0074011  15.5480316  55.5467608   5.9204059  34.0420127
  56.0705593   6.6676956  34.3308520  55.3444293   5.4441791  34.8473096
  76.1519673   6.3415771  69.3781900  76.9913152   6.7962509  69.3074846
  75.5607274   6.9886261  69.7628880   7.9889035  49.1459586   3.8383272
   7.3000741  48.9999415   3.1899241   8.6501216  48.4832598   3.6386946
  50.2989271  24.6567207  49.5139360  49.9485424  24.9743610  48.6817312
  51.2278178  24.8860889  49.4858742  42.9985285  71.9748259  50.1158285
  42.1409273  71.5626192  50.2199554  42.8254080  72.9124641  50.2000475
  64.4812953  77.3583914   9.9714783  65.2931058  77.2354437  10.4634979
  64.2904794  78.2927634  10.0538471  16.5493011  69.6756363  62.1601343
  16.8548238  69.2802525  62.9765606  17.2935987  70.1919651  61.8508434
  68.2417899  61.7692114   3.6983088  69.0944343  62.1850325   3.5705260
  67.8263765  62.2826029   4.3911961  58.2096150  17.8659111  64.1366720
  57.4134734  17.4714714  64.4927740  58.7193778  17.1241241  63.8109016
  72.2225812  22.0264011  17.2751701  72.3058465  21.7668014  18.1927240
  72.9986623  22.5605446  17.1060038  19.2926455  66.8054533  49.0113163
  19.7930360  67.4992895  49.4407749  19.7907627  66.6064978  48.2185173
  15.2829194  27.4892165   4.0665463  15.4106545  26.5581728   3.8846758
  15.6287026  27.6101519   4.9508742  64.0159178  75.2680922  61.9778538
  63.2965374  75.4657984  62.5775528  64.0809965  74.3131638  61.9884491
  81.8650058  20.3400951  33.0663371  81.4971688  20.7065540  32.2622013
  81.9370225  21.0880142  33.6593413  84.4426089  42.2899271   0.3023222
  84.9281746  42.7048899  -0.4106018  83.5322147  42.5445296   0.1520374
  60.0253227  13.9565139  42.8193331  60.6772831  14.5549160  42.4545002
  60.5273798  13.1831890  43.0765104   9.3988752  57.6802565   1.2297466
   9.9731731  57.8633334   1.9733170   9.9964523  57.4843813   0.5081061
  53.4011200  22.6648956  33.9685607  52.9800918  22.2254902  33.2297158
  53.7742856  21.9536262  34.4892120  41.9201612  75.2178478  43.4371567
  42.5570297  75.1796532  44.1507196  41.2276745  75.7918215  43.7646484
  30.7163691  57.4592329   2.9876402  30.5632090  57.1723296   3.8878945
  30.2325224  58.2817484   2.9127911  82.0798400   4.2507511  46.7436028
  81.1688378   4.3389469  47.0238447  82.1067527   4.6669155  45.8820295
  40.0238991  75.1619434  51.5895987  40.2212811  74.3767118  52.1001768
  39.0680861  75.1831055  51.5426207  83.1165886  73.3595419  42.9373550
  83.9922905  73.1443739  42.6163101  83.1402779  73.1339264  43.8672829
  54.5596552  58.6419392  45.1165247  54.6782780  59.5216084  44.7582674
  53.7326384  58.6882114  45.5962467  78.7105563  17.7009731  40.4347515
  79.1974261  18.4735351  40.7216883  77.8327468  17.8231102  40.7963610
   3.8439771  12.7301651  37.4544477   3.7448618  13.6441284  37.7210593
   3.7510225  12.7471023  36.5019226  21.6845154  55.6809451   1.2222555
  20.8041024  55.4875399   1.5442780  21.5499854  55.9832026   0.3240469
  21.4448854  14.2163139  14.4678009  22.2592374  14.3029552  14.9633360
  21.6957161  14.3955475  13.5616040   3.7888145  16.6656090   6.9694260
   3.9670848  17.3243071   7.6406697   2.9003238  16.8612458   6.6718653
  41.9901529  16.0914379  65.9894657  41.7268660  17.0048004  66.1021137
  41.1658767  15.6150871  65.8900404  16.5554738  40.2912833  30.9801701
  16.1924624  41.0993792  31.3427094  17.3958373  40.1850821  31.4259747
  51.4440182  24.1365390  15.2519846  50.8543804  23.4896236  15.6393623
  50.9329393  24.5348888  14.5474672  78.4091571   3.5374218  68.3565283
  78.5949328   2.6181656  68.5480928  77.6890233   3.7639290  68.9450359
  83.5386395  35.3759695   0.4318693  84.4293236  35.3199221   0.7779482
  83.6530804  35.4248549  -0.5172035  79.2945671  65.8585262  65.6299639
  79.5555973  66.2203789  64.7831106  78.4236002  66.2228155  65.7878780
   3.0415267  70.1606035  65.0862408   2.1945399  70.0810003  64.6474791
   3.6849994  70.0066853  64.3945169  26.4795685   8.5257393  51.6482925
  26.2947887   7.7369075  52.1580172  27.3661518   8.3921104  51.3131094
  14.3361926  32.8487898   7.4192932  14.9153208  32.1249129   7.6577023
  14.9151301  33.6086298   7.3584154  13.5604498   3.4016758  66.2596655
  13.0461094   2.7926212  66.7895222  13.7201234   4.1469818  66.8386745
  43.9449551  16.0308986  26.2487268  44.7103396  15.8454281  26.7928028
  43.2418707  15.5121093  26.6395736  76.5524056  13.7234169  40.6284523
  76.3870147  14.4584137  41.2189245  77.2508529  13.2264667  41.0544014
  13.0041811   0.9839683  32.1943879  12.1364805   1.0376888  31.7938375
  13.2811042   1.8953186  32.2891021  53.8411310  28.8396793  45.8381844
  53.7507465  29.2363220  46.7046356  54.6794751  29.1663223  45.5115128
   1.0719701  16.9889122   6.8762654   0.9121582  16.1159568   7.2349191
   0.3558036  17.5235038   7.2191167  22.8030371  66.2067248  12.9672554
  23.0279374  67.0535780  12.5819233  21.9808077  65.9613444  12.5430420
  35.1363274  33.6266189  45.5538368  35.9249100  33.8238197  45.0483847
  34.7966268  34.4835334  45.8117580  58.6318445  54.3525219  49.9540138
  57.6854753  54.3415165  49.8108387  58.9637756  54.9810934  49.3129587
   0.6643984  53.3178669  39.8682451   0.8960506  52.4287754  39.5997500
   1.4433214  53.6421638  40.3202868   0.2349871  72.5665998  12.4677503
   0.7709903  72.7331686  11.6923833  -0.6444150  72.4127722  12.1224678
  39.2325783  72.8721666  46.2162542  39.6822762  72.4664593  45.4750395
  39.2732859  73.8113928  46.0361719   5.4257297  37.3551108  19.4826248
   5.7592153  38.1346108  19.9269226   5.8575415  37.3631455  18.6283997
  62.1416500   7.7828174  51.8127680  62.6315859   7.5082260  51.0376596
  61.2297633   7.8089100  51.5229130  49.4934752  19.8336368  63.3523226
  49.5747497  18.9609390  63.7370825  49.9540904  20.4086548  63.9634037
  19.9891349  33.1470161  54.4926596  19.7016737  32.7503734  53.6702967
  20.8026001  33.5992103  54.2689896  81.0408931  36.3381697   2.5058439
  80.9254461  37.2394682   2.2048977  81.5872794  36.4149596   3.2880190
   8.3505127  27.5538879  39.2681098   7.6966211  28.1539493  39.6267056
   7.8833553  27.0695739  38.5873508  75.9602263   0.8987957  69.7379971
  76.6598847   0.8093601  69.0909195  76.0074332   1.8132358  70.0169468
  63.5024574  13.2147270  16.6879296  62.7500251  12.8355079  16.2337565
  64.1898778  12.5537162  16.6057754   6.3234636   3.9267784  59.8530960
   7.2315332   4.1231971  59.6227455   6.2070200   4.3149143  60.7202911
  53.4128714  59.2406988  42.4980783  54.0231991  59.7214556  43.0571890
  53.8469791  58.4035254  42.3340034  18.1805443  74.2931391  34.2541626
  19.0248847  74.4678809  34.6698406  18.3752799  74.2688204  33.3172920
   2.5878307   7.7859932  62.5821781   2.6496050   7.0416599  63.1808281
   2.9706117   8.5165172  63.0680227  67.1546200  11.6451030  59.1028357
  66.9907596  11.3225227  58.2166481  66.2833383  11.7438751  59.4866896
  14.7459602  59.8137903  36.6387939  14.7637236  58.8710451  36.4740205
  14.9647701  60.2086258  35.7947206  57.2432211  18.8621765  32.1332216
  56.6987040  18.0991989  31.9393253  58.0902698  18.4941822  32.3848701
  28.4321523  71.9824314  42.1865463  29.0532517  71.4613676  41.6776657
  27.5734472  71.7308569  41.8465996  67.9021409  16.6629463  68.9786291
  68.5943010  16.1213451  68.5993958  67.2489956  16.7386203  68.2829952
  18.4946033  23.5437637  10.3774381  17.7750894  23.9584976  10.8533883
  19.2802974  23.9874893  10.6968582  76.1134434  56.5238094  19.2231226
  75.3545141  57.0457697  18.9627004  76.3982630  56.9115686  20.0506186
  64.4000578  75.3354359  58.0275774  64.2239714  74.5842457  58.5940886
  64.8494101  75.9625816  58.5941505  49.2284393  70.5204773  57.2203636
  50.0334263  71.0380030  57.2005224  48.5549068  71.1122799  56.8851757
  78.0788898  80.7269573  44.8471165  78.6991549  80.8172798  45.5705452
  78.3143377  79.8972559  44.4319201  71.7884829  16.6998630  61.7465925
  71.9312957  17.6462989  61.7566347  72.6625016  16.3269668  61.6313934
  40.7870653  52.0148655  25.2621296  40.5354860  51.3393195  24.6323899
  40.0006428  52.5506504  25.3656033   0.3966716   3.8001642  15.6668901
   0.8531849   2.9590085  15.6500208  -0.0516819   3.8463226  14.8224497
  84.9195432  24.5051503   7.1878093  85.7148154  23.9729643   7.2112846
  85.2357752  25.4086018   7.1901017  64.1734606  18.7489879   1.4165163
  64.5125371  19.5377171   0.9932357  63.3759957  19.0388846   1.8595053
  31.1468822  80.2002977  69.3697984  31.3622550  80.1516937  70.3011868
  31.6317377  79.4762181  68.9737470   1.7769738  24.4767904  12.8153217
   2.4137720  24.0322208  12.2557890   0.9505262  24.4107866  12.3369288
  61.7892986  41.0503101  59.0080118  60.9898025  41.2019634  59.5120335
  61.7457610  40.1262569  58.7621260  70.0585931  24.0287733  48.7121487
  69.7011262  24.9141264  48.6443329  70.8031779  24.1160440  49.3073034
  62.3108464  72.3835421  48.4360123  62.7303559  72.5046778  47.5842047
  62.9515034  72.7111292  49.0672636  63.4143332  49.6599287  34.5944929
  64.1842035  49.3654293  34.1078687  62.8362707  48.8972086  34.6126747
  30.4474282   6.4673299  32.1499944  30.8774304   7.0734227  31.5466857
  29.7384667   6.9793808  32.5391102  10.8812749  41.1629200  45.1925421
  10.2723479  41.1339188  45.9305096  11.6383839  40.6564665  45.4866934
  15.4092860   0.7839888  39.4391298  16.1237264   0.1471058  39.4528294
  15.1871145   0.9145659  40.3609848  64.2731553  14.0737140  36.2971902
  63.9344793  13.2166052  36.0385489  64.8630530  13.8876665  37.0276952
  35.7065395  78.3683199  60.8288622  36.4364436  78.1515051  61.4089155
  35.5171040  79.2878007  61.0156822  61.9695550  34.5429897  46.0026836
  61.6104561  34.3109870  45.1462650  62.2197848  33.7052894  46.3923931
  67.6514178  15.2822709  47.7095509  68.4826952  15.2621341  48.1836843
  67.8370923  14.8391449  46.8816614   9.0970922  29.5001745  32.3416734
   9.3411314  29.5279098  33.2668257   8.2833540  28.9964509  32.3236179
  73.4176889  79.2615320  38.4730601  72.9785851  79.7613682  37.7848864
  73.3376125  78.3492187  38.1946635  22.7626777  46.9771242  32.1939707
  23.4440565  47.5347471  31.8184566  23.2034874  46.1459112  32.3700476
  57.1271549  72.6821018  57.6949883  57.9306600  73.0660195  58.0460119
  56.9806489  71.9021786  58.2302332  14.9038446   3.8281605  57.0427561
  14.0540326   4.0314969  57.4335289  15.4059184   3.4311837  57.7544880
  34.8981285  22.0464277  57.9715014  35.2481174  21.3099360  58.4728146
  33.9773536  22.0950723  58.2284784  42.7990103   8.7821841  29.8207068
  43.5891867   8.2642108  29.6672153  42.8158236   8.9725018  30.7586455
  72.1545258  77.1376870  53.1819963  71.3161364  76.8811373  52.7979136
  71.9211534  77.5454313  54.0159702  11.2157154  18.5945463  30.4803061
  11.3831317  19.4116056  30.9500051  10.2855194  18.6324906  30.2577543
  10.3208348  74.8178381  55.8273935  10.0324509  75.6426186  55.4364920
   9.5108077  74.3364394  55.9957504  19.9560150  24.6968671   2.5050953
  20.4446998  24.7867997   1.6869667  19.8085454  25.5967387   2.7961519
   3.8868985  12.1957564  27.4530482   4.5656097  12.8394568  27.2499871
   3.4914702  12.5126982  28.2650924  22.1480751  35.3834438  66.7259312
  22.6405454  35.2578855  67.5370646  21.3191104  34.9290752  66.8762541
  35.6974584  10.1558471  24.5743418  35.3878194   9.5483947  25.2461720
  35.9382421  10.9457958  25.0583196  25.9519035  26.9118071  13.4329844
  26.3922244  27.0174980  14.2763007  26.3050586  26.0955739  13.0790353
  68.1554252   3.0427259  54.6758938  67.7922088   2.3270229  55.1975012
  68.9906043   3.2461184  55.0970078  43.5187435  17.9791117  48.5272980
  43.4547997  18.2626057  47.6152802  44.3728209  17.5508833  48.5856819
   5.0087613  23.3031487   8.6959743   4.4989794  22.5338578   8.4419131
   4.6057537  24.0267038   8.2160968  62.6452890  40.4272217  32.6003051
  62.0809308  41.1547989  32.3388386  63.4730998  40.8416647  32.8436136
  11.5441120   5.2043027  17.3446631  11.3057089   4.7589183  18.1576991
  11.8903327   6.0505867  17.6278007  62.9444581  19.0274942  10.0375104
  63.3556563  18.2232356   9.7207808  62.1291405  18.7352169  10.4450190
  71.2079483   9.8793912  67.5373030  70.8781165   9.6071762  68.3936548
  70.4571205  10.2937639  67.1121168  84.0689844  11.7355967  40.9409237
  83.5607204  12.0056868  40.1761007  83.8877428  10.8000124  41.0307312
  82.0230016  25.5181980  26.1884880  81.1014688  25.3683662  26.3995790
  82.4811521  25.4034495  27.0210505  33.9215669  22.3992022  13.4185818
  32.9797917  22.3718031  13.5875252  34.0020147  22.2223326  12.4813107
  10.1706267  55.2028309  39.7562215  10.5835784  55.2720939  40.6169793
   9.4238711  55.8000456  39.8000738  35.7769063  71.0489578  52.4927378
  34.8349980  70.8786876  52.4997807  36.0000113  71.1228645  51.5648413
  57.6284097  57.4062867  59.7262859  57.8507535  57.4673647  58.7972736
  58.4673694  57.4904150  60.1793861  56.0920979  55.1697058  64.4294405
  56.6262292  55.9594221  64.3441105  55.3024511  55.3587098  63.9225197
  10.2484393   3.9014941  41.5117264   9.4231915   3.9655286  41.0310030
  10.8715761   4.4026944  40.9856749   7.4289441  44.2629290  48.3319807
   6.8047267  44.5168447  49.0117693   7.0836693  43.4403944  47.9849148
   8.5196483  10.5657506  49.5684862   7.6521808  10.4087842  49.1955376
   8.9288127   9.7008312  49.5955324  26.8678355   5.6533003  10.3286016
  26.8558383   5.9402406   9.4155008  26.1056089   6.0772687  10.7229280
  27.7776837   2.3794295  27.6259208  27.7481627   1.4747208  27.9371500
  27.1398735   2.8409469  28.1703758  20.5384657  50.4116603   3.5814360
  20.7733831  50.8507701   4.3988875  20.7016703  51.0662933   2.9024294
  81.2049529   1.0643504  52.8272676  81.7510775   0.8336477  52.0757627
  80.5671102   1.6866393  52.4777746  33.9392757   3.9983821  51.5933990
  33.5112453   3.3748034  52.1800566  34.2255688   3.4691560  50.8489609
  14.8228705   6.6239572  34.5257425  13.8865411   6.5343487  34.3482900
  14.8652267   6.9921827  35.4082680   1.9089620  20.8847046  25.9598851
   2.0834124  21.2996435  25.1151204   2.5326303  21.2927771  26.5605068
  85.3661994  38.0354548  20.7346511  84.9942133  37.6092386  21.5067887
  85.5528060  37.3165703  20.1308155  84.4820155   2.3217267  52.1411419
  84.8786861   1.5084442  52.4533176  85.1727798   2.7447662  51.6311264
  77.4540138  48.4070444  39.6625161  78.0004460  48.9257812  39.0721273
  77.1185899  47.6963949  39.1159844   8.3435011  26.4106345  46.4293766
   8.3967012  27.3094511  46.7542362   8.9678210  26.3806272  45.7044268
   4.0434000   2.9921708  52.0369720   4.1873097   2.5662771  51.1919069
   4.3272254   3.8961560  51.9010115  36.6394448  19.5610619  45.3544283
  35.6873178  19.6583676  45.3396940  36.9002461  19.8872972  46.2157011
  59.7751790  53.5748482  14.7891569  59.0646058  53.4333229  15.4146874
  59.3387204  53.6282396  13.9389312  70.1282936  15.5210221  21.6850948
  69.9740547  14.9378765  22.4283195  69.6160537  16.3045108  21.8850636
  81.9041413  34.4491553  45.7387161  81.6281629  35.0969386  46.3871336
  81.2505338  33.7527776  45.8026552  61.0032436   6.4825036  16.3812664
  61.0317203   5.5660750  16.1063412  61.3883399   6.9642426  15.6492451
  80.1807237  43.8281155  22.1041298  79.5074207  44.0055943  21.4473224
  79.8496532  43.0715704  22.5881410  34.2871621  77.5525833  56.4087820
  34.7452739  77.9023189  55.6445456  34.9187401  77.6319028  57.1236563
  77.8811729  33.8320279  62.9281569  78.5152149  34.4648814  63.2653809
  77.6728219  34.1471577  62.0486593  64.9095827  41.9410849  58.0621910
  65.4460341  41.6927624  58.8150454  64.9815541  42.8946781  58.0209112
  41.1762634  79.8222442   6.3369396  40.2510670  79.7076269   6.1199024
  41.2320056  80.7118436   6.6858462   6.4726329   9.4309068  24.2221332
   7.3385096   9.0488380  24.0789104   6.3011974   9.2932135  25.1537347
  43.3015922  79.3745837  40.8925819  43.1089905  78.4550757  41.0759974
  42.4860063  79.8344355  41.0915518  85.6003784  34.3547511  67.1606588
  84.8910670  34.6276116  67.7426004  86.1458715  33.7822509  67.7000237
   6.6315526  30.4805565  13.5960639   5.7611442  30.2913737  13.9465344
   7.1680766  30.6560135  14.3691027   9.9057478   6.4888334  39.7477889
   9.5065922   6.6495240  40.6028223  10.8221817   6.2942475  39.9440455
   1.3180678  56.2345314  47.8311539   1.3060103  56.8338251  48.5774326
   0.9717707  56.7511129  47.1035147  82.5469879  53.1883759  14.5124483
  82.1399954  52.7832240  13.7466538  82.1336797  54.0494079  14.5759463
  11.8896482  80.3045746  29.7291160  11.6661927  81.1904166  30.0147438
  11.3567755  79.7330826  30.2819943  63.0290037  46.7409325  58.0552149
  63.2108599  47.6783800  58.1211805  63.0423266  46.5599203  57.1153784
   1.2155201  11.8250453  53.7113762   0.7438502  11.4113796  54.4343138
   0.5667166  11.8952489  53.0111217  70.1178900  71.7654360  55.7886791
  70.3620580  70.8974106  56.1098433  69.9199525  72.2665912  56.5798140
   8.9915550  16.6957831  54.2448139   9.5479345  15.9533632  54.0092611
   8.1476128  16.5014875  53.8370848  81.5299228  27.6498699  40.7710218
  82.1134037  28.2119179  40.2612305  81.1998057  27.0113492  40.1389265
  77.1495235  17.5969970  29.2201304  76.2953687  17.4255025  29.6166658
  77.5622290  18.2319570  29.8055625  72.8214854   8.4319985  57.0978308
  73.2107323   7.5808936  57.2986794  72.6775080   8.4122556  56.1517286
  66.9161627  50.2751607  29.3884325  67.6901987  49.8994393  28.9689875
  67.2177312  51.1120362  29.7418809  58.8982823  42.3597122   7.3393372
  59.8056605  42.3911316   7.0361689  58.7150648  43.2499911   7.6394442
   4.9400645  29.8526263  46.4668179   4.0442076  29.8233819  46.8026972
   5.1611072  28.9374495  46.2941265  23.3250833  12.5682986  31.6141987
  23.4328270  13.0490565  30.7935333  22.5628328  12.0087063  31.4656663
  20.3121662   3.8146520  70.3548574  20.1984262   3.0724293  69.7612286
  20.2856469   4.5833260  69.7850609  45.1234531   0.5907980  43.0844069
  44.2452812   0.6617498  43.4585953  45.7080746   0.5984462  43.8422918
  54.4965601   8.8833857  40.9860659  54.6835279   9.3935001  40.1979923
  55.1018858   8.1432343  40.9414959  23.1580424  19.6708643  40.9965897
  22.3632169  19.3091679  40.6045961  23.8662052  19.3594527  40.4328871
  12.4997091   4.9739605  12.3016071  12.5531018   4.0184984  12.3233616
  12.8773582   5.2539957  13.1353903  18.1420088  37.6002622  37.2777367
  17.4614859  37.7669096  37.9299235  17.9908359  36.6970277  36.9992638
  73.1886107  37.7449727  47.9460621  73.4449416  38.4056234  47.3025799
  73.8541311  37.0616770  47.8659248   1.4379117  38.1902432  42.7062654
   0.7653818  38.7513089  43.0924511   1.9107929  37.8315520  43.4572363
  32.3881125  18.3272278  14.3686831  32.5811005  18.2819605  13.4322333
  33.2025242  18.6350262  14.7664595  63.3598212  63.3218855  46.4637566
  63.0819139  64.1629965  46.1010838  64.0343222  63.5482783  47.1040916
  44.9254146  46.6383566  20.6948021  45.3090039  46.8344309  19.8400238
  45.6304863  46.2114688  21.1815003  24.2247415   1.9563583  67.2010708
  23.6476493   1.3164261  66.7843199  24.9832320   1.4459446  67.4846268
  82.1775341  26.2645555  67.4237680  81.3889980  26.5654922  67.8752899
  82.4489880  27.0124507  66.8915987  55.6324985  72.6886149   7.2219256
  55.6235602  71.8696423   6.7265061  56.0830548  73.3097668   6.6497353
  30.5583838  64.7096438  70.0959539  30.8996752  64.2776794  69.3129110
  29.7936467  64.1893894  70.3424215  79.6534127   6.3332576  45.2141809
  79.8650128   6.6028553  46.1079216  80.4706299   5.9689587  44.8740721
  10.2989745  28.8978362  57.9933500   9.7945446  28.1338787  57.7137947
  10.2379596  28.8886762  58.9485598  22.4393651  52.3244566  69.4388390
  22.5676391  51.4305801  69.1214037  23.1087110  52.8376955  68.9862967
   2.7378676  68.7445957  56.1466932   3.1953523  67.9260463  55.9545565
   1.9742033  68.4777576  56.6584015  58.4455465  71.3766653  38.3858871
  58.8874066  70.5764479  38.6698675  58.6636590  71.4539874  37.4570823
   9.6211898  14.6650231   9.2937678   9.5996761  15.2631795   8.5467893
   8.8299751  14.1347396   9.1988391   2.5491273   7.2214168  38.1042933
   1.8923819   7.3100454  38.7949896   2.9886726   8.0714172  38.0812359
  81.9718555  56.6469282  29.1047239  82.1863321  56.4258761  28.1984305
  81.0555104  56.9218582  29.0737748  68.6402684   5.1424867  20.9020305
  68.8190633   6.0682535  20.7370472  67.7979225   4.9817398  20.4767728
  80.8485562  17.4383831  57.4629259  80.6073856  18.3582461  57.5721169
  80.1367193  16.9530141  57.8799820  82.4077848  73.3164740  52.8141212
  82.0551661  72.5089539  53.1880283  82.6941660  73.8262404  53.5719872
   1.5069464  34.2546296  28.2390833   1.4712985  35.1758766  27.9816580
   1.3401844  33.7729287  27.4289060  33.1302741  77.7427561  31.8128681
  32.4550322  78.0197964  32.4321628  33.9090422  78.2356772  32.0712852
  35.8842134  23.2163644  15.2163172  35.4050875  22.7748013  14.5151079
  36.0784006  24.0848064  14.8637116  10.8778477  27.3445439  34.0915203
  10.8129513  28.2904243  34.2231607  10.1163900  27.1246171  33.5548186
  64.2280266  64.5117075  42.1232224  64.8786584  64.4394738  41.4248705
  64.6773693  64.1873879  42.9036951  64.9508860  56.4998492  15.5907753
  65.9071305  56.4581033  15.5815628  64.6771767  55.8689900  14.9249485
  53.5550216  48.4992089  14.4562367  53.7689188  48.9112862  13.6191776
  54.3998816  48.2183530  14.8077515  20.3364325   8.1606936  61.7815781
  20.0903797   8.9084595  61.2370300  19.8691618   8.3001709  62.6052523
  64.4367793  73.6445183  49.4766998  64.4147417  74.5654226  49.7368574
  64.9832383  73.6306221  48.6909389  77.3054818  71.0888327  43.6532688
  78.2176689  71.3504011  43.7786770  77.1691659  71.1412800  42.7072763
  64.7527686  72.8757823  55.2000618  65.6127075  72.7544302  55.6025648
  64.9394718  73.0027474  54.2698717  68.9828581  11.9975960  46.7183685
  68.7774545  11.5661383  47.5477552  68.1345624  12.2870123  46.3824177
  81.1726475  25.5236554  15.3181720  81.1917794  24.7152495  15.8303690
  81.5765577  25.2876949  14.4830608  85.9976121  47.2192526   0.5745999
  86.2127002  47.8595591   1.2528156  85.4190877  46.5936470   1.0106731
  21.6131926  25.7534719  33.4118986  22.0849967  25.5488110  32.6045895
  22.1256447  26.4524531  33.8181639  56.4286635   4.4191338   9.7517756
  56.1205618   4.1493155   8.8866165  55.9585374   3.8504530  10.3615406
  53.1171763  79.6292747  54.6878672  53.3569935  78.8167480  54.2423105
  53.1379590  80.2947023  54.0001154   4.3820119  15.7817245  18.7701261
   4.1997644  14.9159789  18.4047461   4.9143597  15.6069410  19.5461977
  35.2733221  35.7723101   4.0095785  35.2239701  36.6782000   3.7043551
  34.5506993  35.6895189   4.6318272  15.4207897  10.1431394  61.6087484
  15.2246809   9.4384170  62.2261143  15.7665467   9.6956712  60.8364391
  59.6821402  78.0564172  38.5781765  59.4315900  77.1372021  38.6703682
  58.8867320  78.5440811  38.7920475   5.5500394  14.3546140  51.5772915
   6.5008467  14.2499304  51.6124821   5.2851236  13.8747001  50.7926035
  47.7643528  42.5283882   8.2841614  46.9062844  42.3916154   8.6857107
  48.3686974  42.5858917   9.0242222  41.0595467  69.1487237   1.9571188
  40.9806421  68.4792872   2.6367214  40.3833630  69.7906967   2.1736363
  13.1536818  32.7571201  51.8040657  13.0352652  31.8393874  52.0489693
  14.0484762  32.8015327  51.4670181   9.9566323  41.3829947  38.9172745
   9.2897689  41.4668703  39.5988083   9.4709939  41.4609337  38.0961084
  11.4385951  29.4691467  49.5887613  10.4996157  29.6383715  49.6656609
  11.4967573  28.5420442  49.3578243  78.7648159  12.6823175  41.6117954
  79.0207767  12.5267076  42.5209188  79.2282218  13.4830499  41.3662052
  26.4730477   0.5760220  53.6159372  26.8169117  -0.2981158  53.4318924
  25.6366277   0.4171556  54.0534258  72.8546327  34.0319371  44.3066406
  73.4346193  34.4840407  43.6939001  73.4400660  33.6887121  44.9816942
  82.7313664  55.6433149   7.2697190  83.3297923  55.1608499   6.6993311
  83.2205203  56.4262684   7.5225905   5.9643024  19.1940200  30.2087355
   5.5647719  19.9720800  29.8198533   5.2584082  18.7885606  30.7122707
   0.1703560   9.3883973  43.4605742   0.7317931   9.2722601  44.2270803
   0.7380319   9.7980052  42.8077364  55.9067395  60.8164616   1.8074635
  56.2543109  60.2488168   1.1195639  56.1631563  61.6995259   1.5416077
  82.8474194  46.1594963  15.2951503  82.4617082  46.7602491  15.9327674
  83.7250684  46.5078592  15.1382828  42.0479155  16.6204369  52.0993996
  42.4539661  17.4861586  52.1427774  42.7825785  16.0164630  51.9911575
  54.1494465  24.4971108  39.9846721  54.6970654  24.3866253  40.7619333
  54.2786026  25.4103112  39.7285247  28.7131047  24.7107077  58.9605331
  28.3966732  23.8165283  58.8319063  27.9402924  25.1999998  59.2426443
  83.4150861  43.7681198  30.6185603  83.2882276  44.5287943  30.0515366
  83.7636137  44.1316366  31.4325738  12.2064111  72.1344507  40.1279068
  11.6734502  72.6673800  39.5378470  12.6850602  71.5415419  39.5486069
  66.2549752  19.9481618  69.8767662  66.7454797  20.1595759  70.6710863
  65.7374626  20.7334661  69.6987009  12.0590639  13.8634038  48.4542894
  11.2180638  13.5000336  48.1769562  11.8387341  14.4553351  49.1735268
  79.4653851  49.7224236  38.5203624  79.4906968  50.2548647  37.7253175
  79.6193892  50.3452349  39.2307258  83.9934806  34.4257498  32.7261519
  83.9688130  35.3730488  32.5910735  84.8235834  34.2695594  33.1764460
  31.9762874  14.7246814  42.0752001  31.2513471  14.4673753  42.6448393
  32.7135468  14.1897523  42.3693657  43.8019371  32.4697208  43.3109570
  44.3435335  31.7578220  42.9702139  43.8182306  32.3496890  44.2604637
  62.3231965  62.0043755  34.1873479  62.0655709  62.5315237  34.9436378
  63.2784682  61.9673014  34.2354584  41.3901463  71.4263817   3.7786034
  41.7132476  72.3145862   3.9300230  40.8476594  71.4994689   2.9933670
  71.9705108  80.2069159  21.9851235  72.0705703  79.5727464  22.6950863
  72.8661588  80.3981229  21.7067650   7.5622582  47.7599049  26.6014290
   7.3339337  48.0174541  25.7082510   8.2211208  48.3985901  26.8738508
  15.5551612  37.1920776  27.0162749  14.8725688  36.8834543  27.6121354
  15.9584606  37.9289532  27.4751830  13.1590247  29.0717077  26.5903783
  12.3537827  28.9219618  27.0857501  13.0794859  28.5012746  25.8258438
  78.8278592   9.4692588  26.2964916  79.6979195   9.0957642  26.4369535
  78.6424458   9.3035465  25.3721595   2.2599985  48.6827326  64.4555426
   2.7448919  48.1536055  65.0888920   1.7466694  48.0477238  63.9560509
  24.3001246  40.3799534  47.7428293  25.0131297  40.1776218  48.3485651
  23.8745475  39.5374274  47.5838661   1.9065309  23.7107277  15.4545033
   2.1502568  23.7245679  14.5289552   2.5394967  23.1181598  15.8600247
  22.4653101  15.8892167  41.7836189  23.2260704  16.1226070  41.2516356
  22.7954912  15.2354932  42.3999453  85.2236107  39.4546342  31.0885477
  84.9389936  39.8192215  31.9265819  85.5727570  40.2047396  30.6072235
  28.2698989  23.2529545  14.2629993  28.5447669  23.5476112  15.1312470
  27.4689317  22.7535534  14.4220006  28.3492017  21.5853500  36.2200379
  27.8738761  20.9179306  36.7148590  29.2542529  21.2740231  36.2061906
   6.9618803  40.3229570  57.3591423   6.1129224  39.9275541  57.1612549
   6.8883848  40.6041479  58.2711506   6.2013698   9.8421460  40.6597853
   5.7498306   8.9986372  40.6308746   6.6771400   9.8876822  39.8304486
  84.7545643  48.8651752  38.6282229  84.9623074  48.0019617  38.2705450
  84.6339244  49.4208002  37.8581858  80.2020055  11.0195506  53.8095140
  79.7555357  10.3228176  54.2906141  79.5112157  11.6495836  53.6043358
  75.4042417   9.4945765  66.2996864  76.0598439   8.8831013  65.9642506
  75.6116611  10.3259444  65.8730268  36.0003543  36.8461537  26.5397263
  36.7373395  37.4521518  26.6162324  36.3337851  36.0185719  26.8863702
  28.5419893  27.3205805  52.5072622  28.9580297  27.2286010  51.6501236
  28.6067486  26.4498854  52.8995991  71.4764517  39.0013266  25.5627394
  72.2086495  39.0221739  24.9465537  71.6986567  39.6596479  26.2211204
   4.9558836  26.6644049  62.2910881   4.5174420  27.1681929  62.9767990
   5.2833945  25.8845186  62.7391338  66.2534231  41.7819977  45.7035398
  65.4952174  41.2740946  45.4147673  65.8776122  42.5368595  46.1565113
  49.7558737  18.6948502  28.4391999  50.5566645  18.4736943  27.9637456
  49.0517807  18.3208466  27.9094768  19.6992564   5.7473767  65.6251526
  18.9415681   5.4632765  65.1138496  20.0488257   6.4949125  65.1401520
  26.5180945   7.5001895  45.4449415  26.3591599   6.5882128  45.6884003
  26.1193442   7.5900102  44.5794010  72.7999479  19.4749331  25.2692580
  73.2344311  19.7660565  24.4675708  72.9533988  18.5304761  25.2954268
   5.0546957  75.8013295  67.9586597   5.7742191  75.1764844  68.0485746
   5.0360036  76.0123895  67.0252058  23.2676721  27.0291638  25.5162644
  24.1186380  27.4491596  25.3909945  22.6411867  27.6342082  25.1191878
  85.5284609  18.4010267  21.7344522  84.8990803  18.2634258  22.4423909
  85.4156874  19.3192768  21.4888287  33.5185003   3.1713957  28.1658816
  33.5929894   3.8706157  28.8153243  33.5022926   3.6269891  27.3242140
  25.1680303  34.9857664  13.3598793  24.7832537  34.4032073  12.7050471
  24.7665739  34.7159863  14.1858840  11.4714921  13.6214578  26.7417359
  10.9732771  13.8713062  27.5199318  12.3118079  13.3157492  27.0832658
  17.5769496  40.8554602  59.4229841  18.2876301  40.3349161  59.7974157
  16.8340886  40.7015371  60.0066757  61.9358283  43.7711239  29.5210385
  61.3629013  44.4101906  29.9448109  62.7962309  44.1904593  29.5109081
  41.4267063  18.3960080  20.5905056  42.1630716  18.8032627  21.0467291
  41.3170910  17.5484049  21.0215354  15.2395236  34.4174290  44.6329832
  16.1551857  34.4850492  44.9035835  15.0960398  35.1850510  44.0794468
  18.9938617  28.4932089   2.0571266  19.9313343  28.6737990   2.1261521
  18.6384201  28.7428308   2.9101101  32.0532346  34.3194199  45.5667210
  32.7124429  35.0134420  45.5700493  31.7816877  34.2514038  44.6513700
  49.0743876  21.5291095  26.7866302  48.6054802  21.3304806  27.5971246
  49.4951963  20.7040191  26.5450191   8.0709684  14.0257895  51.0136414
   8.4855282  14.7729766  50.5822706   8.4489781  13.2598174  50.5816364
  55.2937907  72.0144123  69.1874313  56.1092831  71.5879745  68.9240789
  54.8565754  71.3712776  69.7455120  37.3598146  31.0575294  64.7718716
  37.7561951  31.7459464  64.2378330  37.2052479  31.4719987  65.6207275
  34.1508126  20.8903694  53.5723066  34.2494011  19.9395061  53.6210060
  33.4586620  21.0919666  54.2019987  57.5972939  40.1194763   6.1079013
  57.9786587  39.3724489   6.5691453  58.1568575  40.8588123   6.3456196
  33.5407829  12.5394440  44.6324682  34.3265152  13.0801857  44.7128248
  33.2930756  12.3411989  45.5355549  80.8300165  78.1071792  51.2752485
  81.0942772  77.1924246  51.3733387  81.6382912  78.6046370  51.3995790
  80.2289516  17.2384417  54.9595833  80.3949875  17.2911274  55.9007978
  79.8001289  16.3911986  54.8390770  76.2264911  75.9612275  32.4789596
  76.6656509  76.3003702  31.6989899  75.3228131  76.2658695  32.3965454
   3.3925265  53.8882732  61.8396902   4.1176504  53.4723568  62.3059940
   2.6636907  53.8639593  62.4597216  55.5921036  69.7183425  29.2626119
  54.9350830  70.3956098  29.4234347  55.9423113  69.9253184  28.3961558
   9.8006612  31.7809486  62.6695919  10.1505935  31.6048312  63.5429525
  10.2614498  32.5688744  62.3813486  50.3740123  17.6110025   2.6802328
  51.1832574  17.8625580   2.2351721  50.6608751  17.0457264   3.3974531
   2.6687026  28.4822154  28.5470128   1.8640694  28.6085343  29.0498471
   2.6291600  29.1480970  27.8605223  25.0584626  30.7581425  36.3469434
  24.9413538  30.1936841  37.1110797  24.9350142  30.1754928  35.5976009
  62.9697898  80.1160808   4.3254975  62.5208094  80.8766957   3.9565638
  63.8956716  80.3588816   4.3207195  37.7132630  40.6083822  12.1393228
  38.0858850  41.2210751  11.5052927  38.2745624  39.8350430  12.0834816
  40.3087261  57.1218594   2.9816845  39.8407533  57.5139983   2.2444895
  40.0469032  56.2012478   2.9691771  37.7174568  12.0970142  44.7786331
  37.4732590  11.7539144  43.9190483  36.9774437  12.6468503  45.0361061
  83.5014796   2.7445146  25.1249313  83.7680353   3.5073751  24.6118760
  82.7688458   2.3706885  24.6353054  55.3532070  77.2176231  24.9287915
  55.8292270  76.4058716  25.1039958  56.0256385  77.8299276  24.6302104
   9.9000579  45.6990480  51.6081762   9.0000212  45.7943869  51.9197464
  10.1969731  46.5961409  51.4555454  78.2246715  37.5494123  48.1183195
  78.7733060  37.6521635  48.8959265  78.7346059  37.9450274  47.4114323
  69.6862608  68.2278728  43.5116196  68.7946325  68.3635473  43.8322830
  69.5970958  68.2038546  42.5588846  14.3376863  22.4087667  35.1232457
  14.6583629  23.0102110  34.4511843  14.4471323  22.8873920  35.9449339
  37.9107618   9.5613015  51.9779587  38.7910318   9.8549879  52.2126961
  38.0292797   9.0798903  51.1591578  79.6800178  18.1145060  26.0767198
  79.9296540  18.6387908  26.8376660  80.1801062  18.4905088  25.3523135
  11.5356374  62.1970463  53.0375051  10.7561302  61.7255640  52.7437353
  11.2133777  63.0652523  53.2795954  59.5003059  63.5319753  27.0152977
  59.9535206  63.2188960  27.7981213  59.7148612  64.4637605  26.9708660
   6.6141593  43.4668207  55.1621723   5.7430023  43.6393738  55.5193043
   6.5402776  43.6870623  54.2335892  47.0510042  29.6965872  68.0941637
  47.1160269  29.5119856  67.1571866  46.2301910  29.2841028  68.3631504
  43.4622636  55.2306755   1.2982348  44.3591168  54.9207075   1.4239481
  43.5182109  56.1791845   1.4141348  29.0543866  26.0183072  49.1173410
  29.0405512  25.5899906  48.2614279  28.3623958  26.6776919  49.0664101
   5.1683378   1.3109614   7.2048310   5.0121355   0.3976132   6.9647816
   5.7881522   1.2646462   7.9327849   8.8090551   9.0223157  33.4771800
   8.0861777   8.7019140  32.9377127   8.3838087   9.4058996  34.2441607
   3.9209118  43.9076376  30.2063847   4.3055332  43.0749559  30.4801369
   2.9973435  43.8355827  30.4473424  10.0739837  21.9742560   6.2512493
   9.4002247  22.2283673   6.8818915  10.3412569  21.0973430   6.5266037
  54.0208962  44.7095870   3.8224724  54.7493937  44.1596316   4.1106966
  54.3737700  45.5993088   3.8328102   3.5752931  15.1770306  32.0972157
   4.5279011  15.1209736  32.1722293   3.2609212  14.3235087  32.3953795
   4.5445320  35.6925750  21.4167356   4.8708960  36.1665082  20.6518126
   4.0088350  36.3330722  21.8847346  66.9302654   0.4943069  51.7626858
  67.0835161  -0.3708883  52.1424007  67.7554560   0.9619703  51.8914604
  31.8957925  37.4677062  40.1948452  32.3800015  36.6733646  40.4202175
  32.5230408  38.1776094  40.3320646  80.6112510  34.1886926  56.7660522
  81.3524324  34.2480540  56.1632586  80.2673083  33.3048749  56.6364384
  31.9820046  26.4391589  21.1679435  32.4720263  25.6385040  21.3551974
  31.2614846  26.1531949  20.6064177  48.6125373   9.2564370   8.5837630
  48.7674856   8.3808447   8.9381149  48.4141755   9.1089274   7.6590327
  86.0636023  67.8583390  56.8425846  85.6220010  67.9398746  55.9972620
  85.9263566  68.7051672  57.2671747  16.4003694  65.8984756   0.7220660
  16.7307484  66.7699146   0.5037200  16.1901450  65.5031157  -0.1239426
  25.3782892   6.5023291  34.1586399  25.1316571   7.4270982  34.1442823
  24.6097612   6.0549539  34.5128322  24.5181441  17.9562187  44.2851639
  23.5895991  17.9617178  44.5175600  24.8142028  18.8494492  44.4604301
  20.2731085  10.4167604  15.4301012  20.6756687  10.9937263  16.0791683
  19.7917402  11.0072267  14.8505616  77.7336878  26.6810751  42.0336103
  77.3331553  26.4604735  42.8745270  77.0831573  27.2293735  41.5949678
  15.1690841  32.5904632  41.6563177  14.7765756  33.4179950  41.3781834
  14.4611919  32.1286702  42.1056175  14.0040720  32.1490026  38.3716512
  14.9312806  32.3341489  38.5207796  13.5500491  32.9304194  38.6870646
  13.3309245  47.2554445  29.3379188  12.4079692  47.2630358  29.0842867
  13.6250424  48.1556034  29.1984868  20.1499602  69.6020955  37.0709252
  20.1876447  70.4279155  36.5883970  19.5678231  69.7823424  37.8090692
  66.3029003  52.1493340  10.6918240  66.7176533  52.2550488  11.5480006
  65.6630898  51.4490986  10.8204508  75.9810638  47.3905468  22.9590845
  75.9550786  47.6809645  23.8707924  75.8237356  46.4474106  23.0035686
  36.4067700  68.5819240  13.1486538  36.2907144  67.6352735  13.0673340
  35.6950840  68.9559718  12.6292065  65.4994392   1.5595123  46.1214828
  66.3728905   1.9508249  46.1353159  64.9306583   2.2549008  45.7911015
  25.8183193  58.3897400  63.7892532  25.6135154  57.8664494  64.5641422
  26.7533898  58.5785961  63.8680649  76.0756636  32.9247260  39.3180370
  75.7255632  32.0773196  39.5929289  76.4786279  32.7527213  38.4669995
  11.8948162  32.1564698  22.0458984  12.7955651  32.3063779  21.7588282
  11.5573895  33.0304575  22.2421646  25.8106184  11.5859258  42.3102045
  25.2251196  11.5478396  43.0664921  26.5099311  10.9659803  42.5172329
  14.3836522  38.2549596  31.5046287  14.0438008  38.2863665  30.6103444
  14.9753141  39.0051723  31.5624905  34.4237614  29.4419050  55.7501221
  34.1176915  28.5572052  55.5504704  34.8954558  29.7153950  54.9633932
  37.3854065  36.0562611  44.6123791  36.7063332  36.6899967  44.8436117
  37.8288293  35.8678555  45.4394913   8.8683194  53.3016014  47.1103048
   9.0946549  52.6592875  46.4376736   8.8359803  52.7964115  47.9226875
  35.1233935   5.3098750  45.6103468  35.6606460   5.4145306  46.3956118
  34.9059749   4.3778875  45.5913544  31.0568190  47.0698547  29.5128226
  31.7373347  46.9575024  30.1765275  30.3527856  46.4835644  29.7900176
  11.6900253  37.6696515  65.8174086  11.5594959  36.7306376  65.9495068
  10.8622372  37.9768729  65.4477978  75.7868236   5.6735295  15.4979253
  75.3567296   4.8720348  15.1998365  75.0956684   6.1656570  15.9410334
  64.8699623  22.4911809  40.2917242  65.6348234  22.4064445  40.8609676
  64.1809088  22.8272843  40.8648491  59.4821340  32.5282192  46.5569019
  59.9951774  31.8115211  46.1835909  59.8458821  32.6518250  47.4336243
  23.3373162  37.7750201  41.2652016  23.4083078  37.8913874  42.2126436
  22.7919337  36.9954771  41.1598301  25.1135874  58.2050276  28.2176566
  24.5383906  58.1588936  28.9813685  24.5317554  58.4347248  27.4931264
  23.3562613   6.2451810  41.2381411  23.7422132   6.8228608  40.5796862
  23.5639119   5.3619510  40.9331512  59.3172550  31.8483949  59.8849583
  58.7575102  32.3765254  60.4541683  60.1766968  32.2662497  59.9396420
   0.6350990  54.7122717  10.9691012   1.3351247  54.1065693  10.7255507
   0.8802425  55.5402040  10.5559826  14.8103750   1.1724535   5.9504110
  14.1164649   0.6468590   6.3484943  14.4955003   2.0740020   6.0159582
  27.6642275  40.0704527  41.3761711  28.5430074  39.7012925  41.2884331
  27.0777273  39.3505716  41.1437464  81.9776750  23.7323093  37.3125482
  81.0517433  23.6450243  37.0861340  82.1563572  24.6693277  37.2331595
   9.4285834  31.4563155  57.5150251   9.8099369  30.5792022  57.5534153
  10.0185633  31.9971895  58.0400085  70.4639429   7.3964888  26.7562723
  69.6285945   7.1543717  27.1560287  71.0149008   7.6596302  27.4934530
  27.2568822  31.5996122  45.8921289  26.8803596  32.0578361  45.1408005
  28.1226254  31.9925666  46.0030651  77.7537501  29.0062428  29.2239666
  77.8470331  29.8928380  28.8754296  78.1383777  29.0513110  30.0993323
  85.3551385  25.9171081  26.8124080  84.8181961  25.9349918  27.6046228
  85.0604517  26.6741681  26.3061953  66.5608233  55.9312344  23.0581427
  65.9893173  55.6823158  23.7845373  66.3561827  56.8523455  22.8971696
  47.1317950  53.8958855  13.5536411  46.4664915  54.4598707  13.1592777
  46.8267110  53.7563582  14.4501332  74.3645221  10.1152575  35.7016659
  73.8751095   9.9808598  36.5132356  73.7798065   9.7970247  35.0138664
  43.9102983  14.6993387  52.3198986  43.7755156  14.7373438  53.2668018
  44.1652632  13.7924099  52.1504736  14.0341902   8.3446294  26.6878676
  14.0622365   9.2770064  26.4731169  14.9427211   8.1168526  26.8851566
  12.2935331  16.2416840  68.4038210  11.7936134  15.4398596  68.5567617
  12.0833266  16.4867914  67.5027275  66.1238187  47.8532648  25.9990215
  66.7715365  47.4977636  26.6075540  65.3711277  47.2676754  26.0813379
   0.5637124   6.6564906  20.6212592   0.0220378   6.2938017  19.9203467
   1.4602737   6.4335775  20.3708196  75.4856700   7.6577133  11.3855863
  75.3920478   8.5903972  11.5794086  74.5952123   7.3109740  11.4411557
   9.0609545  31.8804383   2.9436937   9.1806358  30.9319186   2.8965887
   8.2169205  31.9939446   3.3806777  32.6764560  33.6160922  31.5710735
  33.4079051  33.1521583  31.9784808  33.0786920  34.1286182  30.8698201
  36.0259581   8.2230538  49.6562195  36.3501406   8.7787914  48.9474964
  35.0920916   8.4257209  49.7114563  65.5168587  18.2123303  28.9868784
  65.5245191  17.7659190  28.1401825  65.5403238  19.1436040  28.7668562
  84.4734456  17.1132040  24.6780992  84.0645930  16.5173268  25.3057957
  85.1758923  17.5361907  25.1719451  23.4586549  21.5426755  35.2617145
  22.5438213  21.5248632  34.9806571  23.8827205  22.1529484  34.6584201
  80.0679043  55.3488225   3.7368158  79.4289401  54.6898860   4.0084016
  79.5669273  55.9598703   3.1965613  56.4471292  16.9764793  49.4494772
  55.6006861  16.5323961  49.3988848  56.3900042  17.5114262  50.2411842
  63.0292064  38.9841127  35.8755255  63.0357510  38.7914538  36.8131137
  62.2126013  38.5990214  35.5575752   9.4794989  23.6467934  52.4883175
   8.6627978  23.3649874  52.0762253  10.1392877  23.5529590  51.8012142
  62.1550298  43.4546073  60.3794077  62.1273065  42.7636302  59.7175810
  61.3241959  43.9186038  60.2761814  21.6368628  14.2618227  23.3314633
  22.5031018  14.4712305  23.6807609  21.0488915  14.3474364  24.0819240
  13.7272131  32.4417686  35.6396699  12.9316092  32.9736519  35.6210399
  13.7865961  32.1312022  36.5431356  49.1133881  21.7487884  37.0540094
  48.8243437  22.1805310  36.2500930  49.6132326  22.4193311  37.5195861
   3.7280527  13.3148611  64.2647600   2.7798501  13.4191155  64.3439722
   4.0376037  14.1661859  63.9554787  78.4797221  12.6981294  61.1173964
  77.5761479  12.6221609  60.8107805  78.4039569  12.7801502  62.0680618
   8.0431587  41.5604305  19.5972919   8.5033923  40.9583330  19.0125740
   7.8215027  42.3092699  19.0438151  84.2984581  28.8064981  54.9573898
  83.6730103  29.5278144  55.0263023  83.7537065  28.0208874  54.9094915
  18.0867517   9.2505145   6.3981652  17.6031065   8.4248942   6.3722903
  18.8586152   9.0593433   6.9310004  26.0608053  40.0627708  67.7963400
  26.0424185  40.3205156  66.8746758  26.7372704  39.3871355  67.8426504
  32.9385352  39.6849275  47.3186350  33.2260513  38.9171743  47.8127193
  33.5166192  39.7092986  46.5561008   1.3269517  30.9668684  33.6383700
   1.0754562  30.5678725  32.8054333   0.7340116  30.5757546  34.2799973
  28.2286882  34.7621560  30.8189845  28.0405092  35.0067878  31.7250633
  27.5981259  34.0694571  30.6220245  61.6676596  51.7565473  10.4015473
  61.0708931  52.2334381  10.9783295  61.5588906  52.1734711   9.5468071
  31.2230706  34.8080254  42.9335546  30.4484224  35.1772642  42.5095081
  31.9070029  34.8547816  42.2655106  16.4808631  46.7611456  25.3151155
  16.8912840  46.5372515  24.4798565  16.1697125  45.9245968  25.6609440
  38.5165048  22.7693295  55.6379223  37.8889322  23.2156706  56.2063980
  37.9841018  22.4127817  54.9268293  25.6528997  10.3328443  49.4848251
  25.7841539   9.7370762  50.2224350  26.2166762   9.9858850  48.7934446
  26.4776802  41.8807030  44.1879845  26.5288568  41.8752575  43.2321692
  25.9161973  41.1356163  44.4020271  26.9121909  42.8119183  26.5979242
  26.0761690  42.5776148  26.1949372  27.5595474  42.6675987  25.9077549
  39.8664141  21.4608407  63.4602118  39.8375750  20.9254789  62.6672506
  40.0636005  20.8398342  64.1614294  20.6111002  34.7853088  50.6532478
  20.2232718  34.0460825  51.1216068  20.6091833  35.4999304  51.2900686
  34.8750353  34.6020150  51.6516304  35.6964016  34.3995500  51.2037516
  34.6010017  35.4411960  51.2816095  35.8494163  15.4798722  57.9833078
  36.6430140  15.8380294  58.3809996  35.4051304  15.0277781  58.7005615
  81.3622525  46.1116552  18.7278819  81.1502179  46.4527607  19.5967448
  81.8521920  45.3074169  18.8993168  28.9212966  49.9227047  34.9377084
  28.0401134  50.0674486  34.5930386  29.5006967  50.3243589  34.2902517
   9.5674211  36.9771838  48.5814238   9.1438067  37.8200316  48.4189701
   8.8774347  36.4309716  48.9579916  31.9653082  33.7821794   3.6563319
  31.0589194  33.5737848   3.8827470  32.2017860  33.1334877   2.9933760
  47.8233242  28.8562799  44.3640614  47.1918106  28.1499624  44.5002174
  48.5780621  28.6090565  44.8983717  22.7905703  16.4738798  47.4539566
  22.5389147  17.3378801  47.1277571  22.2649765  16.3540661  48.2449245
  23.5718584  39.2692018  36.8278027  24.1560483  38.6645007  36.3703203
  23.9911294  39.4113278  37.6764727  21.0990667  28.6709189  40.5053806
  21.6446662  29.2707920  41.0140133  21.6551828  27.9053283  40.3610325
  23.4245038  31.9025874  42.6721334  22.7201796  32.3216629  42.1776295
  23.0176830  31.6496658  43.5008430  23.5749578  18.5088551  34.8688412
  22.9830885  18.8287020  34.1879439  23.9030123  19.3018270  35.2928782
  19.9519813  40.8427477  47.5612020  20.8103490  41.1562443  47.2763252
  19.7759938  41.3265896  48.3681488  30.7745194  24.9783468  36.4273357
  31.1474657  25.2239537  35.5806828  31.5345120  24.7968292  36.9802332
  21.2991500  24.2952561  19.0324712  21.5756798  24.9482608  18.3895493
  20.8238339  23.6411119  18.5202193  27.7465081  20.7759643  40.5508566
  27.2719073  21.5819049  40.7544374  27.9770112  20.4113865  41.4053631
   9.0593165  18.2294738   9.7153747   9.8240870  18.6323929  10.1264894
   8.6314178  17.7493107  10.4243016  23.9062452  25.7975483  44.3364382
  23.7849307  25.8898163  45.2814245  23.0189586  25.8180237  43.9779234
  36.3297892  41.4786959  35.4352522  36.7961764  41.7889595  36.2114310
  36.3480091  42.2216272  34.8319650  28.4371233  34.2775488  37.7540469
  27.7751613  34.8574400  38.1305623  28.9073682  33.9276481  38.5107970
  25.7005572  41.8100071  13.8440073  26.4460349  41.8271685  14.4441748
  25.3409719  40.9274817  13.9338923  24.5177174  23.6736393  33.6224318
  24.3277478  24.2738628  34.3434572  24.7307396  24.2452240  32.8847718
  10.5948853  24.8190975  58.3279467  10.8655858  24.5304537  57.4563742
   9.9496245  25.5065799  58.1628990  24.7408032  71.7640734  43.6900091
  25.3075504  71.7417860  44.4610691  24.7692800  72.6752281  43.3980846
  59.3547630  56.7931175  54.9418879  58.8627958  55.9726381  54.9099684
  59.9352789  56.7540312  54.1818190  26.5571520   5.7202297  52.3649740
  26.2338754   5.9514766  53.2357454  27.4982664   5.5930477  52.4848557
  25.2697107   6.3413196  31.3169289  25.4903242   6.2083965  32.2388291
  25.9655878   6.9076496  30.9833789  13.1044972  62.5729704  64.9760151
  13.2894361  63.4796619  64.7312021  12.3122573  62.6260471  65.5105925
   9.6970761  65.2606773  60.0762463   9.6494758  64.3323565  60.3047037
   9.5193470  65.2853632  59.1360140  65.7321739  61.6427994  62.5668192
  64.8380089  61.9587994  62.6966095  66.2770510  62.4255228  62.6485729
  73.2982397  54.0336275  40.6151485  74.0835667  54.3160963  41.0838747
  72.7191401  53.6971951  41.2990284  45.8801862   4.6762806  34.1412711
  46.6112348   4.7922092  33.5343432  46.0646745   5.2841144  34.8573256
  82.2911644  30.9226847  46.4031029  82.9465103  30.9298038  45.7054615
  81.5256882  31.3483620  46.0169983  65.0164154   2.1907573  18.5279775
  64.2699173   1.7531639  18.1187320  64.9267009   1.9953972  19.4607246
  16.5984413   4.6563774  42.3026705  16.6133711   4.2898708  43.1868029
  17.4867126   4.9852710  42.1647024  34.6621534  11.0920768  33.5244012
  34.0485403  10.3582817  33.4892607  35.3251096  10.8816200  32.8668094
  56.6458893  75.8134174  42.9239130  56.8886089  76.2552691  42.1102238
  56.8638945  74.8939371  42.7714014  36.7926573  44.2048575   4.7111395
  37.0838713  44.3143488   5.6163672  36.0182118  44.7628428   4.6395281
   8.6193582   3.3055263  39.4476104   8.8373014   2.6703697  38.7654734
   7.8324434   2.9515033  39.8619294  20.4710269  26.6821934  13.6889389
  20.4156613  27.5997998  13.4221771  21.3677525  26.5790583  14.0074948
  61.1049652  73.3192110  26.7486143  61.9533920  73.2930088  26.3062167
  60.8115959  74.2250538  26.6505694  70.2789307  50.3409719  44.8280191
  69.3233109  50.2859879  44.8264360  70.5142689  50.4469299  43.9062691
  53.2564831  70.9573221  39.7177887  54.0941143  71.2542439  40.0733757
  53.3371162  70.0043201  39.6788788  70.4070807  72.0434761  33.8354039
  69.7614813  71.3737249  33.6098599  70.6281233  72.4541950  32.9995322
  75.5839014  45.1497126  56.3647318  75.4404211  45.5528879  55.5085230
  76.3225937  44.5562410  56.2292528  25.9847045  78.1741476  49.5327091
  26.6667151  78.7756014  49.2337990  25.1906252  78.7078381  49.5617485
  39.6806026  59.7680283  66.3444853  39.2415786  60.3490925  66.9656563
  39.4158053  58.8878298  66.6116238  84.8774242  64.9028397  65.6801033
  84.1386127  64.4610596  65.2615070  84.8857403  64.5608187  66.5740776
  64.3792105  28.0796981  64.3766069  63.6813927  28.7209582  64.2421913
  64.2965603  27.8248596  65.2955532  28.4755441   7.2378784   5.1584262
  27.5716898   7.5003963   5.3326863  28.9763853   7.6056629   5.8865285
  63.7013343  40.2609974  45.2072525  64.0673497  40.0751548  44.3425417
  63.1165960  39.5239025  45.3832960  64.5962763  61.6213655  36.8531418
  64.1032076  60.9842873  37.3701000  64.4350338  62.4587774  37.2878599
  59.3206310  61.7935228  68.1407213  58.5311985  61.8507290  68.6790133
  59.7757149  62.6215124  68.2942247  33.6325574  72.6969385  63.3842278
  34.3720436  72.6308632  62.7800560  32.8621340  72.7297544  62.8171301
  52.9905629  32.4350144   3.1161288  53.1701779  33.2848240   3.5183695
  53.7683510  32.2499777   2.5897816  42.7175262  10.6518894  47.8002310
  43.6284640  10.9393840  47.8616095  42.7603474   9.8191219  47.3302317
  72.6851418   9.3683010  48.5674334  72.1085027   9.0280586  49.2515087
  72.7722028  10.2999645  48.7690687  17.3884094  78.3570099  37.3603606
  17.1233177  78.6386681  36.4847898  18.3065188  78.6190367  37.4285221
  77.7610114   2.0843654  39.3336773  77.9138139   2.6433426  38.5718131
  78.1878760   1.2565666  39.1128588  42.1963501  64.6534300  49.0317822
  42.7551556  64.8240042  49.7899818  41.4772463  64.1251421  49.3782520
   1.4107990  37.3232867  28.9833191   0.7780480  36.7929770  29.4677094
   1.0268330  37.4174906  28.1115845  68.9332438  70.9973097  53.4836864
  69.7756195  71.0489798  53.0320597  69.1166258  71.3109493  54.3692541
   9.5996448  20.6439930  27.9084730  10.4736969  20.6550842  27.5184274
   9.0100357  20.8409744  27.1806049  55.2793264  53.8461351  33.2843637
  55.7610512  53.2573795  32.7033806  54.5094872  53.3432627  33.5502601
  49.2934179  78.9584208  19.1718340  49.8431635  78.6442757  19.8896968
  49.2946339  79.9107456  19.2682862  81.3558102  62.0111609  65.6283092
  81.8596840  62.8174639  65.5177546  80.4622841  62.2516060  65.3832817
  84.8542386  25.6796671  34.6753338  84.7305947  24.8535706  35.1427868
  84.7808247  25.4447485  33.7503174  27.1947023  34.9474960  42.0662117
  27.1390363  33.9919716  42.0566702  28.0859205  35.1384216  41.7737818
  26.1854910  55.8517100   2.7102736  25.6187748  55.4291464   2.0648983
  25.9321999  55.4584719   3.5454014  74.6148586  74.2123699  15.1582813
  75.0373650  74.0756130  16.0062301  75.3359032  74.2129946  14.5287383
  11.8271181   7.5188118  56.4133358  12.0087024   7.7620559  55.5055428
  12.2523376   8.2005172  56.9336081  64.7976828  71.8899775  39.5194435
  63.9703941  71.8523455  39.0394330  65.0626278  70.9748602  39.6121669
   2.3977393  76.7620897  29.3304324   3.3237284  76.8085527  29.0924859
   2.1246451  77.6760817  29.4096303  49.2889500  60.3076553  42.8987789
  48.3881378  60.0602484  43.1074858  49.7690868  60.1757479  43.7162733
  64.7748401   1.5187698  50.2732611  65.4551699   1.1885410  50.8600569
  64.2301252   2.0769363  50.8282089  58.6582470  49.3049955  61.6959190
  58.8888454  49.5721626  60.8061600  57.7800131  49.6602917  61.8326616
  60.4988194  33.9865685  40.7769632  59.7063446  34.2945552  41.2166834
  60.8936405  33.3732057  41.3967466  40.0136545  34.2144733  10.2483666
  39.1432479  33.8249546  10.1653349  40.5496445  33.7409645   9.6121782
  18.6790010  28.8450008  48.4567642  18.1671068  28.0545860  48.2851791
  19.2239973  28.6185032  49.2103624  50.8808661  65.6219959  34.5623970
  51.3182259  66.2826824  34.0253258  50.8697653  65.9978819  35.4426336
  68.5515165  48.5220480  49.4221020  68.3176851  48.5229015  50.3502989
  68.0329895  47.8112364  49.0451288   4.7704694  15.5754499  69.8661260
   4.5894906  15.4295139  68.9375893   4.5829508  16.5039758  70.0036425
  29.5617699  62.5369097   9.2979267  29.0748667  63.0681635   9.9279431
  29.3812155  61.6331698   9.5565680  42.5881886  17.4590994   7.4784926
  43.2741618  17.7413298   8.0834940  42.9406666  16.6693188   7.0683220
  28.4200024  34.4402625   1.7329624  28.4009003  33.9943243   0.8861998
  28.9641165  35.2135874   1.5841797  32.7832484  72.1305943  59.9036121
  32.5795865  72.7916861  59.2420197  32.2923326  72.4069977  60.6774569
  68.6150312  65.6608772  52.5943756  69.1017818  65.4859447  51.7889547
  67.8939009  65.0315952  52.5798893  56.9196513  18.1179100  27.0345736
  56.6788247  19.0443187  27.0371914  56.0934356  17.6560646  26.8921137
  15.8596107   6.0685020  30.2739525  16.4984771   5.3648143  30.3875661
  16.1837646   6.7781311  30.8285427  43.2562661  45.2326895   6.9455984
  43.2201743  45.7060744   7.7767637  42.3545956  44.9510123   6.7910460
  11.4900896  15.7307201   5.3914303  11.9619295  15.9729725   4.5946175
  11.7159959  16.4153629   6.0210812  71.3590670  67.8844738  33.6404085
  72.0323515  67.2560453  33.9011717  71.6800880  68.7268114  33.9623475
  49.5331240  74.3185997  69.2944336  48.8629580  74.9621391  69.5245647
  49.8300409  74.5829344  68.4236860  40.9326458  74.4546652  23.9785290
  41.4885139  74.0713835  23.3000469  41.5231228  75.0121450  24.4852710
  16.6326472  39.1832332  61.7458931  17.3669192  38.5717706  61.6894182
  15.8554742  38.6347799  61.6390005  70.8341697   0.2808147  61.1442232
  71.0832265   1.1762291  60.9152460  70.1434710   0.0573497  60.5203342
   2.1912548   6.5103202  42.9005527   2.4957153   7.1856456  43.5067558
   1.9669029   6.9885402  42.1022987  74.6310952   4.8351341  34.9403453
  74.3576768   4.3693596  34.1500759  75.2667764   5.4801517  34.6303558
  65.7040071  62.8176451  43.8303280  66.2790394  62.1489859  43.4582138
  65.1101542  62.3314762  44.4023561  51.7551136  67.7420139  52.3023891
  51.9401836  68.2959032  53.0608034  52.5619411  67.2453928  52.1659136
  26.2160282  23.9923721  18.7006307  25.7128495  23.5597568  19.3904734
  26.1665454  23.3927494  17.9561603  75.2053120  15.8333355  46.1699200
  76.1065486  15.5109649  46.1790085  75.1113608  16.3051754  46.9974327
  48.6476326  56.9396925  48.2735538  48.1444025  56.1255026  48.2643461
  48.2076359  57.4858570  48.9249659   3.8292903  57.3469591  56.5189266
   3.4851950  58.2331896  56.4074278   3.1712836  56.7818499  56.1140585
  21.4255160  68.8815498  49.3803263  21.9337863  68.7877893  50.1859903
  21.2127322  69.8138618  49.3385029  16.1461234  24.9048974   3.7058380
  15.6611084  24.1781737   4.0968111  16.0286498  24.7913672   2.7626827
  21.5662548  26.6348415  38.6794877  22.3368808  27.2014766  38.6434317
  21.9196340  25.7465702  38.6313009  15.7750475  75.6896257  36.1726761
  15.5130637  74.9020815  36.6495085  16.3443911  75.3680754  35.4736161
  58.5411453  54.5528030  61.1981535  58.3356190  53.7913179  61.7404938
  58.1023693  55.2830791  61.6345119   8.5606548  15.9268718  29.8240638
   7.6288435  15.7362133  29.7163534   8.6093446  16.8827110  29.8394036
  17.3717141  17.9805304   6.3708285  16.9212174  18.7138392   6.7898110
  17.2074532  17.2361876   6.9497994  81.8796825  73.7666368  62.2186375
  80.9476948  73.8407850  62.4238729  82.2756767  73.4287310  63.0219078
  51.0418224  67.4432325  47.5326586  51.2109613  67.0896435  46.6593885
  51.4654493  68.3015823  47.5296879  71.5324357  34.2490917  32.9930139
  70.9963134  34.6953922  33.6484671  71.2894538  33.3266693  33.0725741
  14.2553252  38.9277458  57.8611469  14.2813224  39.8540330  58.1010342
  14.1831893  38.4659386  58.6964703  15.0589201  16.3528019  27.9322481
  14.2269060  16.1845070  28.3745813  14.8391315  16.9718986  27.2360849
  70.9791425   2.5172573  44.5484304  70.3661206   2.0027023  45.0734711
  71.3487771   1.8891960  43.9278316  73.1793213  74.4505644  35.0420308
  73.7412262  73.9442110  34.4554257  73.6223459  74.4129419  35.8897018
  29.3430328  64.5150375  64.0090036  29.2989564  65.3854752  64.4047737
  28.5538125  64.0708017  64.3188667  83.9422515  16.6659027  40.9768391
  83.3989194  16.5100151  41.7493153  84.7955802  16.2976986  41.2059450
  67.7226522  21.2347370  60.6385517  67.3533395  21.1309581  61.5155172
  68.1227401  22.1042591  60.6485128  63.3168438  23.7562996  16.7962587
  62.8368047  24.5515495  17.0272839  63.2141879  23.6816650  15.8475101
  29.6421739  24.7737365  16.6254318  29.6928236  24.0518718  17.2519922
  30.5540487  24.9645286  16.4056146  35.4742169  65.7656717  32.3840809
  34.6993065  66.1360121  32.8066826  36.2009358  66.0164833  32.9543471
  37.8808999  28.3759190   1.5531996  37.3920655  28.5580660   2.3557499
  38.3729434  27.5783755   1.7482546  23.7611887  24.4283920   7.2522283
  23.2223818  23.6494594   7.3907614  24.5916197  24.2248207   7.6825547
  39.0346193  75.9933186  46.0982180  39.7320938  76.3907337  45.5768538
  38.4033155  76.7002296  46.2322521  36.3743377  68.8243771  48.5207224
  35.5796051  69.2981291  48.2753849  37.0895028  69.4015598  48.2530785
  10.7566425   0.9327465  53.2052898  11.0767194   1.2555938  54.0476370
  10.9299776  -0.0083584  53.2279587   6.5110847  12.8400474  38.4725142
   5.6237718  12.5581699  38.2501221   6.9474479  12.9466587  37.6272607
  62.1964457  17.7357631  22.3017621  62.5700453  17.1855598  22.9901886
  61.6385343  17.1432071  21.7979312  36.6690207  71.2174463  25.5430031
  36.0382676  71.9373417  25.5315661  37.4214149  71.5504360  25.0538731
  43.5543322  42.5816657   7.9634836  43.0635476  43.2829215   8.3919838
  44.4134449  42.5982882   8.3852461  52.4825382  78.5139561  31.9110274
  52.7665186  79.3941212  31.6642618  53.2342815  77.9554415  31.7131042
  34.7591424  75.3145456  37.3906898  33.9087725  75.4999352  36.9922757
  35.0720787  74.5332956  36.9346762   7.7943820  60.9415865  49.1654253
   7.5960654  61.7221165  48.6480570   6.9570369  60.4836321  49.2386389
  38.5248184  77.8473854  38.0109692  38.2657814  76.9328403  37.8981137
  38.8310575  78.1181383  37.1454382  83.1221583  16.6211086  48.6779451
  83.8686850  16.7325359  49.2666006  83.4345868  16.0138755  48.0072069
  49.0716410  76.8933487  34.8694444  48.1814480  77.0446825  34.5518231
  49.2585754  77.6485062  35.4271412  52.8602623  18.2433058   1.2477759
  53.6614632  18.7244917   1.0409668  52.1527314  18.8399340   1.0034970
  73.1999111  63.9380598  68.7168264  72.8439188  64.8115110  68.5537767
  72.4510288  63.3509970  68.6130810  77.9056507  56.4133002   2.0504168
  77.1304219  55.8527686   2.0830277  78.0098134  56.6242625   1.1225870
  55.7911921  72.2054100  63.1199217  56.3354492  72.2060537  62.3325109
  56.3708544  72.5236082  63.8120031   9.1411993   1.1044365  29.0316081
   9.9650833   0.8492618  28.6164737   8.5170147   0.4321628  28.7583232
  50.8121061  60.1508427  63.4475613  51.4670897  60.7768106  63.7564230
  51.0713816  59.9578619  62.5465775   5.0038165  67.9052782  47.3462009
   5.5546683  67.8017235  46.5702724   5.0978202  68.8273430  47.5853491
  48.1917667  76.8426037  47.9993916  48.6620188  76.0898924  47.6408958
  48.1101656  76.6512108  48.9337063  85.5841618  31.7401291  10.7010391
  86.4935904  31.6890408  10.4068211  85.2171236  30.8804394  10.4950264
  22.4567100   5.3621917  33.9319587  22.9043409   4.5161300  33.9262605
  21.7215797   5.2401882  34.5327330  77.6672726  49.4834067   2.6327255
  78.1376272  50.3158308   2.6783207  77.2102767  49.5122553   1.7921570
  61.4743280  63.2055235  60.9584379  61.3092232  62.2629642  60.9819269
  61.1664343  63.4811735  60.0950480   6.2232992  13.6861663  26.8232751
   6.9592258  14.2499786  26.5850210   5.9269592  13.3151298  25.9921622
   9.7877764  20.7606245   1.4040402   9.5038700  21.3297392   2.1193960
   9.5842814  19.8756720   1.7068318  10.2219650  42.1047715  59.0810439
   9.8652455  41.5807180  58.3638641   9.9188730  42.9947213  58.9011666
   1.3628265  65.9273582  58.4324169   1.0235521  66.5941959  57.8353834
   2.3143026  66.0050159  58.3624601  70.8531332  59.2342329  55.6267643
  70.3587151  58.6243391  56.1743212  71.6953802  58.8015556  55.4866362
  80.3019905  70.9607697  63.1527662  81.2062931  71.2239265  63.3237314
  79.8272038  71.7859125  63.0530262   1.0118789  78.7353945   9.3147165
   1.3527793  79.5645380   8.9792472   1.3232249  78.6967707  10.2190411
  12.9071402  34.4311120   3.9528635  13.0239796  33.9038779   4.7431830
  13.6542344  34.2025353   3.3998421  74.4962406  56.2346697  56.4355469
  74.9423742  56.4039993  57.2653198  73.6470890  56.6667509  56.5276289
  60.3915905  56.8179060   2.2468165  61.1846661  57.3433806   2.3523548
  59.9044060  56.9536807   3.0594948  67.3693657  66.4074707  62.3868847
  67.2234297  67.2168589  62.8766060  67.4823809  66.6931152  61.4803171
  10.4713937   3.6077648  32.1416068  10.8494112   3.8524490  31.2969398
  10.3776237   2.6562839  32.0954347  17.4155020  25.5330779   8.1177786
  17.9196810  26.1618258   8.6342219  16.6159844  25.3928782   8.6250714
   9.5841571  12.6968628  48.0903149   8.7900707  12.8335434  47.5736141
   9.4231245  11.8819385  48.5659266  48.2295513  39.9030709  68.6975479
  47.4847937  39.3744159  68.4110165  48.8164711  39.2787170  69.1240883
  72.6452401  14.5955234  31.6075897  72.0510247  15.2985531  31.3451171
  73.3429911  14.6146351  30.9525990  18.1296753  63.1441714   7.7077082
  17.8199505  62.2448088   7.8147391  17.3563504  63.6316229   7.4238232
  39.1905546  69.5058393  64.8570108  38.4343243  68.9192677  64.8737431
  39.3029737  69.7777319  65.7678747  49.4278025  34.1310002  16.7826393
  49.8843598  33.7954976  17.5541428  50.0010514  34.8195244  16.4456585
  62.9654315   1.0740810  35.6981754  63.2099083   1.0107856  34.7748899
  62.7515986   1.9982200  35.8265090  62.3921871  64.2852211  54.0304756
  62.1679211  63.6737585  54.7319412  61.6501331  64.2405844  53.4274864
  45.6613684  64.7741938  46.9263554  46.4144421  64.2015791  46.7806911
  45.8478689  65.2080488  47.7589560  62.3212862  76.0411358  56.1624241
  63.0334139  75.7325840  56.7226934  61.6605043  76.3678503  56.7730427
  43.3845901  55.8412743  17.4523211  44.2063999  56.1820793  17.0991755
  42.9174328  56.6168737  17.7628756  58.3520555  62.2870684  17.6561916
  57.7068567  62.7752638  18.1676757  58.6269426  62.8975058  16.9720650
  32.3320818  75.6793165  19.2808020  31.9997430  74.9491501  19.8029470
  33.2679272  75.7095003  19.4795871  39.1582203  71.1788607  67.2954226
  39.5164537  71.3059044  68.1739187  38.2739663  71.5423346  67.3424673
  82.8753903   6.3103252  36.4891505  83.6547044   6.5700584  35.9977865
  82.9195502   6.8225818  37.2965407  13.8787910   3.7429004  32.9115725
  13.9135477   3.2766204  33.7468004  13.5065099   4.5973640  33.1295943
  54.1840458  72.2384882  48.9185619  55.0257587  71.9960308  48.5325956
  53.8111210  72.8694630  48.3029079  24.6594023  68.8389040  29.9781731
  23.9153504  68.2420851  29.8980168  24.4226336  69.4212748  30.6999901
  43.7022591  79.7716665  24.0247512  43.4816980  80.0382328  23.1322670
  44.3653107  79.0902138  23.9142370  64.0048507  16.9881206   8.9497101
  64.9433377  17.0000511   8.7617385  63.6439016  16.3569122   8.3271933
  78.5607672  52.6940346  22.9706144  78.3099604  51.8492603  23.3443546
  78.5726643  53.2923889  23.7176490   4.6001696  40.3571059  31.5713051
   4.4153404  39.7580744  30.8479622   3.7573504  40.4688193  32.0110920
  65.3015137  62.3910093  66.3598394  65.1817942  61.9560385  67.2040558
  64.9827433  63.2822609  66.5022707  34.6009945  42.9089571  10.5445698
  34.3928217  42.0532729  10.9196690  34.2658448  43.5383536  11.1831406
  60.1390934  69.5875072  22.9485130  59.8360062  70.4949665  22.9783463
  59.4521809  69.0908289  23.3931375  44.8478746  74.5257378  40.4641151
  44.9904490  75.0786161  41.2323809  45.4931259  74.8308992  39.8263431
  28.4790206  73.3146572  34.8878622  29.2059612  72.7231359  34.6932030
  28.8663387  74.1893435  34.8540616  80.2317839  31.2016036   0.3683165
  79.7932988  32.0450093   0.2559260  81.1479288  31.4275147   0.5291823
  47.2284570  13.1136566  17.4636269  46.5678754  13.6183887  17.9380882
  47.9894581  13.1096416  18.0442238  46.2502909  66.6864920  49.3586969
  46.1748600  67.5311613  49.8026276  47.1011734  66.3459301  49.6348333
  70.6808758  78.6784172  66.4413452  69.9568272  78.3551121  66.9774961
  71.0544634  77.8918219  66.0439348  57.4813843  71.7156410  61.0060930
  57.6938772  71.1177588  60.2894211  58.3313131  71.9726706  61.3635683
  68.5686493  78.0384254  59.8548508  68.0571842  78.7412119  60.2557611
  68.0247641  77.7297878  59.1301632  49.0887833  66.2667465  49.3121338
  49.6060991  66.5010595  48.5416031  49.4535828  66.8015480  50.0172138
  39.7767711  65.3002071  21.5638781  39.6330810  64.7748852  22.3510408
  39.9836183  64.6599197  20.8830857  34.4039270   5.2470832  54.2709160
  34.1026327   4.9533802  53.4111500  35.3475782   5.0868660  54.2616129
  79.9779177  60.7749891  48.7123299  79.4494104  60.1303577  49.1828251
  79.4760609  61.5876818  48.7748003  60.0566271  15.1684623  32.3610997
  59.2142918  14.7244506  32.2633171  60.3616526  15.3037220  31.4639401
  20.6044769  66.6802645  41.7248821  20.0368595  66.1840391  41.1351299
  20.5084491  66.2452316  42.5720882  56.8122196  69.0472126  21.5109944
  56.7739534  69.7669172  22.1409130  57.2820330  69.4106293  20.7603693
  55.4006695  32.3641755  17.2374466  54.5650315  32.6928164  16.9058731
  56.0545754  32.7255942  16.6391018  66.6034749  13.3760887  45.8998966
  66.2182072  14.2204815  45.6658268  66.2309411  13.1724029  46.7577791
  20.3380272  12.7107483   2.7145544  20.5041000  11.7682796   2.7347872
  19.7316477  12.8314644   1.9838277  70.9138587  12.3610645  43.8214827
  71.6326287  12.8934627  44.1622829  70.1453832  12.9283863  43.8832426
  10.3701374  23.4762436  45.0899649  10.6880685  22.5736957  45.1133204
   9.8667499  23.5319191  44.2777252  24.8557207  23.1011062  67.9940557
  24.8989126  22.1856170  68.2701683  25.0853464  23.0821663  67.0650005
  70.9298950  48.9227320   7.1754101  70.6519335  49.7320868   7.6042488
  70.8503526  49.1079451   6.2396744  83.1742862  28.7015682  66.5848780
  83.6109689  29.5383125  66.4255047  82.4991420  28.6510330  65.9082270
   3.0472728  21.4019924  42.6497841   2.6948520  22.2857433  42.7547407
   3.8222667  21.5169292  42.0998716  26.8353960   5.6898838  40.8978701
  27.6522562   5.6378322  40.4016066  26.1553404   5.7828766  40.2307081
   7.3973390  10.3522640  35.2918839   6.8072721  10.1627975  36.0213709
   7.6872703  11.2514454  35.4456711  80.8945754  19.8740917  27.8658795
  80.5379107  20.6078296  27.3652291  80.8381369  20.1569610  28.7785840
  77.2192290   9.6431785  23.3872604  76.5846780   9.8450046  24.0748930
  76.6905692   9.5417648  22.5957656  24.4639227  25.0140243  61.9117260
  24.2775461  25.6638389  62.5894070  25.1870176  24.4975334  62.2675323
  11.5439772  57.8694560  12.8872135  11.9201922  58.5696818  12.3539475
  10.6031870  57.9183890  12.7176693  34.2425513  67.7822447   9.1002131
  33.7646079  67.7441549   9.9286753  34.5866704  68.6746788   9.0630412
  14.0497562  34.7894340  40.8094931  13.6728975  35.1552158  41.6097498
  13.2941791  34.6046596  40.2516460   4.7206709  24.8590904  28.9052486
   5.2593919  24.5795494  28.1650710   4.1657564  25.5529457  28.5490561
  11.3682624  11.7213874  61.9646358  11.1012718  12.6370960  62.0448017
  10.6723854  11.3132339  61.4494705  10.9614011  28.6486583  24.4023561
  10.7986280  27.7312999  24.1828370  10.9912941  29.0956836  23.5564780
  58.1149408   0.2451664  42.0655489  58.0059835   0.3948932  43.0046654
  58.9128324   0.7224231  41.8379068  48.2890081  71.6368294  29.4807744
  48.3368063  72.5622416  29.7206903  48.2835436  71.6375256  28.5235906
  70.5855658  40.0334125  66.2289667  71.0045579  39.8477512  65.3886032
  69.6482375  40.0310474  66.0349607  59.8250606  18.2770591  66.4614677
  59.1038945  17.7995449  66.8715096  59.4341734  18.6832100  65.6878567
  79.2454481  52.2222281  26.8360734  79.3266821  53.0306339  26.3299942
  80.0699902  51.7605019  26.6838789  53.0942654  38.1057669   2.4219921
  52.5371098  38.8597466   2.6151684  52.5049519  37.3531987   2.4728325
  62.7786970  58.0468702  35.2495098  63.2941246  58.8402081  35.1039863
  62.5911522  57.7184391  34.3701982  68.1667519  68.4495735  49.7237349
  68.1895065  69.3382883  49.3689060  67.6539421  68.5259914  50.5283594
  76.0509160  21.4051109  19.3177438  76.1342099  21.4661937  18.3661342
  76.5915921  20.6525570  19.5576823  27.7958700   3.7192875  36.0086179
  27.4336931   4.6005016  36.1009383  28.6894819   3.8592201  35.6953812
  66.7106703  11.6087776  32.7026463  66.2116793  12.4255329  32.6903152
  66.9206121  11.4702850  33.6262131  34.7751352  48.7714534  12.1417153
  34.9610540  49.6798187  12.3795080  34.7222540  48.7800747  11.1860168
  37.2247839  75.3361464  43.6872101  37.5054097  76.2510204  43.6652422
  36.3243842  75.3539515  43.3628702   6.0763952  19.4799572  61.8293238
   6.4091512  18.6221080  62.0931435   6.3152525  20.0617748  62.5508976
  24.7201654  34.1980510  49.4520855  24.9268743  33.3249527  49.1186142
  23.7719747  34.2762809  49.3469858  73.7898159  70.1554489  67.4021006
  73.1578064  70.6922340  66.9239187  73.6212921  70.3510332  68.3238268
  33.5668489  28.1999546  51.5578127  33.0041048  28.1721645  50.7840061
  32.9604551  28.1512695  52.2968340  62.2528767  52.0682646  34.0914753
  62.6401448  51.2069155  34.2474964  61.3604092  51.9943930  34.4295147
  68.3790970  44.3869543  48.5379601  68.4827614  44.9563980  47.7755833
  69.2098999  44.4616652  49.0074492   8.9266369  20.3169399  41.7005825
   8.8708278  19.3663555  41.6030741   9.5908472  20.5842834  41.0653019
   0.3821537  40.7865196  23.5296845   1.0548851  41.4673954  23.5214567
   0.3032467  40.5388981  24.4509268  83.0438474  28.4571224   4.3605426
  83.1236461  27.5248104   4.1588947  83.9291003  28.7256103   4.6064687
   3.1665468  56.1757399   9.8112705   3.7242651  56.4447905   9.0813473
   3.1264090  56.9457079  10.3785160   7.4885678  65.2933432  27.2415093
   7.8774404  64.5468642  26.7856816   6.5614056  65.2614333  27.0057419
  66.2759211   2.3323780  22.7373695  66.2994149   1.4969307  23.2039618
  66.7399171   2.9409557  23.3123255  43.0256701  74.1963530  22.3338461
  43.7599134  73.6517000  22.0501614  42.8001928  74.7154093  21.5618539
  51.2935305  75.5211020  64.1585684  51.8804312  74.9384642  63.6765814
  51.0464001  76.1920786  63.5222149   1.0985300  26.7271286  60.9509659
   0.9693691  26.2052208  61.7428970   0.4524252  27.4300628  61.0193491
  17.3597693  18.1333996  15.1793888  16.4277529  18.1210591  15.3971604
  17.8040719  18.1127383  16.0269669   7.1199772   2.0213371  68.6025286
   7.8236076   1.8495422  69.2283297   7.2499582   2.9326683  68.3402157
  30.2492353   8.7486988  52.6051760  30.7036421   9.4753986  52.1789598
  30.9468481   8.1409794  52.8506374   1.7891809   8.1545597  31.2139130
   1.3541910   8.9157062  31.5982056   1.6498014   8.2494312  30.2716780
  79.1504863  49.2153984  31.1799216  79.3972924  49.9795108  30.6589103
  78.2093671  49.1196876  31.0337615  42.6012823  30.2173572  48.8360786
  41.8972131  29.7947555  48.3442068  43.3527586  30.1975494  48.2435274
  65.0838566  53.9869308  49.1493940  65.5342770  53.2870817  49.6222162
  64.1764498  53.9331388  49.4493103  75.1506376  74.3926430  68.6066008
  75.7977009  74.9628210  69.0218496  75.6237030  73.5782814  68.4355450
  71.6763163  71.3343382  58.6353874  71.5075731  70.8756399  57.8123713
  71.6344690  70.6503725  59.3037271  28.3473986  78.9554882  69.3912888
  27.4971312  78.7063074  69.7534847  28.7631148  79.4664812  70.0857735
  77.2419408  25.9209972  18.1204665  77.2526362  26.7527633  18.5940564
  76.6742041  25.3549152  18.6434042  68.4549332  78.9414740  69.4950008
  68.0727577  79.8184156  69.4611359  68.2071209  78.5398817  68.6622095
  59.9210405  80.9110546  30.7793784  60.5536413  80.6535339  31.4499974
  59.1982937  81.3027763  31.2697124   7.7028960  73.8373280  56.5671492
   7.4362582  73.5327435  57.4345398   6.9616717  74.3580389  56.2578344
  78.1892302  16.8214851  69.2298841  77.3250153  17.1769958  69.4371843
  78.5335114  17.4068790  68.5553312  51.1022043  55.3201962  60.7828236
  50.8110380  54.4608402  60.4779243  51.8794250  55.5100727  60.2573681
  71.8876266  56.2711334  48.7766171  72.5611544  55.9115314  48.1993198
  71.5287685  57.0145082  48.2920122  17.7876732  26.4523559  47.4696398
  18.3244011  26.7758136  46.7460871  17.5935671  25.5444675  47.2366381
   0.8570978   5.1505523  22.9498696   0.9916374   4.4104152  22.3579836
   0.6687900   5.8891254  22.3708391  55.1096964  60.6994677  68.1620502
  55.5049324  60.8030558  67.2964382  55.3765821  61.4831305  68.6425447
  33.4240770  72.4090624  10.0883055  33.9944434  73.1204796   9.7971052
  32.9590058  72.7688360  10.8436239  26.6328928  16.1595588  44.8154163
  27.2782633  16.7077213  45.2617884  25.8684942  16.7261749  44.7111607
  67.8097725  74.1631746  67.8171396  67.3697615  73.4939146  68.3412647
  67.3582411  74.9772024  68.0400991  78.4674454  59.6661043  45.8075809
  77.9749298  58.8665152  45.9928274  79.3835926  59.3887806  45.8087254
  64.6557644  22.9096561  19.2022526  65.5064037  23.3157306  19.3688262
  64.3777087  23.2725101  18.3612704  80.3344777   8.4887272  33.0457997
  80.5568841   9.0678745  32.3168659  80.9726479   8.7039142  33.7259984
  85.5572322   2.9706150  56.3761711  85.0795987   2.1591430  56.2041140
  85.3005746   3.5553890  55.6631517  10.0074741  19.9084144  48.2836533
  10.0197336  20.8654457  48.2709742   9.1056654  19.6774536  48.0608702
  13.4119054  24.2019230  45.0072908  13.6316892  23.5276466  45.6501484
  12.4793264  24.0730529  44.8343229  68.4044507  11.0083252  13.2447374
  68.1264928  10.8118396  12.3501062  68.5002187  11.9605594  13.2621121
  16.6846773   8.6963039  59.5109224  16.1300155   9.0171009  58.7998199
  17.5754568   8.9148765  59.2371178   7.4354240  44.0104442  38.3848548
   6.9980737  43.2464080  38.7606359   7.7992365  44.4734245  39.1395164
  61.2946558  67.4234009  38.5365939  61.8993092  67.0757914  39.1921806
  61.8581486  67.8656292  37.9016590  40.4591846  73.6159801  41.2879324
  40.2373838  74.3687582  40.7398796  41.0969639  73.9561844  41.9154215
   8.0603811  24.0422302  65.4737091   7.3227951  24.6498447  65.5284357
   7.9908058  23.6592155  64.5992422  60.3526974  50.3152227  56.2520313
  60.6459379  51.1779022  56.5453339  59.8239231  50.4936123  55.4743433
  82.4814320  65.7870674  58.7090683  82.0775986  64.9194098  58.6908531
  83.4117222  65.6215239  58.5561514  13.0754253  16.9403988  58.9884377
  12.7848407  16.0345035  58.8828373  13.9544460  16.8681484  59.3603706
  56.4177250  60.1574828   8.2312754  56.3131260  59.7999026   7.3495606
  56.2062478  59.4270350   8.8126114  39.3793416  46.5439154   9.4381502
  40.2783989  46.8573023   9.3395975  38.8591456  47.3396803   9.5494059
  85.6319832  38.6937024  17.2327069  86.4048981  38.1305577  17.1913937
  85.5121254  38.8678242  18.1662777  71.3938332  66.9188833  22.6002169
  71.5011120  67.8543329  22.7724195  71.9347095  66.7539406  21.8278956
  84.2064381  75.3672600  50.8549356  84.0450096  75.2535725  49.9183178
  83.3430672  75.5481482  51.2265539  86.0953238  14.2427307  25.9954119
  85.8799889  13.8185363  25.1647973  85.2672627  14.6186786  26.2940955
  43.4456205  50.8013678  20.7633877  43.2807922  51.7215490  20.9691381
  44.2979050  50.6166506  21.1580038   7.3135349  11.8672424  60.3304148
   7.0069143  12.4061447  59.6011686   7.0768663  12.3656326  61.1126089
  27.9564687   9.3852859  37.0329690  27.0594808   9.2486911  37.3379087
  28.4054205   9.7820717  37.7794576  72.7929878  75.1960087  69.8596382
  72.1565819  75.0551033  69.1586637  73.6309576  74.9334812  69.4786930
  43.6382914  76.3871717  55.7374477  42.8503370  76.4516211  55.1978111
  43.5207987  75.5794001  56.2373734   0.8126756  16.4780670  32.5001860
   0.6066248  15.7680851  33.1082034   1.4589473  16.1017662  31.9027233
  67.9875422  70.1045132  26.8015575  67.9936647  70.6475973  26.0133624
  68.9033651  69.8569965  26.9289947  67.4992895  63.6452055  32.5195765
  68.3174324  63.2180023  32.2658587  67.6473045  64.5732641  32.3378181
  83.3435729  31.2525898  35.1894188  83.9178231  31.1673027  35.9504676
  83.3940080  30.4012733  34.7547245   2.0219058  34.6895003  34.2715263
   2.0468921  33.7332630  34.2366505   2.3846644  34.9074197  35.1301003
  73.8080933  31.6752105  34.6129775  73.8198378  32.1526294  33.7834215
  73.1760266  32.1493583  35.1532698  11.8277713  15.9016948  41.7385435
  12.2118875  15.0302463  41.8348122  12.1191284  16.1979347  40.8762264
   1.5077514  65.5900860  52.4362612   1.9398803  65.8755970  51.6312885
   2.0709342  65.9151268  53.1386900  16.6044635  73.8043118  69.2877388
  16.9207591  74.5984173  69.7185326  16.7637461  73.1070566  69.9238968
  58.3370041  43.3026148   0.5198315  58.8575673  43.7514426  -0.1463482
  57.4654793  43.2261588   0.1314476   5.2076479   3.7967283  11.8241528
   5.7616469   4.5453817  12.0451477   4.5804735   3.7417681  12.5451687
  75.2826169  34.0920787  25.8765078  76.0500434  33.5439258  26.0402894
  74.5570186  33.4722381  25.8021164  53.7497425  76.0836363  44.0074587
  54.5360231  76.1489820  43.4654951  53.1304884  75.5873680  43.4722328
  52.4108719  73.3855273  11.0356072  52.5147938  74.3018652  11.2920407
  51.4755749  73.2117297  11.1416271  13.8644764   8.5029560  40.7555628
  13.0619165   8.1348472  41.1251974  14.5687982   8.1000572  41.2633324
  62.0498183  43.8429790   9.2401361  62.1631363  43.9067035   8.2918060
  61.1222604  44.0307670   9.3836707  10.6231090  36.9394069  43.4850693
  10.5523369  36.9201713  44.4394541  10.1945421  37.7562671  43.2295322
   8.5744617   8.3495263  62.2067824   8.1822369   9.0653209  62.7068123
   8.3205626   7.5582627  62.6818284  77.8886416   5.3365760  23.4623885
  77.7296069   5.8579593  24.2492151  77.0599892   5.3658157  22.9841495
  83.7296963  45.7339334  32.7564120  84.6815968  45.8186960  32.7021742
  83.3941078  46.4985466  32.2884583  78.9665940   3.2875877  55.8945656
  78.4869721   2.5129944  55.6009722  79.0955499   3.8050037  55.0996590
  74.7903585  71.0686111  34.6723890  75.7187748  70.9337139  34.8623323
  74.7728634  71.8284750  34.0905499  59.1996911  11.6553550  53.2658672
  58.9961865  10.7263523  53.3743477  59.3262675  11.7643505  52.3233557
  79.7850132  37.5037622  12.5486171  80.6616211  37.8788424  12.4643147
  79.9208069  36.6806579  13.0179667  80.0488570   4.8226505  65.3944588
  79.1203406   4.8765617  65.6207037  80.1390508   5.3768211  64.6192217
  -0.2113324  73.3222866  32.3283052   0.7351893  73.4465170  32.3983335
  -0.3285962  72.3723030  32.3247695  59.5405531  67.5478840  15.8848608
  59.7299433  67.7710962  14.9735212  58.7441397  68.0373240  16.0907936
  81.8556359   9.3888336   3.4838295  81.2976315   9.9183708   2.9142231
  82.7029612   9.8338943   3.4700030  11.2155175  64.9271418   7.9956368
  11.9761204  65.3937842   7.6492766  10.5044484  65.1485182   7.3942974
  47.4715614  73.7041664  44.7880745  47.1430635  73.0639124  45.4192638
  47.3059845  73.3051252  43.9339161  20.3383180  34.8537593  60.7395887
  19.8988935  34.3916565  60.0257301  20.6740257  34.1578441  61.3045883
  32.5058267  70.5754308  70.0121316  32.0017001  71.0198049  70.6937621
  32.4777362  71.1733655  69.2651983   5.7067081  28.0007892  40.8292866
   5.0392028  28.4186512  41.3734055   5.8299419  27.1368652  41.2225866
   7.3561400  40.5844402  48.7074757   7.2157878  39.7432256  49.1420841
   7.1436519  41.2371111  49.3746328  72.3075676  70.1922989  35.0690627
  71.7877007  70.9945154  35.0198102  73.2010221  70.4733896  34.8716903
  57.0898747  31.8541743  11.2922409  57.5508523  32.0178391  12.1150044
  56.9717335  30.9045817  11.2686852  70.8175945  74.2761707  38.0209994
  71.7597580  74.4444895  38.0360293  70.6857681  73.5932875  38.6786675
  80.2841046  30.1078277  11.1399245  80.7795241  30.9268432  11.1378968
  79.3736937  30.3789001  11.2578404  18.5296461   5.3677517  39.7560811
  19.3394443   5.2346283  40.2487564  18.6461898   4.8502212  38.9593339
  77.5152826  71.6319704  31.5401030  77.6001501  71.2070417  30.6866026
  78.4169865  71.7596626  31.8348050  61.4984628  14.0995746  37.8369856
  61.9430753  13.2749324  38.0332279  60.5758020  13.8596779  37.7510643
  35.4888201  74.8297501  57.1549225  36.3762212  74.4996786  57.2956467
  35.4317021  74.9676609  56.2094307  28.3682367  13.0086380  58.3823490
  29.2253992  12.5883251  58.4520531  27.8002664  12.3340564  58.0100965
  73.0192473  13.3213764  37.9323483  73.5861972  12.8604084  38.5506654
  73.6185315  13.6719185  37.2734046   4.9918649  76.9608907  65.3304318
   4.6415374  77.8289632  65.5302924   5.9170816  77.1142606  65.1389179
  42.9405713  53.3668925   3.4445551  42.8109383  53.9053370   2.6638487
  42.3174691  52.6470972   3.3452347   5.8745307  25.6800103  42.4536228
   4.9434012  25.4746962  42.5377417   6.2623805  25.3734946  43.2732868
  13.7822837  57.2150326  36.0835314  14.1935653  56.8036652  36.8437028
  14.4124812  57.0909309  35.3738260  33.8969153  75.6795502  51.4655256
  33.8346404  75.1335192  50.6818104  34.7683448  75.4961824  51.8165636
  56.9905141  65.6850262  20.8500221  56.1950066  65.9566136  21.3078907
  57.7017858  65.9189125  21.4463642   0.6283352  67.4835712  60.5298090
   1.2259957  66.9993312  59.9601173   0.4701683  68.3063502  60.0669384
  43.1684351   0.4340869  25.7754302  44.0640831   0.5760698  26.0818410
  42.8400230  -0.2820740  26.3190222  59.5068577  73.8374818  58.8826466
  59.7906032  72.9938597  59.2348146  59.4927329  74.4211376  59.6411848
  15.8480310  30.9756112  29.1220212  16.7047131  31.0809898  28.7082314
  15.2202916  31.1422586  28.4188843   2.7666971  75.9607435  22.0629716
   2.0528814  75.8567900  21.4337707   3.2830736  76.6905404  21.7209458
  23.5218191  39.5600128  33.5541987  23.4176183  38.6735725  33.9000273
  23.5891199  39.4411206  32.6067996  65.2806375  79.6570512  61.5360308
  66.0446176  79.7790790  62.0996571  65.1294407  80.5187546  61.1476517
  18.7038505  -0.0044456  55.8225012  18.9075089   0.1041059  56.7514658
  17.9968524   0.6194608  55.6578016  65.3943688  16.6835177  26.9038725
  65.6647903  17.0207977  26.0498548  65.8539563  15.8480859  26.9879103
  78.4218624  63.4426982   7.9319239  78.5879162  62.9259080   8.7203312
  79.2718247  63.4920687   7.4944782  75.7653454  62.3467929  38.2288313
  75.2748361  61.8416006  37.5804377  75.8912471  63.2030827  37.8199935
  84.7102812  43.3833188  19.6853173  84.1523460  43.6131472  20.4283643
  84.0988139  43.2304496  18.9649212  22.6748896   7.6855350  66.1712027
  22.7378654   7.6825154  65.2160788  23.5197330   7.3473418  66.4680099
  84.7315337  10.6955624  66.2187815  84.0475678  10.3884792  66.8138599
  84.5633906  10.2295280  65.3997755  56.6495683  81.0745030  40.3613758
  56.7118492  80.1367692  40.1796961  55.7823208  81.3233257  40.0416899
  34.7622016  71.4910782  49.6860409  34.1610864  71.2274695  50.3827477
  34.5231369  70.9387345  48.9417315  63.4873154  61.3032003  14.6912602
  64.3206957  61.4053722  15.1509026  63.6548236  61.6446658  13.8128689
   9.9474382  24.5063210   2.3283584   9.7671741  23.6689949   2.7557036
   9.7070771  25.1646256   2.9803503  22.6112747   7.0477188  31.8531322
  22.5962949   6.3103759  32.4633217  23.4676576   6.9905645  31.4293718
  58.3392243  79.7425421  28.5248470  58.2097829  79.6760512  29.4709206
  57.9971250  78.9186702  28.1778097  70.6205052  27.2821617  40.1451159
  70.8089417  26.6350436  40.8247948  70.4499298  26.7620230  39.3598819
  69.5000532  63.0541856  25.3956413  69.2721287  62.3718852  24.7641754
  69.9893168  63.6992938  24.8850656  57.2531336  49.4667715  49.7493362
  57.1637383  50.3444714  49.3780088  57.7663245  48.9837880  49.1015720
  75.0540319  76.5634746  46.7090750  75.3687540  76.2356309  47.5515127
  75.0480798  75.7940359  46.1397219  64.5440695  61.8874866  21.2057424
  65.0313387  61.0695869  21.1065364  63.7836942  61.6503984  21.7366385
  21.0815930  19.2712152   1.5694267  21.8883324  19.7824049   1.5054819
  21.0258722  18.8062406   0.7346063  26.4170766  10.5779850  39.1723514
  27.3003459  10.6133103  39.5395327  25.8926940  11.1254978  39.7567201
  26.6451812  21.1630559  22.9767036  25.7904601  21.2006044  23.4059739
  26.7893434  22.0518589  22.6519299  23.4631205  19.7409844   7.7020919
  24.0253568  19.2601323   7.0947176  24.0460443  19.9961150   8.4171724
   4.2897636   4.2053610  33.2129073   4.3781164   4.5538568  34.1000247
   4.4218990   4.9633759  32.6435351   8.8061688  73.8809187  16.2501287
   8.9007756  73.1143153  15.6847966   7.8603074  73.9949620  16.3427293
  43.5414219  22.9023910  10.0276709  44.4744778  23.0560279  10.1761138
  43.4151411  23.0780172   9.0952331   8.1575668   0.8466903  12.6923680
   8.6243355   1.6212782  13.0060112   8.8411921   0.2892736  12.3206496
  49.6765366  75.6906587  22.9241109  48.7652829  75.5528349  23.1826687
  50.1460293  75.8010489  23.7509251  72.9582673  14.6758771  21.4689803
  72.0197755  14.6387577  21.2843561  73.1115848  13.9525235  22.0768332
   6.8803012  24.7762156  44.7238445   7.1959651  24.7006154  45.6243324
   7.2074777  23.9890456  44.2884684  35.3035402   7.9166198  39.6364450
  34.4083476   7.5869787  39.5577025  35.8118534   7.1611780  39.9316692
  10.0981569  28.4828568  30.0983834  10.2990222  29.2613959  29.5789981
   9.6931297  28.8246465  30.8954811  75.6117001  44.7882718  23.8115168
  75.2941004  44.3394060  23.0280113  76.0515490  44.1049404  24.3173051
  67.9080588   9.4297975  27.9831195  68.1645793   8.9702404  28.7826419
  67.4092942   8.7826675  27.4844337  42.7218151   7.2903913  47.7400827
  42.1118307   7.5374061  48.4351587  42.1913481   7.2943002  46.9433260
  45.6274954  64.7024888  40.8125591  45.8056358  63.7772197  40.6441069
  46.0670641  64.8836488  41.6433334   2.4787934   7.4690861  26.8479562
   3.0293033   8.2380229  26.9959664   2.7590221   7.1342719  25.9961319
  18.0774856  18.5614383  61.7279005  17.2383285  18.4385312  62.1716833
  18.3018172  19.4778764  61.8893003  55.9937411  18.3680153  45.1280832
  56.7727810  18.0444717  45.5804634  56.2508231  19.2269623  44.7929001
  23.9939070   1.0296243  30.4150271  23.8888693   1.9528574  30.6448960
  24.9204326   0.8476180  30.5720448  16.0023737  24.5223927  33.9465761
  15.1636446  24.9692631  33.8322425  16.6585183  25.1881123  33.7403607
  12.3017943   5.5862719  40.2065563  12.4768472   6.2650931  39.5547938
  13.1375825   5.4657835  40.6573009  55.5029011  18.7842035  54.6364307
  55.2630186  18.0263615  55.1696873  56.4591694  18.7598372  54.6020412
   1.5457794  69.7237474  17.6891351   2.2148177  70.3722662  17.4699438
   1.1017773  69.5479018  16.8595743   1.1629936  50.5703801  26.8486810
   1.3124511  50.4397387  27.7850723   0.6534788  49.8063940  26.5785837
  78.6213661  25.2822660  62.2939506  78.2164264  25.3814624  61.4323148
  78.9000488  24.3670164  62.3236856  48.4229589  63.5612916  64.2690715
  48.8525486  64.3833684  64.5054492  47.5190282  63.8102172  64.0762594
  23.6156058  18.4980488  29.4685841  23.6903691  19.4093525  29.7517228
  23.3746362  18.5535455  28.5438752   4.7284147  79.5954346  30.2506471
   4.3089411  78.7886741  29.9516344   4.9323699  79.4322546  31.1715198
  12.4683082  20.7824707  54.0316153  12.7434516  20.4454803  54.8842382
  12.2796106  21.7075515  54.1892481  73.5024756  11.1068285  20.3458595
  74.2991418  10.5765378  20.3272605  73.1132036  10.9847164  19.4799566
  58.0672718  64.6271514  60.7789013  57.4333573  64.6635483  61.4951834
  57.5315023  64.5844959  59.9868390  75.4456180  29.6321559  30.8813500
  75.4295939  28.9821529  31.5838242  75.7928282  29.1590500  30.1251411
  31.5161943  22.6429248  62.5944185  31.5759516  22.9914975  63.4838867
  32.1897984  23.1161237  62.1059752  30.7002664  27.1693802  13.6078215
  31.0923862  27.9814005  13.9289081  30.1749301  27.4386668  12.8543377
  69.8207274  72.8941125  48.3379841  69.0282098  72.4298370  48.0685472
  69.5963231  73.8206852  48.2523298  13.0080554  50.7805652  68.7895775
  13.3337352  51.5267057  69.2930079  13.7977645  50.3199262  68.5060215
  37.9770780   8.9760882  27.4033594  37.6727152   8.7132382  28.2719827
  37.3923588   8.5215127  26.7969799  16.6195822   8.3866096  18.3954585
  16.7797852   7.7330309  19.0761948  17.4402237   8.8756180  18.3350468
  27.2830653  27.2732949  33.6637902  27.9248095  27.9616451  33.8386416
  27.2567940  26.7596674  34.4710875  13.5081697  21.2038970  30.1028299
  12.9778910  21.9997025  30.1444340  13.0594969  20.6502485  29.4637704
  77.0577422  76.1806995  69.1080856  77.4295095  76.4557389  68.2700109
  77.4815944  76.7448977  69.7548199   3.3328333  41.1953020  24.4205618
   3.9063555  40.4379892  24.5379281   3.7085590  41.6674137  23.6774755
  80.2775788  44.1405296  42.0203972  79.3304866  44.0847778  41.8933535
  80.5817348  43.2353163  41.9547796  84.5082880  28.5872363  61.8889365
  83.5883451  28.5698854  61.6250625  84.5340848  28.0813180  62.7011022
   3.4441784  26.3365293  14.3764150   2.8380913  25.6907201  14.0133393
   3.6848670  26.8852901  13.6299813  69.9560434  59.1984224  13.2331669
  69.3343836  59.0636253  13.9484298  70.6769639  59.6863699  13.6311769
  49.2765785  66.0848211  60.8610389  49.1186643  65.6907104  60.0031516
  48.5573185  66.7059802  60.9753153  81.3136533  77.4788830  29.2681551
  80.7580522  77.9270182  29.9058962  81.3575700  78.0799896  28.5245323
  49.3163100  75.5325407  10.4059446  48.4094528  75.8066619  10.2691972
  49.7819177  76.3418055  10.6169713  17.6038835  56.9612927  16.2591910
  17.2171638  56.0954971  16.1285043  17.5181863  57.3926968  15.4090273
  74.7196716   7.9215926  42.6118469  75.4170185   7.2994488  42.4047804
  74.7217411   7.9743165  43.5675907  62.9979608  70.2930457  59.2929649
  63.2143966  70.6275005  58.4226036  63.7529549  70.5255694  59.8334694
  17.2691453  49.8994064  32.7251339  16.3678837  50.1502371  32.9277205
  17.7805233  50.6922340  32.8868389  49.5306730   5.9469503  45.8205605
  50.2408314   6.2669981  46.3768673  49.5627737   6.5072334  45.0451374
  56.5441323  67.4602245  61.1406597  57.4828864  67.6468371  61.1285290
  56.3263917  67.2677373  60.2286455  85.6515885  44.2807770  39.1687536
  86.4154867  43.7369871  38.9764547  85.0603120  43.7017059  39.6496868
  78.0037397  13.6708415  33.4008479  78.4807151  14.0887356  34.1178489
  77.7611369  14.3931508  32.8215003  29.4144750  24.0663600  41.3703060
  30.1711869  23.5268307  41.5994978  29.3975210  24.0609622  40.4132748
  29.7328234  47.1678877   9.0114564  30.4220724  47.7159834   9.3866289
  29.3368602  47.7129602   8.3315021   1.7393558  29.1143680  19.8242414
   2.0944862  28.2260656  19.8563540   2.4052377  29.6218944  19.3602908
  63.1191251  64.8655898  29.0327096  63.6831108  64.0983517  28.9352560
  63.6499676  65.5952043  28.7131763   0.6185707  14.0821195  47.4288130
   0.9535436  14.7820449  46.8683386   1.0284919  13.2865405  47.0893240
  11.9149348  64.6228010  41.7052174  11.8735072  64.8734683  40.7823515
  12.7486560  64.9784989  42.0128298  35.9848547   3.8249764  39.3947268
  35.9009409   4.3004555  38.5682225  35.0854826   3.6029616  39.6357036
  12.1918201  16.9747961  16.1170030  12.1510613  17.0830286  17.0671904
  12.2498727  16.0283792  15.9860170  30.7291913  11.1508751  24.9359035
  31.3854647  10.5243468  24.6309447  31.1149216  12.0082927  24.7562385
  55.9763384  22.3055172  17.0023549  55.9571552  22.5444961  16.0756660
  56.3993263  23.0486035  17.4326265  30.8655071  20.8503556  36.4979553
  30.7418275  20.7543635  37.4422646  31.3844919  20.0867033  36.2455201
   9.6050090  23.9849591  15.9581518   9.1947484  23.1685829  16.2435436
  10.3832233  24.0673947  16.5093493  26.0964296  75.3427542  34.9883151
  26.6248319  74.5470173  35.0501680  26.5895459  75.9968138  35.4835629
   1.5524296  16.2313485  27.3495841   1.0222895  16.8566847  26.8554807
   1.3030522  15.3762913  26.9989848  37.1519423   0.5996582  51.8904161
  36.4350772   0.8821574  52.4583340  37.2047091   1.2771797  51.2163162
  73.3964723   2.3406006   4.0319040  72.5302678   1.9734980   4.2084149
  73.9257770   2.0783307   4.7850874  10.4560039  51.1259837  36.1371303
  10.0372741  51.9256992  35.8187675  10.3371331  50.4945988  35.4275846
  65.6983901  53.4846018  58.2521877  66.2330270  53.2338308  57.4988541
  65.6674982  54.4406317  58.2163474  22.1001720  15.5707729  20.8898139
  21.8065715  14.8634470  21.4640284  22.5299525  16.1929369  21.4766979
   1.1174628  69.7358782  53.1508541   0.5617258  69.6090574  52.3818922
   1.9963643  69.5020658  52.8523684  47.0039144  69.9756380   3.4230545
  47.4049738  69.9451013   4.2916468  46.0626963  70.0050636   3.5947350
  43.3616257   5.7378340   3.4490618  42.4451780   5.6651169   3.7156445
  43.7007427   4.8448831   3.5112849  25.6734776   7.0820791  43.0038929
  24.7548723   6.9847417  42.7530479  26.1634135   6.8346083  42.2197056
  53.7048868  79.7199957  15.4333854  54.4935405  79.8820223  15.9510767
  52.9964084  79.6981562  16.0766685  18.6204827  14.4115674  35.4521585
  18.2807648  14.1303074  34.6026182  18.1309271  15.2090120  35.6537747
  14.7259152  10.8900630  35.2684736  13.9453530  11.2764192  34.8713779
  15.4072106  10.9896815  34.6035337  16.0298049  25.6951833  15.3415370
  16.8882489  25.2896261  15.4633057  15.4100108  24.9688864  15.4092193
  15.5399537   4.4820359  17.5440919  15.5154526   4.3762344  16.5930724
  16.4480937   4.2958033  17.7824831  15.0669181   7.5475276  15.9549010
  15.5594909   7.3485130  16.7511404  15.5624163   8.2514930  15.5363953
  29.4640851   6.5789098  22.6183772  30.1530790   6.0370249  23.0029297
  29.3771148   7.3183364  23.2199717  84.2808441  64.6669919  22.6106715
  84.8334721  64.6943111  21.8295908  83.9510301  65.5609125  22.7021050
  46.9975805   2.5947973  24.4346452  46.6933870   2.1165651  25.2060056
  47.7236605   2.0696187  24.0981603  24.5827699  16.1350238  30.7685852
  25.1759124  16.3296890  31.4942026  24.3166661  16.9936955  30.4397964
  15.7615757  23.1682944  56.3731337  15.8260059  23.6773825  57.1811581
  14.8299062  23.1835747  56.1540651  52.9034606  58.9799685  47.3163176
  53.6214271  59.6075649  47.2333765  52.5359237  59.1497607  48.1836843
  67.5014487  59.9319977  29.2132568  67.1641013  60.2967328  28.3950901
  68.3455733  60.3655333  29.3386865  53.9811754   9.8621100  47.7686357
  54.4542074  10.3498685  48.4428453  53.3051491   9.3839455  48.2488203
  40.7194281   3.1852132  52.7632618  41.4723539   3.6257073  53.1573439
  40.0682735   3.8778269  52.6514053  74.3504241  72.0148594  21.4545417
  73.4785977  72.0471091  21.8483853  74.8613289  71.4648533  22.0484281
  43.0718756  30.8816242   0.5600161  42.7770805  31.4760590   1.2499277
  43.9690924  31.1578345   0.3730999   9.9736592   3.1461219  69.0029236
   9.3351528   3.7359361  68.6020988  10.1866028   3.5572700  69.8406852
  59.5181775  52.4250359   4.1239998  59.2628506  51.5661568   4.4607028
  58.8379289  53.0187649   4.4417718  17.0211208   7.8853720  27.1962047
  16.8075323   7.2811675  26.4851856  17.5507522   7.3658407  27.8010273
   3.5846412   3.8967681  47.7553034   3.9471635   4.7825107  47.7717209
   2.9176793   3.9236271  47.0692492  76.5308976  38.0210853  18.0716133
  77.1531147  38.2052064  17.3679256  76.1587667  37.1687055  17.8453386
   8.6172926  62.3986959  21.0464478   8.5224098  62.2158861  21.9812250
   7.7490866  62.6924944  20.7705212  36.6789606  66.8561334  40.8757353
  36.3416532  66.2466652  40.2192307  35.9556511  66.9681532  41.4925909
  12.8231713  64.9412925  38.8878393  13.6730144  64.5048279  38.8286853
  13.0047366  65.8517022  38.6545587  46.0615471  69.5770175  50.0288916
  45.8310917  70.2034504  49.3428135  45.3840426  69.6916384  50.6952858
  62.1190566  79.4206301  26.6052628  62.2962716  80.2711550  26.2034750
  61.8522591  78.8618444  25.8753252  16.2028348  21.1036921  21.2593102
  17.0772576  21.0984778  20.8699632  15.9576583  22.0285988  21.2851262
  85.1062326  36.3008189  65.4804087  85.5896746  36.8329239  66.1123753
  85.2407744  35.3995919  65.7735300  34.7530508  18.6417663   4.3497729
  35.4612541  18.0079103   4.4633773  34.5207262  18.9035606   5.2406836
  82.7968585  41.8505764  10.3499115  82.5519743  40.9622478  10.0907946
  83.2903480  41.7357349  11.1620140  23.9558291  13.5780203  35.3598690
  24.2873907  14.4193053  35.0459599  24.4494557  13.4105170  36.1626816
  69.2854756  48.7831688  10.3757894  68.8206369  49.2980289   9.7161853
  68.6426121  48.6498499  11.0723412  35.9726167  13.0983710   1.7395405
  35.0572109  13.0454254   1.4648367  36.4567518  12.6476085   1.0476892
  52.6271200  11.4541042  21.6393352  52.6890326  10.5082452  21.5061069
  51.8309736  11.7099762  21.1735940   7.3731798   0.2614250  46.6317940
   6.5100574   0.6383848  46.4610577   7.2688276  -0.2118074  47.4572611
  67.5750583  11.8439615  29.2063904  66.6924065  11.8559837  28.8362360
  67.9349250  10.9978843  28.9401531  14.2478079  41.9121605  66.0091147
  14.0399117  42.1130736  65.0966212  14.0670676  42.7253495  66.4805886
  74.1612640  75.2362598  53.7546444  73.4644011  74.7182352  54.1574669
  73.7434605  76.0684187  53.5328722  31.4604878   4.3172881  12.7832913
  31.9599628   4.4855639  11.9842672  31.7756176   3.4663594  13.0879986
  30.4207683  35.2870274  24.1312742  30.9552097  35.9016109  24.6341562
  29.5881414  35.2526999  24.6022153  65.5690384  20.2595592  57.2757816
  66.3672638  20.0457954  56.7926979  65.7173300  21.1468768  57.6027584
  21.0074377  24.7259688  35.9588337  20.1308393  24.5471168  35.6185079
  21.3317847  25.4463911  35.4184389  10.1484942   4.9926186  21.7670250
  11.0691714   4.8223025  21.9659662   9.7311002   5.0830251  22.6236701
  48.6700610  79.7474307  55.9433031  49.4772873  79.6403693  56.4464474
  48.2605711  78.8824149  55.9605551  40.2366638  16.1949825  17.2109580
  41.0499811  16.6943276  17.2844493  39.6349597  16.7830706  16.7545164
  70.2078247   1.1313500  23.6291075  71.1321259   1.3715965  23.5644364
  70.1126814   0.3841381  23.0384707  55.8132983  69.1571306  63.2086036
  56.1416579  70.0551055  63.2539102  56.2361312  68.7862848  62.4340591
  79.2655757  77.0190725  56.5624571  79.5640591  76.1184896  56.6893053
  80.0534800  77.5507129  56.6755819  21.0655999   6.0727769  44.7360563
  21.8851566   5.8238876  44.3087244  21.1831236   5.8123416  45.6496191
  12.4565005  18.6589563  41.6338968  12.4281633  18.2295954  42.4889278
  13.3855367  18.6735272  41.4038754  42.1947956  24.4034719  23.6138797
  42.1719790  24.4409013  22.6576853  42.8803825  23.7656426  23.8123155
  72.0503455  32.9933691  36.3022757  71.1707669  32.6271081  36.2104845
  71.9049424  33.9059663  36.5517926  10.6999195  33.3928418  46.1410236
  10.3772175  32.5636673  46.4939594  11.5021992  33.1585145  45.6744719
  26.1241388  22.8151798  25.8902335  25.7902479  21.9916701  26.2460136
  26.2035084  23.3902097  26.6513348  32.5364161   7.3298180  39.3170071
  32.2774029   7.7956879  38.5219526  32.1966028   7.8683811  40.0316477
  20.9153557  17.8320909  36.9621205  20.3533387  17.2162604  36.4918828
  21.8061662  17.5523019  36.7513990  71.1733025  27.8710842  36.4796257
  71.9079512  27.3403573  36.7876077  71.1468059  27.7182555  35.5350757
   3.5426685  62.3059172  52.7086449   3.7146899  62.8471739  51.9381380
   4.3839190  62.2620386  53.1631804  19.5363426  14.6125054  25.0862265
  19.5494568  13.6841607  25.3191090  18.8355553  14.9839842  25.6220722
  82.0697653   5.9533370  54.3317413  82.1035162   6.9009179  54.2006588
  81.9623348   5.8459574  55.2768135  10.5927253   1.5945105  35.8907962
   9.9037081   1.7926913  35.2565956  11.1773396   0.9932981  35.4292750
  24.0348148  16.6433907  22.6456738  24.7391224  16.1272454  22.2535324
  23.7133503  16.1014676  23.3662391  50.4273081   5.1084816   7.6001877
  50.3118038   5.5473685   6.7574131  49.9809408   4.2681891   7.4958014
  23.4957242  44.3867111  29.1964722  23.2773781  43.7609673  29.8871231
  24.3541741  44.7288656  29.4459176  26.2057948  37.6616502  41.4157438
  26.4460397  37.3848224  42.2999859  25.2736378  37.4558473  41.3453054
  21.2708187  28.8527083  24.7029090  20.4200578  29.2820406  24.7929573
  21.6067886  29.1609883  23.8612914  10.7052300  60.0617189  43.1546116
  10.6912419  59.6388549  42.2959948  10.3317616  59.4104738  43.7484407
  16.5420341  12.0276368  58.4632063  15.8917391  12.3060215  59.1080713
  17.3344815  11.8678665  58.9757776  47.1897417  33.3337522  42.9421377
  46.4919168  32.7560210  42.6331091  47.0986539  34.1247702  42.4108887
  29.6883202  52.1990490  29.4833612  30.3380346  51.4980221  29.4317651
  28.8701248  51.7518520  29.6997094  13.8423193  18.3068216  26.6037083
  14.0992594  19.2059338  26.3992310  13.2180893  18.3940542  27.3240972
  27.8648877  17.6653528   2.8219825  26.9552374  17.4293339   3.0038056
  27.8412628  18.6099601   2.6690453  84.1359702  32.6752472  30.5832052
  84.1030744  33.2009697  31.3824344  83.2514492  32.3206282  30.4932117
  52.1874237  51.4873886   8.3139569  52.8701258  51.6446686   7.6617151
  52.4098730  52.0712900   9.0390849  17.8290522  21.5964627  16.8590176
  17.1786559  22.2870970  16.7315686  17.3214447  20.8413124  17.1561897
  33.5608051  69.7276098  34.3823767  33.4237382  69.9166984  33.4541035
  33.6336515  68.7741095  34.4243693  34.4031549   6.0054779   6.5338254
  33.5396552   5.6749564   6.2861252  34.8076200   5.2827644   7.0137465
  23.1296110  36.3050294  17.3821282  22.8803325  35.4220343  17.6549101
  22.8403139  36.8681359  18.1000769  51.3680315  18.8851607  19.7548461
  52.2854710  19.0538740  19.5402074  50.9475613  18.7354660  18.9080715
  13.6422312  24.3421578  58.9958811  12.9021287  24.0378118  58.4706640
  13.6343503  25.2936840  58.8921165  36.3296080  16.6782486  28.1748533
  36.6567636  16.6175270  29.0723586  36.7269111  17.4773264  27.8286505
   6.2245893  23.6948848  33.8498139   6.1734945  24.1049361  32.9864025
   5.8544040  24.3455935  34.4462824  74.1014558  52.2485685  51.4770031
  73.4823579  52.9031706  51.1538315  73.5516316  51.5802908  51.8860674
  37.0569634   8.4248853  63.6036205  36.2157822   8.7151688  63.9562941
  36.9115281   7.5110036  63.3588743  35.8391953   5.2805310  31.3873315
  36.3072157   5.1524395  32.2124267  36.4518428   4.9813008  30.7155037
  40.0751591   7.4897093  29.6322703  39.5002484   7.3593777  28.8781333
  40.6888866   8.1683278  29.3511224  41.9718695   8.0879903  24.5219326
  42.7809429   7.8034556  24.0968776  42.1961784   8.9254242  24.9276710
  37.6407671  51.6220140  21.9882894  37.7019906  50.8215475  22.5095749
  38.1697869  51.4426756  21.2109780  11.2538481   4.5174101  29.7013974
  10.4975402   4.9995437  29.3670678  12.0109510   4.9847057  29.3483233
  19.0409374  15.6363273  38.9996004  18.4758103  16.1316872  38.4067416
  18.7426746  15.8815086  39.8754764  25.0847554  20.9264421  27.7842498
  24.3952084  20.3803492  27.4067068  24.6892571  21.3017416  28.5709906
  33.5032868  35.3199339  29.4784379  32.6588321  35.4972672  29.0640950
  33.7944412  36.1720419  29.8030519  13.1930566  37.1310997  22.9747224
  13.0823886  37.5495696  23.8284588  14.1408193  37.0999694  22.8443003
  45.9541941   5.7902628  20.3316617  46.6008759   5.1243198  20.5652356
  45.1461411   5.4976958  20.7531905  19.3407941  51.4074326   9.5727885
  19.7848928  51.6570997  10.3831434  18.5391605  51.9304943   9.5680422
  30.1342082  10.9648621  49.0077496  29.4586015  11.5924931  49.2643929
  30.4728746  10.6253839  49.8361731  57.3542268  74.3471528  29.6914124
  57.7714503  73.7691403  30.3302073  57.9924736  75.0459284  29.5479369
  32.5909162  18.2186580   8.7742460  32.2157741  17.6976097   8.0643106
  32.4108696  17.7105629   9.5652288  73.8682240  65.0635147  39.0637612
  74.1371220  64.7817707  39.9381423  73.0297428  65.5042315  39.2014289
  25.9579754  48.6762953   8.0683178  25.8363748  48.2053709   7.2438931
  25.5604434  48.1091309   8.7290144  61.8129778  23.1640363  38.9562535
  61.7228365  23.4055376  38.0344152  62.3366213  22.3628640  38.9438581
   0.0617450  50.8042145  32.6373482   0.8946434  51.1696768  32.9355931
  -0.0281015  51.1164379  31.7369723  71.5200472  17.3258364  17.1182120
  70.8189011  17.7969408  17.5684142  72.0473385  16.9501972  17.8232586
   5.4112977   8.4196818  61.3550901   5.7423079   8.8248312  62.1566629
   4.8782009   9.1007465  60.9449816  46.4072132  13.8986588  36.9717479
  47.2432995  13.8164663  37.4304795  46.1944199  14.8302841  37.0267439
  32.0008278  25.2360868  14.7760236  32.1033525  24.5946574  14.0729654
  31.4091086  25.8956861  14.4140446  22.7559755  72.1862960   4.7273770
  23.3098027  71.4575548   4.4472978  22.7666518  72.7933980   3.9874139
   7.0377290  34.6922994  24.3041992   7.2775209  33.8593912  24.7103953
   7.0615798  34.5157623  23.3637214  49.2039251  22.7307820  11.4636064
  49.4596481  23.5011148  11.9709778  49.3591452  22.9814410  10.5529428
  11.3956544  68.0844290  43.6573839  11.2583062  68.5730154  44.4689560
  10.5520794  67.6668257  43.4835386   4.6141854   0.3166344  35.4653382
   4.4670483  -0.4277048  36.0488987   5.2442777   0.8658157  35.9318304
  21.6741467  59.1923380  31.9698858  21.8315315  60.1320124  31.8778133
  21.1054492  59.1187048  32.7363014  35.9887528  29.5647526  21.1386895
  36.5691900  29.1712308  20.4871798  35.1291227  29.1869068  20.9529495
   8.7273383  15.0648284  23.0077434   8.1512910  15.4505587  22.3477340
   9.1755915  14.3544757  22.5487232   9.6528447  15.2032685  20.2263165
  10.2263606  15.9611630  20.1127100   9.9808556  14.5585847  19.5993996
  35.1101232  26.0049701  36.5767026  34.9628782  25.5287933  35.7595062
  36.0558462  25.9552026  36.7158437  78.1023908  69.9029277  69.7542054
  78.6409212  69.1116880  69.7417756  77.3207832  69.6685647  69.2538072
  46.1014557  26.9434834  15.5028057  45.9130287  26.8928123  16.4399064
  47.0396566  26.7654252  15.4371786   4.8158872  34.8173523   6.3152593
   5.5920368  34.2604423   6.3758916   4.8192692  35.1354408   5.4124635
  36.9899964   6.8816072  51.8583345  36.9671321   7.3787212  52.6760054
  36.6134882   7.4738288  51.2073755  74.3561792   3.3904144  55.4571104
  74.6289206   2.5408581  55.8036661  75.0975895   3.6818063  54.9264145
  38.2515475  64.9345798  13.1051016  37.4561927  65.4649634  13.1534445
  38.1854102  64.4796771  12.2655046  28.6619544  24.5579004  38.2737470
  28.3630228  23.9528823  37.5949073  29.3959975  25.0236487  37.8731346
  19.6165705  21.4151335  27.2989416  18.6610198  21.4405823  27.3490310
  19.9043620  22.1521711  27.8376269   3.3695039   9.9529880  38.1711340
   3.6039543  10.8327556  37.8757119   2.6018980  10.0838816  38.7278008
  35.4873395  18.2781529  42.0799255  35.4134488  19.0838122  42.5914764
  35.6585503  18.5764706  41.1866570  25.1830244  48.3950520  31.4712286
  25.4844809  49.2976618  31.3680005  25.9414482  47.8607893  31.2354612
   1.2155074  17.6572597  36.2642598   1.7218417  18.1337166  35.6063509
   0.3259868  17.9996336  36.1760879  45.9863138  23.1059980  42.6783991
  45.2205658  23.4838533  43.1109428  45.6805897  22.8874397  41.7980623
  13.6424348   2.4257354  62.4313447  13.8182304   1.5674667  62.8169683
  13.3667705   2.9683379  63.1701425  22.3602200  10.4466569  20.2025938
  22.7707791  11.0868335  20.7838392  21.7340803   9.9842638  20.7597065
  28.7011719   4.3256825  30.0564504  29.2691207   4.5944864  30.7785368
  28.7352729   3.3691621  30.0682020  58.2750150  67.3241205  48.6504745
  58.9644106  67.9314989  48.9189100  57.5239117  67.5582237  49.1956997
  25.3175068  36.3864207  31.6854262  25.4087353  37.2310519  31.2443995
  25.9011841  35.8003831  31.2036467  16.7406273  31.8229318  17.8199506
  16.9076204  31.7235661  18.7572193  17.1518457  31.0562444  17.4207985
  35.3026199  39.1724896   8.7780213  34.9612713  39.5711780   9.5784962
  35.2298927  38.2302213   8.9299130   1.6673470  30.0579977  39.4297385
   1.3790569  29.7144580  40.2753782   2.4065331  29.5014763  39.1845441
  51.3965807  66.3769717  29.3994212  52.0858452  66.8131239  29.9003363
  50.9715900  67.0827121  28.9120340  79.9554622  18.3911538  22.1813750
  80.8479208  18.4844899  22.5146008  79.7008401  17.5010800  22.4246192
  36.8020797  28.2721066  34.8320055  37.1490908  27.5939655  35.4116058
  35.9370399  27.9504800  34.5780516  18.6689091  34.6466541  16.6859055
  19.0687597  33.8345671  16.3746727  17.8425086  34.7057867  16.2065327
  45.2177238  21.2600279  13.5715640  44.8754692  22.0070052  14.0626001
  44.5383692  21.0664630  12.9256177  40.5032349  31.2342596  41.5241909
  40.7480097  31.0485840  40.6176376  40.6947994  32.1651459  41.6381454
   5.2596876  73.7388892  30.1813650   5.4630897  73.0391181  29.5607352
   5.3718421  74.5453942  29.6781731  80.4147104  71.4840550  19.4731402
  80.4383472  70.5678493  19.7492576  79.5576266  71.7987788  19.7605169
  52.9858780  11.7534781  50.8598471  53.8738060  12.0975375  50.7627201
  52.5034904  12.1233141  50.1204205  51.1823416  18.9150798  46.3874102
  51.6833735  19.0111005  45.5774879  51.8114185  18.5647714  47.0181084
  25.2519035  20.1097059  12.2253931  24.4571590  20.2744555  11.7179787
  25.4601574  20.9541082  12.6252019  39.3074203  10.0055993  39.3949604
  38.4835958  10.4560983  39.5809555  39.4698429   9.4724303  40.1731539
  22.8513765  40.4481220  41.0039759  23.2637691  41.0390043  40.3738785
  23.2647991  39.5999432  40.8430147  40.0511885  36.6604066  43.3302641
  39.2102671  36.7730570  43.7734270  40.5367851  36.0532999  43.8886976
  29.9972320  31.6657662  11.7959487  30.0957179  31.9506907  10.8874607
  30.8816791  31.4198256  12.0670485  22.1794415  13.2882452  68.1434298
  22.3618650  12.4097812  67.8098822  21.5438318  13.1505585  68.8457680
  20.7966781  27.6898408  30.7522845  21.0233665  28.3927631  31.3611722
  21.2128782  26.9104791  31.1205316   8.1620738  72.4550683  48.5176945
   7.7102182  71.7149753  48.9230633   7.9937217  73.1903726  49.1069460
   5.3621319  79.5948364   8.4104544   4.7041062  79.6848152   9.0997601
   6.0856655  79.1287692   8.8293934  17.7022660  32.0981097  42.9723835
  16.8730211  32.3821616  42.5878096  17.4478853  31.5016150  43.6764526
  33.9235568   5.7571477  26.5113854  33.1431675   5.9092301  27.0443892
  33.6840010   6.0733980  25.6402779  75.0346923  63.7453269  63.8713661
  74.9665380  63.8992475  64.8136482  74.1428829  63.5293745  63.5988364
  22.1312308   9.8501354  42.0272732  22.2035313   9.8472160  42.9817343
  22.7096891   9.1432273  41.7410898  27.2527809  52.3227819   2.5435713
  27.3557122  51.7439612   1.7881897  27.9161794  53.0012139   2.4176148
  37.5181746  60.1469946  18.0295587  36.6247821  60.1002073  18.3699870
  37.5450945  59.4876862  17.3361480  23.9139628  53.3563662  31.8234897
  24.7002411  53.7899780  32.1551204  24.2450356  52.6731682  31.2405133
  49.4707346  13.6387384  45.7521486  49.7082472  13.1732821  44.9501705
  50.3018999  13.9708233  46.0914421  75.3980902  78.6880716  33.3636808
  75.4997149  78.5436032  34.3044424  76.0593131  79.3462492  33.1496286
  17.9243743  28.2580161  12.1796525  18.1722307  27.8635240  13.0158198
  17.5249910  29.0944862  12.4184918  66.8496347  69.4845389  69.0137616
  66.3768125  69.2685793  69.8175234  66.8124056  68.6833285  68.4913544
  57.6735282  70.6031869  68.7772232  58.0493999  70.7970689  67.9185256
  57.9129673  69.6913909  68.9431468  25.2391100  29.1614056  33.8534951
  25.9159613  28.4882259  33.9237332  24.4315743  28.7169528  34.1115284
  25.9885883  32.0126081  48.5267687  26.6824937  32.0357466  49.1857004
  26.4395237  31.7922235  47.7117109  78.2872990  54.7820300  28.3219862
  78.9392784  54.1637534  28.6519647  77.4761203  54.5342059  28.7656093
  58.0820036  38.1015611  13.5722172  58.1046724  38.1730151  12.6179576
  58.6443758  38.8127637  13.8790798  33.2441497   0.1441849   3.3320856
  32.4711871  -0.2205380   2.9011160  33.4748936   0.9082013   2.8036270
  83.6851688  42.2759247  60.9697866  84.6184631  42.2684002  60.7573318
  83.6178400  41.7573071  61.7714930  40.6187582  20.5310392   4.0784639
  40.4064703  20.4060888   3.1535023  41.2541103  21.2469506   4.0837947
  82.5578142  47.6769160  42.0056578  82.6378036  46.9355260  42.6058027
  83.2951236  48.2454901  42.2277638  10.6414435  61.1459989   6.3916796
   9.8706529  61.6641671   6.1601287  11.2397096  61.2637681   5.6538171
  14.9720263  18.3526838  40.8099747  15.7007492  18.9170718  40.5517864
  15.0589955  17.5792694  40.2527523  75.6367997  65.6273836  37.2814465
  76.0631815  66.4359373  37.5654721  75.0683764  65.3866178  38.0129910
  62.3611379  59.0095602  69.9220422  63.1915975  58.9765082  69.4471975
  61.6998721  59.1277300  69.2401369  28.5921335  14.4391131  30.2987695
  28.7822700  15.0095153  29.5539737  29.3757844  14.4905257  30.8460164
  31.4458656  11.1674666  27.5738859  31.5001774  10.9799016  26.6368151
  30.6235027  11.6467762  27.6749396  26.3600481  27.8614842  69.8509554
  26.1354085  28.6866318  69.4209547  25.6280822  27.6936792  70.4445038
   4.8427889   7.6766956  13.5578704   5.3997391   8.1423366  14.1817427
   5.4561538   7.2761953  12.9417419  18.5879457  23.8441014  35.2348185
  18.4188414  23.5647440  36.1345935  17.7633774  23.6847091  34.7755647
   6.0763574  36.6381264  34.6744132   6.7248088  36.0983586  35.1265121
   5.8301461  36.1233711  33.9058805  40.6004095  29.2912436  47.2538376
  39.8274112  29.8539472  47.2993660  40.7320070  29.1403294  46.3178110
   4.7624046  43.7653065  35.1991987   4.3317959  42.9229450  35.0534725
   5.5861413  43.6999607  34.7160649  59.7386652  46.7260027  23.7018299
  60.4875022  46.2280560  24.0297413  59.0567714  46.0689402  23.5621119
  27.2871733  29.5027065  38.5867095  27.2235727  30.1562548  37.8902459
  27.2728753  30.0132418  39.3962669  26.6673350  26.6191578  38.9006329
  27.0697641  27.4860764  38.9529133  27.3971558  26.0268307  38.7196755
  33.1941867  13.4623301  63.6173439  33.6408544  14.2162812  63.2322741
  33.4257126  13.4951496  64.5455408  23.0235934  52.0709753  23.7150812
  23.6646223  51.7675257  23.0722475  23.3095193  52.9566622  23.9387631
  72.1146196  12.1215880  29.7439671  71.8689436  13.0452991  29.6926498
  72.8065449  12.0211041  29.0902281  32.8005528  37.2686100  20.5313587
  33.5415244  36.6805482  20.3851438  33.1980705  38.0821991  20.8416557
  23.4061384   4.6026146  36.8188596  23.6711884   4.0777621  36.0635376
  23.3036351   3.9675707  37.5276923  24.4168115   1.4946957   7.1088058
  24.8541164   0.8987550   6.5006512  23.5744262   1.0773803   7.2889847
  33.1767413  80.6731568  49.0519667  33.2896564  80.3140514  49.9320364
  34.0674922  80.7591099  48.7122536  28.9486194  23.2859898  51.9227886
  29.4297647  23.8145757  51.2861347  28.0818009  23.6899972  51.9632292
  25.0631094  19.5269084  20.4840994  24.4261765  19.9616385  21.0511613
  25.1587725  18.6512160  20.8585906  52.8862167  34.2072331  66.7625651
  52.7769614  34.4352780  67.6857611  53.0797387  35.0396799  66.3315049
  30.9963751  17.9220772  49.6493101  31.3792372  17.1800590  50.1173449
  30.4765201  18.3796144  50.3100967  26.6003871  55.7361364   7.0321536
  25.9428120  56.1165047   6.4497900  26.1147118  55.1027775   7.5605530
  29.5175791  18.2847679  40.3961802  30.0566554  17.7784264  41.0038376
  28.6532164  17.8765082  40.4455185  38.2185555  16.3237834  34.5757961
  38.0297685  15.4753387  34.9767113  37.4833322  16.4771795  33.9823747
  22.2919250   9.8414844  23.4020686  22.5835443  10.6472504  23.8286018
  22.2280669   9.2037338  24.1130018  74.7936344  35.0209522  17.0177770
  74.9235964  34.0901113  16.8364573  74.2622852  35.3355289  16.2863779
  13.0892799  78.8132199  50.8065653  12.5967500  79.6338225  50.7904959
  12.5288961  78.2069824  51.2910032  80.3202575   5.9017241  20.4045892
  79.8020047   6.6337097  20.7390165  81.1795387   6.0107654  20.8119917
  23.9843678  18.8986754  14.6166301  24.6296191  18.9288449  15.3230107
  24.4857478  19.0965784  13.8256288  83.8697458  50.7006465  54.7905144
  83.6885334  50.3681313  53.9114091  83.0362058  50.6190811  55.2539751
  39.8984218  18.5694718  32.5954723  40.1236439  18.4401131  33.5167599
  40.7087421  18.8809907  32.1922708  46.9388008   6.9885314  64.0112829
  47.1968842   6.5930945  64.8439026  46.1526299   7.4933654  64.2193794
  75.7436830  17.4494720  20.1748896  75.5826133  16.7906153  20.8503127
  74.8721999  17.7640486  19.9344921  67.1929029  22.7876643  68.5697670
  67.4908987  23.6817674  68.7371515  67.5546411  22.5715856  67.7102977
  45.5837393   3.0383527  22.2221804  46.3149500   2.7595282  21.6709781
  45.8902788   2.8945574  23.1174946  38.5853648  21.4423823  35.2974319
  38.6039019  20.8689046  36.0635996  39.4362020  21.3107824  34.8791146
   7.3866606   4.8622191  14.2802370   7.7936959   5.7031280  14.4886291
   6.5492564   4.8801050  14.7435582  36.1426425   2.1073210  27.5039434
  35.2017260   2.2828256  27.4935961  36.5427327   2.9292673  27.2201061
  62.7810076  37.5604614   3.9274195  63.6734631  37.5178908   3.5839918
  62.2226479  37.4661507   3.1556872  40.9252214  21.3173437  34.1357493
  41.3835812  21.9076562  34.7338033  41.6238737  20.8418155  33.6863160
   7.3232001  35.1180291  51.1103344   6.9212222  34.2580938  51.2334347
   6.6296220  35.7402253  51.3295412   6.6616577  24.9858499  10.2953649
   6.3489366  24.0841842  10.2216327   6.0364467  25.4988265   9.7833109
  44.7303867   2.3755655  16.5939212  44.4512415   3.0912340  16.0228431
  44.6190977   1.5874840  16.0621548  25.2263689  20.9038424  56.4886665
  25.4660320  21.5814543  55.8564997  25.4373360  20.0803733  56.0486412
   7.7069408  10.2801847  29.6200800   7.5047779   9.5286137  30.1773071
   7.3410213  11.0306859  30.0881433  26.9432759  15.2101731  32.9808211
  26.4400077  14.4490826  32.6915193  26.3703012  15.6520963  33.6074257
   6.3535070  31.7419100  58.8022137   6.7721123  31.3346505  59.5605946
   6.7907053  32.5887847  58.7133694  60.1520061  24.3486214  57.3825312
  60.5967712  23.5018039  57.3462296  59.5154428  24.3156290  56.6684341
  66.9370764  18.4216475  32.1181369  67.8341991  18.2198238  31.8523002
  66.7713481  19.2934632  31.7593837  53.9945364   6.2135082  13.1078839
  53.7685347   5.2873075  13.0224133  53.8389397   6.4138317  14.0308630
  39.7584081  16.5711641  46.0889196  40.0807619  17.0867205  46.8281889
  40.2458096  15.7489145  46.1396980  39.2267966   7.1953630  43.9348030
  39.1468000   6.2481129  44.0468264  38.5665512   7.5626528  44.5225143
  54.8500467  65.9727596  54.6651325  54.1963006  65.7652353  55.3328010
  54.4611812  65.6665658  53.8458285  29.4695520  30.4166579  20.7587337
  30.2082634  29.8527241  20.5295634  28.9459491  30.4624104  19.9587476
  84.6782303  29.4588280  41.9527006  85.0245285  28.6774969  42.3837805
  84.3101883  29.1354370  41.1303902  85.3893937  38.9632297  36.0660768
  85.2522647  39.5081210  35.2911472  84.7397914  39.2750812  36.6961551
  76.1139345  31.3133311   4.3737307  76.8233693  30.7115674   4.1483086
  75.5391496  30.8029914   4.9441776  44.0605736  26.8977594  10.8727860
  44.0296793  27.7978635  10.5486143  44.9519491  26.6052175  10.6827748
  79.0039277  23.3710289  33.5693860  79.4102061  22.9819059  32.7949500
  78.1858480  23.7487698  33.2464480  81.0307616  17.8598547  30.9792995
  81.5190336  17.6958907  30.1724911  80.7480377  18.7714934  30.9070873
  41.5128389  80.3312634  21.5324116  41.9943479  80.8181072  20.8635592
  40.7293645  80.0161166  21.0817647  28.2801008  20.0443649  15.1547742
  27.5810695  20.3243184  14.5638299  28.0390263  20.4152822  16.0036170
  19.0582049   2.1323048  23.3624554  19.6137428   1.8875344  22.6223898
  19.5667744   2.7903304  23.8363671  27.6249454  80.2231125  38.4099054
  26.7188642  80.1982944  38.1022763  27.5945708  79.8192469  39.2772007
  75.5864638  24.0688157  41.0867453  74.9058467  24.2220783  41.7421103
  75.9208536  23.1949258  41.2885666  46.6683912  38.5731196  37.5152230
  46.3678980  38.1988192  38.3433747  47.6216412  38.6017990  37.5972342
  36.7228913  29.0458369  40.9692144  36.1581659  28.2744789  41.0174513
  36.1271954  29.7863221  41.0834980  28.2199097  69.1926336  31.1896443
  27.7606630  68.3571005  31.2745738  27.5682378  69.8499918  31.4334321
  23.8226342  24.5036030  14.6435499  23.4343505  23.8210487  15.1908946
  24.0278745  24.0619349  13.8195121  80.5666256  28.3375096  45.0570250
  79.9335956  28.4564853  44.3489647  80.2408582  28.8928127  45.7653666
  29.8312283  45.6097841  31.6981578  29.4256616  44.8260212  31.3274002
  30.5535007  45.2766466  32.2306705  27.9511213  26.3501835  24.8084259
  28.6196136  26.8340302  24.3234110  28.3011270  26.2833285  25.6968284
  17.2955847  24.2975855  27.9114604  17.0256996  23.4764481  27.5002098
  16.5291119  24.8660779  27.8368330  32.4128580  42.8854942  22.1168590
  33.1141996  43.0894136  21.4981794  32.8487587  42.4122810  22.8255868
  81.6672611  40.7692432  34.3395090  81.2878805  40.4068899  33.5388827
  81.4210826  40.1471472  35.0240684  41.1397076  29.0174699  29.7725773
  40.9482384  29.9126768  30.0521779  40.2917051  28.6638498  29.5041132
  25.5199480  77.2965384  25.3559542  25.9845543  76.4597464  25.3437686
  24.5973539  77.0596457  25.2614284  36.7019343  33.5009193  21.7259860
  36.9226766  32.6019597  21.4823246  35.9544897  33.4121299  22.3173189
  38.4825897  28.1366158  24.5974088  38.8970017  27.2958994  24.7915459
  39.0308809  28.5217261  23.9138150  37.4860358  23.4371066  33.7717915
  37.5615740  22.8570080  33.0141544  37.7766299  22.9038405  34.5116663
  32.1550536  27.9481244  29.3995214  31.5028644  27.8279018  30.0897574
  31.8193960  27.4392033  28.6615753  12.6293695  41.0005760  48.3131647
  11.6869533  40.8497810  48.2400751  13.0022860  40.5606318  47.5492191
  13.5703635  55.1638460  25.0372410  13.4429646  54.4976854  24.3617940
  12.7627575  55.1419449  25.5505872  30.2831101  44.0815020  38.7748718
  30.8248448  44.7632074  39.1724110  30.1524425  43.4411812  39.4742608
  30.6087494   3.3965871   8.6646330  30.0810361   3.3549199   9.4621390
  30.5741405   2.5090247   8.3078879   5.6513172  40.5522776  39.9619842
   5.6612617  40.5491257  39.0048409   5.5492711  39.6316791  40.2034807
  37.2406602  22.5494862  19.7955179  37.2780609  21.6990542  20.2332354
  37.1743274  22.3369884  18.8645637  72.2302106  70.4744977  13.1166339
  72.9236844  69.9557371  12.7089429  72.2633997  71.3169635  12.6634419
  29.9674344  15.3771758  55.1884556  30.8148670  15.3727210  55.6335068
  30.0613546  16.0366809  54.5010948  23.2693386  40.9537363  43.7873888
  23.1963539  40.6918240  42.8696203  23.7005734  40.2133846  44.2141819
  46.3665676  20.4736376  48.1687880  46.4150763  19.9997723  47.3385286
  47.0040464  21.1818743  48.0779409  40.4932690  58.0591965  30.1867414
  40.6026363  57.4373388  29.4673204  39.6687770  57.8040075  30.6006527
  20.7859945  22.9460335  38.3401108  21.0143328  23.6420655  37.7239656
  20.8376169  22.1420932  37.8231549  21.1011839  23.6337233  46.0010386
  20.5739331  23.7136984  45.2061510  21.3921785  24.5266056  46.1862755
  28.5279894  42.8202963  24.4341159  29.4674516  42.9947138  24.3773818
  28.1177282  43.6768627  24.3148923  43.5229540  19.8953617  38.9728689
  43.4994698  19.7501099  38.0270457  42.6091862  19.8241317  39.2488885
  28.8340449  31.7321944  33.2687044  29.6481204  32.0298886  33.6747742
  28.9670110  31.8764234  32.3318219  19.9313831  44.7673321  34.9287868
  19.6309161  45.6524277  34.7224998  19.4050097  44.1986513  34.3668580
  28.2970834  40.6258345  35.6346703  29.2023730  40.6291533  35.9455848
  28.1219339  39.7103095  35.4170370  17.1820939  25.3794074  30.3792167
  17.0259643  24.9666619  29.5298076  17.9877746  24.9730062  30.6985092
  28.4949493  26.2655330  27.6176023  29.1879559  26.9248176  27.6539397
  28.9381862  25.4408956  27.8169656  29.8696494  37.4917841  44.2772579
  30.1134253  37.0781684  43.4491730  28.9166808  37.5706911  44.2341614
  31.6271210  26.6106963   9.2083877  31.8324947  25.7202578   8.9234799
  32.3851824  27.1292615   8.9388162  12.1096897  51.1687326   8.5768443
  12.7266657  51.7720032   8.1625503  12.5243115  50.9349823   9.4073147
  65.8210421  29.9098659  14.9878848  65.2684975  29.9451780  14.2070675
  65.2557850  29.5374608  15.6646645  23.6234808  23.5500526  57.0302200
  23.0587506  23.5357738  57.8029442  24.5114374  23.4825015  57.3812246
  29.6736026  42.3923159  33.4697723  29.6433353  42.8178167  34.3266654
  30.5610633  42.5576353  33.1514788  28.0811691  53.5334826  23.8085985
  28.7109184  52.8521919  23.5730314  28.1819105  54.1985750  23.1276155
  36.4994907  48.4942532  37.5699759  36.2859058  49.4217920  37.6714039
  36.6619730  48.1869698  38.4618330  43.7057543  59.7558260   5.8686388
  43.1766558  59.2231655   5.2748716  44.5276499  59.2729521   5.9555453
   5.7186049  53.7426519  46.9050694   6.6482937  53.5237122  46.9681263
   5.2733475  53.0320024  47.3665333  21.1695695  32.2812033  41.0860300
  20.3361535  32.3658681  40.6229115  21.8315101  32.3106098  40.3952360
  23.3327627   4.4652978  20.4282212  24.1496253   4.2496061  20.8781600
  23.5189295   4.3038231  19.5032895  81.2506083  72.5216807  36.9899917
  80.9354547  71.7151249  36.5820980  82.0581082  72.7283896  36.5194082
  15.9483859  63.1432564  34.6048284  16.4852044  63.3849353  35.3595781
  16.0723207  62.1983260  34.5155001  25.9751296  35.9562778  27.3820090
  25.8959651  35.7647252  26.4475203  25.0733185  35.9605217  27.7028704
  31.7808485  33.3079839  26.1441994  32.1250010  34.1484594  26.4465070
  30.8308816  33.3963680  26.2215662  41.9555950  14.0972686  18.8981307
  41.5617275  13.9783692  18.0338609  41.2133980  14.0905142  19.5025587
  36.4989066  12.9125750  41.7894793  36.6081643  12.0119309  41.4843035
  35.5589128  13.0778384  41.7164612  53.4998846  26.2371635  51.1830902
  52.6290464  26.1106086  51.5597296  53.4966040  25.7044721  50.3878164
  13.0069375  41.8214178  10.9656036  13.6188030  41.4520979  11.6023576
  13.0085349  42.7608967  11.1489236  59.4445555  59.6154947  17.6570821
  59.3806531  60.3971428  17.1082878  60.3851542  59.4772667  17.7684319
  19.8244235  80.5092307  35.5503416  18.9134977  80.4247351  35.8319640
  19.9138686  79.8781288  34.8362398  15.1473415   3.9818802  11.7276132
  15.0160384   4.9050605  11.9437826  14.3333006   3.5551590  11.9949687
  48.6253071  14.5927882  24.8969054  49.2128754  14.9994290  24.2600060
  47.7580738  14.9297094  24.6719193  33.3304644  17.2307634  40.3268766
  33.9311314  17.4234641  41.0468006  33.2033086  18.0724967  39.8892117
  34.0363383  26.6815495  15.6451559  34.1701150  27.2967744  14.9241590
  33.3932972  26.0564852  15.3104532   6.7317992  25.6303883  52.2583389
   7.5808114  26.0658169  52.1820974   6.1635578  26.2833858  52.6669073
  69.8086575  37.1780423  59.6993753  70.4153767  36.6005830  59.2360553
  68.9425364  36.9143037  59.3887147  33.9448643  30.3053784  35.5993795
  34.1235280  29.7174621  34.8654413  34.6707225  30.1587582  36.2058949
  84.4980700  43.3945847  15.4162669  84.8994424  42.6383781  15.8443892
  85.1445029  44.0942097  15.5104899  38.1469107   9.8507071  12.5497079
  38.7025476   9.2965770  12.0015848  37.2666311   9.4914961  12.4387741
  15.0685894  40.4774618  23.5304093  14.2694783  40.2174282  23.9887071
  15.1455021  39.8523593  22.8096008   4.2353437  71.2713898  40.1015759
   4.6103451  70.4269690  39.8514557   4.5881126  71.8892289  39.4612145
  85.3579942  21.9691658  27.7813244  84.8814319  21.8911719  26.9548631
  86.2596498  22.1575618  27.5210238  62.4302340  37.5529575  45.7753515
  61.8297482  38.0878830  46.2944841  62.4405241  36.7050266  46.2193537
  36.3944316  53.6312580  18.9073980  36.5060186  53.6733246  17.9576564
  35.7750702  52.9143953  19.0442693   6.7735463  34.0923166  21.7264533
   6.4960647  33.3374524  21.2074018   6.0531485  34.7172403  21.6444278
  36.1092210  14.4236517  20.3793597  36.4127707  14.7139585  19.5192373
  35.6271338  13.6157227  20.2030778  24.2476678  32.8861761  32.1215415
  24.4075704  31.9639897  32.3221254  24.8826432  33.3614421  32.6574135
  20.0655150  12.6974428  31.3307261  19.7977436  12.9651701  32.2098470
  19.9200308  11.7515171  31.3137031  21.0418749  11.8388820  40.3252363
  21.7029524  12.3759484  39.8884654  21.5457654  11.1779201  40.8000612
  32.6445413  41.4217377  36.2695718  33.1548500  40.9790897  35.5914259
  31.8901253  40.8503056  36.4129305  38.4521675  23.9759016   9.2216814
  39.1293859  23.9962339   8.5455209  38.6621332  23.2043433   9.7478390
  14.8533452  30.6184411  21.6132474  15.6933165  30.7237220  21.1664844
  14.2094624  30.5774570  20.9061623  27.2292137  43.0592585  36.4566541
  27.6079965  42.2202921  36.1941814  27.8876638  43.7077713  36.2074471
  17.6041210  57.7649307  24.8301435  17.3660922  58.4374094  25.4683781
  17.7853119  58.2514000  24.0259361  37.4352098  10.0140464  54.9557924
  37.8114390  10.8937168  54.9851942  37.7280951   9.6561730  54.1177130
  45.7671213  22.8152418  19.7995746  46.4959145  22.5819373  19.2245448
  45.1612663  23.2957888  19.2354381  12.4366248   7.2964990  42.9484367
  11.8596339   7.3097658  43.7120724  13.2597017   6.9342697  43.2764149
  58.3847523  21.6511106  36.2955904  58.9873934  21.2223434  35.6879616
  57.5201702  21.3255000  36.0451698  65.4372215  64.6228790  26.5968966
  65.1228619  64.0388060  25.9067750  65.3941250  64.0958452  27.3947763
   3.2669205  74.3201779  51.0983202   3.3535952  73.9098238  50.2378961
   3.5566468  73.6476134  51.7147180  46.2921619  71.9673300  38.0442595
  46.2447357  71.0157013  37.9526663  47.2152042  72.1448374  38.2251263
  55.1092482  55.4819965  22.9418659  54.6760607  56.2979841  22.6913762
  54.5997715  54.7974443  22.5082111  62.9877472  52.3633242  16.5617812
  63.8690090  52.6226330  16.2927675  63.1163311  51.9020224  17.3905754
  56.4508295  53.1159544  21.3416982  57.3495197  52.8908491  21.1010551
  55.9316874  52.3625612  21.0604048  63.8658047  47.6265860  11.9139433
  63.6016607  46.7782688  11.5578294  63.8258791  47.5107574  12.8632700
  38.3468175  78.0133915  25.2953315  38.6195278  77.7555275  26.1758804
  39.1462827  78.3409977  24.8833084  46.7386341  45.2194023  22.1769977
  46.4527416  44.4455051  21.6916299  46.2728453  45.1643896  23.0114126
  70.0059938  57.7644253  10.8165216  69.8493862  58.3324575  11.5708709
  69.6224070  56.9236946  11.0660481  52.9743862  60.8563662  26.5720987
  53.7834454  60.4502964  26.2610292  52.3057365  60.5627775  25.9532738
  52.5564337  61.7548752  16.6222966  52.8309870  62.4285030  16.0001421
  52.9870462  60.9565783  16.3164759  31.6531205  41.6081047  18.1943309
  31.4839101  40.7551575  17.7942336  32.2969770  42.0195913  17.6178217
  34.8857617  51.2086344  21.3700128  35.7401419  51.2559557  21.7989993
  35.0580621  51.4653397  20.4641151  64.8121741  18.2001835  33.7468219
  65.4301288  18.2358127  33.0166888  65.2521613  17.6647335  34.4070768
  46.9445705  59.6452093  35.1734567  47.7544451  59.9923611  35.5473804
  46.3372946  59.6057034  35.9122992  60.1730633  42.0068169  31.4736772
  60.1175690  42.9318190  31.2338328  60.7256031  41.6165257  30.7964754
  22.2484422  58.7686300  26.7725396  21.5899777  59.0905762  26.1569047
  21.8357944  58.8556957  27.6318264  38.4145331  67.8146172  22.2797203
  37.9346323  68.0420876  23.0760789  39.1614318  67.3017120  22.5884342
  64.8066473  46.0588408  17.7901959  63.8962650  46.3187790  17.9311323
  64.8220158  45.1227093  17.9893482  43.3289623  53.1375837  31.4952040
  43.5745001  52.2225809  31.3584208  42.4161243  53.1004858  31.7808294
  72.6607895  43.8453007  42.1909380  72.5560665  43.3021021  42.9720926
  71.8727970  43.6764812  41.6744137  25.8886075  59.0639925  13.4560513
  25.8557320  59.5258904  12.6183176  25.0431013  58.6195421  13.5178459
   5.5368492  25.9378938  35.4427501   4.7280309  25.6701545  35.8790538
   5.2730271  26.6582135  34.8702380  39.9698785   2.8445202  18.4308839
  39.5657065   3.5695892  17.9542816  40.3100851   3.2441478  19.2313766
  51.9487476  58.8669252  28.7435389  52.2407675  58.7112665  29.6417165
  51.9288540  59.8202658  28.6599731  65.9510377   4.4661861  52.9353285
  66.4244702   3.8738018  53.5194349  66.5276077   5.2248912  52.8449535
   4.3205997   4.9262100  22.3045826   3.5189077   5.2449661  22.7192140
   4.8188373   4.5301204  23.0194974  72.0843315  68.9108086  15.3092504
  71.1969376  68.6988020  15.0197315  72.4498081  69.4353104  14.5968223
  79.2684460  56.0325432  35.4294252  78.7031698  55.2619314  35.4828238
  79.6651030  55.9788322  34.5599365  42.5003907   6.9532708  69.4699964
  41.9881341   6.6689758  68.7130290  42.6899907   7.8756360  69.2981438
  58.4856701  52.8450871  26.7837763  58.4237862  53.3393526  25.9663987
  59.4258976  52.7426958  26.9311619  80.7194114  74.8890923  59.4121918
  80.7977844  74.4560288  58.5621652  81.5305400  74.6675085  59.8695788
  67.6290157   1.1239200  39.1536927  68.0080369   0.2743297  39.3790174
  67.1372321   0.9609085  38.3488274  84.7097969  25.2189517  67.8907108
  84.6563721  24.4981933  67.2631073  83.8665295  25.6654978  67.8149605
  64.9413682  57.8349410  68.0697031  64.7092247  56.9298099  67.8621498
  65.5765844  57.7619706  68.7820285  51.2478352  59.5471573  50.0231934
  50.8002424  60.2443504  50.5025816  50.6510448  58.8004827  50.0736713
  72.9590559  30.3581667  12.5421774  72.8855515  29.4999933  12.1246028
  73.8277149  30.6727552  12.2917747  65.5192041  34.4269252  12.3402643
  65.5447245  33.6453724  11.7882168  64.5865774  34.6127081  12.4494267
  67.3140478  76.2103510  17.3429704  67.6095819  76.0954380  18.2461238
  66.7236328  76.9629574  17.3780823  42.8631926  55.0602341  29.7363186
  43.1004000  54.4070673  30.3946018  42.4220085  54.5594692  29.0501523
  57.9191110  38.9482192  66.3912898  57.4034593  39.6687059  66.0290351
  57.5056550  38.1586198  66.0422715  72.1232369  10.7641273  25.2852964
  71.7422822  10.5145507  24.4433832  71.4568713  10.5257660  25.9297872
  48.0486584  68.8244724  36.0037208  47.7430868  68.3040524  35.2607393
  48.1472397  69.7092438  35.6520104   0.7420558  70.5722046  29.2061400
   1.1666983  71.0253859  28.4777570   1.3215941  70.7233810  29.9528122
   5.7263872  12.5579410  43.7052822   6.0491964  11.7471939  43.3119488
   5.8344385  13.2165962  43.0191898  31.1029148  67.5289392  20.8782601
  31.2485385  68.0976248  20.1222014  31.3596630  66.6578531  20.5757356
  46.0526752  57.8899336  30.4462028  46.2014675  58.1769085  31.3471675
  46.4507198  58.5741806  29.9080610  56.3107014  61.0295343  36.3132906
  56.6246510  60.6667328  37.1415663  56.6971064  60.4658127  35.6431127
  68.0450752  34.6602016  42.5428963  67.5205067  34.1120773  41.9592714
  68.9510253  34.4741588  42.2961712  47.0817852  64.5559597  29.4759011
  46.8019772  64.8862410  28.6221719  46.9384861  63.6108732  29.4257832
  84.1744423  37.1205235  33.2604957  84.0661621  38.0425692  33.0273914
  83.5334301  36.9723725  33.9557576  55.9230423  73.9919424   9.8990160
  55.5206490  73.7165451   9.0753245  56.8159294  74.2391920   9.6584874
  37.9427576  69.8343134  42.6081896  37.0437241  69.6984339  42.3090172
  38.3331966  70.4017448  41.9435024  72.9463243  20.6106067  32.6420331
  73.2156420  20.7929707  33.5422778  73.7444639  20.7232523  32.1257782
   2.2965926  64.2971659  40.0490522   2.3598784  65.1382589  39.5965099
   1.7321605  63.7652349  39.4880676  13.1105301   2.2182708  12.3700690
  13.2903644   1.6341262  13.1067240  12.4486229   1.7571788  11.8548000
  83.6854246   1.2353782  61.9784376  83.9402083   0.7962016  61.1669937
  83.8482192   0.5866603  62.6631936  77.4121332  40.5993176  37.6779819
  77.8448582  40.3414679  38.4919190  77.6201963  41.5284872  37.5800490
  82.7046299  77.0427847  37.8155708  81.8380737  76.6376066  37.7816534
  83.3136845  76.3045597  37.8330064  66.1486721  57.5474310  40.4208136
  66.5985060  57.1783257  39.6607828  65.2693367  57.1709919  40.3848267
  81.3655376  65.5922794  27.7960300  81.7366600  66.4732170  27.8455615
  81.3381195  65.2924967  28.7046599   9.3896458  44.8568658  59.9506840
   8.7768957  45.1484613  59.2755994  10.0170276  45.5752973  60.0311550
  72.7570486  46.6638660  41.5700817  72.4624395  45.8452988  41.9693184
  73.4728813  46.4035654  40.9903717  30.7355833  55.1506996  26.1636829
  30.5008006  55.3909397  25.2673602  31.6634607  55.3742886  26.2363434
  46.5522957  59.5611525  32.6130962  46.3357306  59.5721102  33.5454106
  47.2406292  60.2196646  32.5193405   2.6207658   0.8426433  45.0460672
   2.2079965   1.6585117  45.3292799   1.9224998   0.1900535  45.0988245
  26.7327475  32.5673510   5.6285122  25.9938454  33.1037880   5.3412846
  26.3320517  31.8541933   6.1255863  36.4238024  78.3187771  58.1734371
  36.0291648  78.4640455  59.0333176  36.9963980  77.5618219  58.2974911
  56.9746923  42.2413635  42.5668001  56.2163162  42.6916265  42.1948290
  57.7262211  42.7583981  42.2767782  18.2117555  16.0283736  50.1204118
  18.6889312  15.4874782  49.4911501  18.0553720  16.8519048  49.6582720
  33.3419439  13.7804943  11.9532454  33.0435583  14.3123966  11.2154949
  32.5801679  13.7219196  12.5298727  65.2019215  75.3837824  33.1280994
  65.6974554  75.7226801  32.3825598  65.8538437  75.2783823  33.8210058
  61.8208361  62.8272152  31.4353323  62.0302963  63.7272644  31.1858034
  61.9340754  62.8096056  32.3856473  39.9440646  71.7302418  50.5887318
  39.0294647  72.0082140  50.6384325  40.1152515  71.6362667  49.6516657
  24.2818022  77.0110893   5.4255396  24.9572349  76.4742756   5.0109839
  23.5013032  76.8699265   4.8896956  60.2394629  47.3244619  32.5935721
  60.7657671  47.5544882  33.3592892  60.2619267  48.1075001  32.0434976
  48.3309174  66.7579699  23.1244612  47.6092291  67.1187782  22.6094699
  48.3990002  65.8476639  22.8364658   9.5807761  40.9379864  28.8912582
  10.0118178  41.6562080  29.3544936   8.6994380  40.9076309  29.2634916
   3.9517090  26.5965992  27.1518040   4.7873375  26.9142204  26.8096399
   3.5419103  27.3701149  27.5390649   9.9814102   7.9824215  11.4928544
   9.5793411   8.6816364  12.0082760  10.5387613   8.4393650  10.8629394
  50.7088184  65.3307962  13.3228683  50.9752035  66.0154390  13.9364910
  50.7568455  65.7481194  12.4627721  18.1386491   9.2005783  55.3166676
  17.4736139   8.9166504  55.9438372  18.1821891  10.1503711  55.4272652
   5.0548050   2.1765953  20.6412601   4.6215936   1.4284950  21.0522294
   5.6966993   2.4672466  21.2891197  81.0737851  21.9430595  65.9870005
  80.9324601  22.8859382  66.0721016  80.4360392  21.5505081  66.5831661
  78.4952736  50.5707598  57.9224920  79.1075039  51.0673904  57.3795700
  78.8963032  50.5648899  58.7916136  17.7812552  80.2562904  41.0189915
  17.1909511  80.5458450  40.3233433  17.3914909  80.6005669  41.8226004
   9.0415523  11.7174272  70.0319938   8.6420986  11.7878322  69.1649794
   8.3951828  12.1001033  70.6252883  65.7843304  36.2559772  26.7710018
  65.4697609  35.8498240  25.9633398  66.4381409  35.6435490  27.1081877
   7.9753324  26.1735683  23.0550456   7.1113655  25.9345585  23.3907056
   7.8106662  26.9214016  22.4807072  39.6349713  44.5077066  69.6983613
  38.8707111  44.0957669  69.2953248  39.3701837  44.6695832  70.6038529
  15.3605866  67.0782019   5.3187016  14.7427964  67.7387740   5.0053194
  15.2438426  66.3388850   4.7220352  19.7398108  77.8050900  31.2502193
  19.6216315  77.2127914  30.5076218  20.5876178  77.5590563  31.6202593
  10.6872863  49.8729229  24.4085479   9.8948878  50.2378654  24.0146661
  10.4862231  49.8163462  25.3426814  41.7604780  43.6772537  13.6832678
  42.4685574  43.8368034  14.3072855  42.1944237  43.6496544  12.8305292
  68.5484409  70.7674170  22.2893429  68.5295630  70.9132385  21.3435030
  67.8596067  70.1214838  22.4458933  70.6462717  58.4802008  30.7935143
  71.1360312  57.6742077  30.6299782  71.3022518  59.0975809  31.1171794
  45.3092337  64.9914885  27.1845746  44.3910217  64.8987436  27.4385715
  45.2960634  65.6221819  26.4646554  10.0451487  60.8918190  13.4547544
   9.1770190  60.7810545  13.8424754  10.6086940  61.1260414  14.1921711
  66.0866785  48.5242891  23.3728600  65.2792311  48.9867020  23.1482792
  65.9401417  48.2050800  24.2632890  75.8925581  43.1124830  32.7268076
  76.6103697  43.7283039  32.8742671  76.0838509  42.3776674  33.3096266
  70.8358955  43.1345272  13.3798993  70.8939409  42.9687500  12.4389517
  70.8137369  44.0885878  13.4540939   1.2710306   9.2341095  64.6443176
   0.5381414   9.6952015  64.2362738   0.8602592   8.5392051  65.1587200
  65.4276180  69.1834879  28.5122085  65.3641796  68.9924669  29.4480062
  66.1513090  69.8061991  28.4433913  54.5628643  66.0807085  17.8863573
  54.3096495  65.9302568  16.9755995  55.0609064  65.2999973  18.1285834
  65.3901529  76.8998146  54.1408730  66.0043526  77.3241138  53.5417366
  64.6769285  76.5977573  53.5784626  25.3839895  13.0807453  49.5343494
  24.9601862  13.3724361  48.7271690  25.5290243  12.1436744  49.4035959
   2.5455874  52.9237604   4.1083285   3.2532710  53.5151863   4.3645069
   2.3989695  52.3771620   4.8803186  84.7520161  77.7878475  27.6378322
  84.3792534  77.6359558  26.7693758  85.4257774  77.1142769  27.7304339
  67.4001646  32.9440212  40.6132889  67.9922009  33.0458450  39.8680687
  66.9435072  32.1196747  40.4455090  50.3541327  73.8906860  16.7401123
  50.4442596  74.8198509  16.9516993  51.2390041  73.5373020  16.8315291
  15.6436557  59.6543455  43.7981033  16.2059611  59.7956657  44.5597315
  16.2341994  59.7246218  43.0480671  48.2033369  21.3081222  13.6202085
  48.4743997  21.8068462  12.8494716  47.2485372  21.3756710  13.6255705
  59.9589777  60.5890131  34.2179537  59.2958021  61.1322737  33.7921667
  60.7626438  61.1062193  34.1645575  53.9125493  19.6181732  19.5532334
  54.5275429  19.4477897  18.8398015  54.4536712  19.6109443  20.3427672
  55.2324057  60.9553480  44.0915012  54.7311592  61.7705345  44.1128397
  56.1299276  61.2207317  44.2921400  57.4610949  48.4326458  39.0516758
  56.9912338  48.6921549  38.2591391  56.8879318  47.7905369  39.4705009
   3.1546778  75.2730535  64.2068127   3.4337754  75.4338072  63.3054277
   3.8257927  75.6940411  64.7440323  61.8727875  66.2400198  18.2011855
  61.3605738  66.9988632  17.9218554  62.7813387  66.5396643  18.1699479
  26.7809033  79.5481634  17.2795522  26.4618349  79.9568272  18.0841768
  26.5164399  80.1502132  16.5839744   8.0744812   8.0152183  20.8305478
   8.1684086   7.6239448  21.6990590   7.2766372   7.6227813  20.4760599
  31.1293244  71.4584541  47.9284000  31.5812802  72.1897221  47.5074291
  31.7482471  70.7303953  47.8727722  82.3298648  10.0108677  28.6252427
  82.9808286  10.1265293  29.3174148  81.4875462  10.0803333  29.0745831
  56.0187626  44.2808485  44.5983124  55.6521988  44.4033289  43.7226057
  56.8616390  43.8530207  44.4474506  30.5492326  -0.2275605  67.7003193
  30.2314874   0.4998642  67.1654129  31.3436720   0.1090580  68.1147814
  77.6590681  74.2959976  23.7047648  77.1507215  73.4914875  23.8076448
  78.2129002  74.1333675  22.9411817  71.6752577  60.7551956   2.6871929
  72.0606899  61.0324192   3.5183483  71.2641573  61.5460443   2.3382176
  59.0881920  52.6284838  20.3420663  60.0196600  52.4106264  20.3083324
  58.9425755  53.1775331  19.5716286  33.2511636   7.3100238  67.0744658
  32.9517957   7.8217369  67.8259754  32.7015707   7.6061206  66.3488579
  80.3515053  67.7192116  31.2070990  79.5130539  68.0860424  31.4875650
  80.2678967  67.6288891  30.2578449  77.4089622  76.4668751  42.5031090
  76.5979528  76.6723013  42.9681873  77.1687365  76.4988947  41.5771008
  67.8142786  50.1631355   8.1587374  67.1616507  50.8574724   8.2492781
  68.5391426  50.5755281   7.6889104  53.1211045   0.5904155  27.8424144
  52.2407677   0.3271251  27.5742388  53.5723522  -0.2337307  28.0251312
   9.4246625  35.6160761   8.5261944   9.9654507  34.8307778   8.4420231
   9.3835949  35.9747578   7.6396874  65.2334642  70.3450251  64.3776655
  64.7904825  69.6318150  64.8373795  65.2160454  71.0756969  64.9957657
  20.7406900  31.2758617  67.8874382  20.6532380  32.1342162  67.4729389
  19.8485658  30.9298305  67.9121990  65.1585031  61.8505071  40.4759094
  65.1660252  61.3989686  41.3198802  65.1796318  61.1466764  39.8275182
  16.1292529  52.0357348   5.3621081  16.6946530  51.3068987   5.6177548
  15.6044411  52.2166850   6.1418942  39.1103506  49.8399353   0.8429175
  38.5854697  50.6260920   0.6922901  39.9948692  50.0871944   0.5732479
  46.2289762  61.2619734  24.3046975  46.8236923  61.5806580  23.6257386
  46.7042875  60.5431080  24.7212839   3.7679213  68.4701157  69.6231222
   3.9996833  68.0974722  68.7724447   2.8108424  68.4616852  69.6355677
  13.0401820  27.0867777  44.6453571  13.3186549  26.1724067  44.6964598
  13.8368529  27.5896072  44.8148060  42.8034875   9.3637065  68.2487313
  43.4166810   9.5223264  67.5310501  42.5013683  10.2357225  68.5027730
  77.3039248   6.6223102  26.0204363  77.1402696   5.7932811  26.4700627
  77.4184420   7.2589260  26.7260170  31.4122581  48.2432127  10.8105421
  31.6883683  49.1216898  10.5492544  30.9349537  48.3758640  11.6295767
  28.2437658  76.3761520  13.5891426  28.0275965  75.5062485  13.9249587
  28.0663347  76.9664860  14.3214381  61.6887808  78.3265638  50.6436157
  62.3034763  78.0922556  51.3389444  60.9575129  77.7191830  50.7556915
  40.0857639  62.6558924  22.6457262  39.4039893  62.0705366  22.9755330
  40.5515003  62.1360397  21.9906926  48.8446805   2.3658065  58.1567952
  49.4403073   3.1150989  58.1611916  49.1224906   1.8346194  58.9030465
  50.9640837  79.5739269  23.6411691  51.4353132  79.5308065  24.4732237
  50.9446716  80.5061817  23.4249401  53.5931110  59.4415092  15.4359710
  54.2842388  59.9935722  15.0701845  53.3862877  58.8216829  14.7364914
  10.7463905  32.6985412  34.4370461  10.4231855  32.6307827  33.5386133
  11.0132667  33.6133438  34.5272326  64.5887401   3.4679084  15.8889997
  64.4333294   2.5685173  15.6006074  64.9730280   3.3768230  16.7609286
  57.9211998  25.4971457  62.7742243  57.1798897  26.1024499  62.7570868
  58.2314062  25.5239272  63.6793709   7.7255413  18.9015632  47.0554972
   7.1057531  18.6799102  46.3605404   7.7099344  18.1443458  47.6408243
   0.5313131  35.3657585  56.1952066   0.6685182  34.4501453  56.4382029
  -0.2210549  35.6422573  56.7183971  64.1464233  77.7454758  23.5660481
  63.7388229  78.4298706  23.0352950  64.8758841  77.4308395  23.0320811
  80.4312992  64.5182276   6.0877013  81.3335037  64.6951771   6.3540608
  80.4978180  64.2723608   5.1650107  49.5695305  60.8300829  47.8198147
  49.5375919  61.6650486  48.2867622  50.3240585  60.3751516  48.1939268
  54.1730022  65.6403542  49.3812799  55.0015831  66.1180735  49.3429279
  53.5352850  66.2348080  48.9860964  38.6000967  29.6631408   4.4439426
  39.2814016  29.7202706   3.7740237  39.0651059  29.3939734   5.2361220
  48.4713840  76.3113594  50.8403587  48.1184196  75.4737806  51.1405325
  49.4183254  76.1750221  50.8096313  37.3540854  55.6018448   0.6136372
  37.5034571  55.2652931  -0.2699083  36.8797827  56.4225149   0.4803282
  64.2171907  67.7733231  17.8851306  65.0853157  68.1745529  17.8450608
  63.6479139  68.4669256  18.2184041  48.0881119  77.1468449  26.3493276
  48.0718470  78.0987358  26.2499905  48.9052629  76.8762684  25.9306526
  65.6975794  39.7173810  43.0851841  66.5701532  40.0980377  42.9854441
  65.8372688  38.7738442  43.0048513  29.5622441  17.9654674  56.6254482
  30.3501746  18.0490092  57.1624967  29.0234468  17.3242025  57.0888123
  19.3169710   5.1547676  35.3190684  18.7237522   4.8064857  34.6534610
  19.1058418   4.6597725  36.1106753  70.5754852  51.5094566  41.7887926
  71.2438536  51.1057949  41.2351084  69.7623539  51.4103031  41.2935972
  30.1901647   3.3590274  51.5253115  30.2703211   2.5058132  51.9517183
  29.9926397   3.9657550  52.2388172   5.7491991  39.7505216  64.4497284
   4.9184630  40.0903157  64.1170910   6.3325092  40.5094175  64.4574091
  70.3900290  54.5636320  21.4377618  69.5664358  54.1912842  21.1226702
  70.8281279  53.8363266  21.8797231  70.6882715  40.7103157   1.6798051
  71.3938951  40.6881523   2.3262060  70.2824974  39.8453593   1.7384239
  48.7057781  65.7203341  45.8989286  49.1418934  65.9072495  45.0676107
  48.3121014  66.5541983  46.1556721   1.2234089   8.9553028  28.6498618
   1.0859939   8.3407837  27.9289508   1.4532301   9.7797638  28.2212830
  13.6751911   6.8367057  58.6645842  14.5039817   7.3155933  58.6608219
  13.3210918   6.9638878  57.7844286  62.6356745  61.6268492  23.2293820
  61.7372799  61.7875957  23.5179639  62.6636791  60.6879711  23.0451107
  34.4416451  59.4963741   1.0427400  34.1000152  58.7688017   1.5625143
  34.0051866  59.4108915   0.1951382  76.9059038  22.6457977  43.4907103
  77.1939707  21.9678545  44.1019678  77.0256376  23.4661841  43.9691067
  77.9697564   6.9908863  32.7235770  78.8190558   7.4159103  32.8430748
  77.5991443   7.4103790  31.9471025  76.0463190  58.0325127   8.0964220
  76.2940931  57.2665882   8.6143076  75.5872488  58.6012506   8.7145025
  42.1338463  78.0432367  37.0893312  42.7263308  78.2617950  36.3700056
  41.2592649  78.0971050  36.7040539  60.0254917  63.3173704  15.6272280
  60.8746576  63.7020588  15.8444095  60.2363110  62.5778580  15.0572157
  42.2683978   7.3845126  13.7171009  41.3218617   7.2708250  13.6312226
  42.6394104   6.8314387  13.0295780  72.3013163  53.8498449  50.2236986
  71.5954876  53.2106304  50.1265478  71.9388151  54.6624231  49.8707962
  20.6291217  69.4412279  41.0450983  20.5094737  69.7312546  41.9494200
  20.8687419  68.5174990  41.1195374  80.1236108   7.8527408  47.2719383
  81.0563662   8.0362945  47.1600962  79.7632363   8.6594158  47.6402187
  71.4613652   2.1462847  10.8800629  71.6759514   1.4997174  11.5524700
  70.5440163   1.9749333  10.6670979  53.9233971  46.5853977  24.2116380
  53.2486963  46.1921644  23.6581278  53.4481049  47.2054768  24.7646642
  80.3338623  59.2037582  63.8816309  80.1376247  58.9521885  64.7840929
  79.6778488  59.8679256  63.6700821  72.6551199  75.7696629  13.9177525
  72.0833874  75.1226759  13.5045183  73.2626486  75.2505779  14.4447160
  72.4746516  25.4553180  26.1254168  72.0419171  25.3473812  25.2784681
  72.9969695  26.2514835  26.0277677  19.9084184  21.6354970  52.9979691
  19.9279544  22.5866441  53.1036779  19.9093625  21.4997510  52.0504448
   5.5078334  52.4810505  62.8039694   6.0668486  52.3941231  63.5760927
   5.0319785  51.6517735  62.7582026  83.1267834  74.8965502  21.3740706
  83.0876541  75.6395960  20.7719207  82.2984028  74.4359827  21.2403131
  59.9868205  11.3284736  30.0843501  60.1014593  11.1304908  31.0138083
  59.7511914  10.4896217  29.6880674  62.7246571  72.6856947   3.0290708
  63.3986187  73.2603598   3.3920631  62.9248714  71.8228102   3.3918101
  12.9584142  10.9388023  37.7198577  12.2485134  10.7565075  37.1041965
  13.7568161  10.7420402  37.2298837  66.0899496  36.3007617  48.3376980
  66.3594389  37.1642685  48.6506891  65.5854464  36.4802861  47.5443029
  19.4986984  -0.1178593   3.5893592  18.7041351   0.2763610   3.9492252
  19.6154091   0.3101211   2.7411562  65.4610300  74.3772507  12.6252174
  64.7858143  74.9369526  13.0086851  65.8421850  74.9071312  11.9250929
  67.2241685   2.9909400  58.4648046  66.3589284   3.1558017  58.0900952
  67.7432153   2.6591901  57.7321574  74.3634417   2.7926403   8.3906484
  73.5937980   3.2351356   8.0327725  74.5077374   2.0506054   7.8034574
  77.9855013  62.6566076  56.2980127  77.7481794  63.4818316  56.7209959
  77.5715685  62.7015352  55.4361153  45.4094648  62.1009159  15.6823099
  45.3370047  61.4361811  14.9973929  46.3366795  62.3385382  15.6883180
  59.0457821  50.8460712  39.0771198  59.6640730  50.4620361  38.4554577
  58.5573721  50.0985479  39.4219327  54.0694475  68.7731981  59.6465492
  54.4958258  69.6293449  59.6845198  53.1333494  68.9700890  59.6809196
  49.4574261  52.4638939  45.7154655  49.6224928  51.5222120  45.6683016
  50.3272581  52.8559828  45.7922125  55.0254968   9.3948608  24.4370222
  54.6543196   9.2723423  25.3107786  55.8967784   9.7580677  24.5956922
  32.3380423  77.5161266  45.9205389  33.2351303  77.6925659  46.2039757
  32.1294951  78.2351732  45.3241253  78.1943226  51.2320900  15.0585258
  77.7072287  50.4689932  15.3694212  79.0542507  51.1517525  15.4712033
  65.2784634  50.5551100  27.0446801  65.5778694  49.7671556  26.5911222
  65.7993412  50.5819893  27.8472996  13.8452804  77.3105907  37.1916366
  14.0869284  77.2248220  38.1138539  14.5456219  76.8619919  36.7178082
  85.3420734  41.8977070  35.9512067  84.8002720  41.3306427  36.4999580
  85.2441788  42.7684307  36.3365412   5.2103061  47.0996428  27.8010321
   6.0042781  47.2879887  27.3006678   5.3703040  47.4902487  28.6601353
  39.7979999  78.3126211  35.5576015  39.6583986  79.2412615  35.3722286
  39.8959804  77.9083824  34.6954989  66.2254906  38.1553960  32.1452141
  66.9298172  37.5774765  32.4387503  66.1615038  38.8216662  32.8294826
  58.0024170  20.9862973  19.6908596  58.4551835  21.8062998  19.8879173
  57.2254776  21.2536980  19.1998413  29.8184085  25.0461250   6.3705504
  30.1475481  24.3397384   6.9263595  29.5189413  24.6054416   5.5753446
  48.1286955  60.7357693  55.3935242  49.0207815  60.8397150  55.0624561
  48.2104778  60.1041412  56.1080790  25.4395103  42.3538160  10.6463301
  25.1790690  41.4328289  10.6601369  25.0583291  42.7224827  11.4432096
  73.4121609  37.5032163   1.5431921  73.5820055  36.8864322   2.2552037
  73.9938354  37.2204876   0.8375348  68.5876656  76.8003035   0.6469971
  69.0916204  77.5757980   0.8937037  68.2206726  77.0159101  -0.2103621
  80.1116803  16.2570243  38.6246729  79.4780448  15.6225734  38.2896948
  79.6274712  16.7536979  39.2842889  74.2181206  37.0605040  55.0187016
  74.0117693  36.1269403  54.9727535  73.4105921  37.4978566  54.7487926
  71.4674044  63.5302448  48.4318447  72.2049999  63.8845158  48.9285088
  71.6839361  63.7138319  47.5177145   2.6719588  53.5493088  10.0898826
   2.8920573  54.4612265  10.2801323   3.3879870  53.0446053  10.4756272
  62.0016623  73.4846306  44.5930624  61.4582157  72.7573824  44.8964024
  61.3791704  74.1877890  44.4078636  75.6570768  63.7540579  23.0536985
  75.5792904  62.8695250  22.6962256  75.1618099  64.3026304  22.4454141
  61.7719221  57.1274471  32.6248264  61.5604305  56.2764788  32.2409606
  61.0049009  57.3493671  33.1527114  71.8995571  59.5071125  28.5219908
  71.2138033  59.8266125  27.9355621  71.4288187  59.0185261  29.1972065
  61.4243793  48.2306957  14.3293190  61.6446066  49.1246128  14.5913196
  60.9496307  48.3329487  13.5044611  60.4182196  64.8028994  33.9064074
  60.2362633  65.1076555  34.7953653  61.3496351  64.9821472  33.7777066
  48.5524654  60.9192181  64.5035267  48.4878874  61.8737316  64.5345306
  49.4027424  60.7497358  64.0978956  60.4267168   5.3993374  10.1239753
  61.3761520   5.5177301  10.1520610  60.0739336   6.1998278  10.5125499
  76.0694838  78.8493204  35.9124351  75.7119894  78.5819864  36.7591715
  76.7318630  78.1878710  35.7125020  76.1237431  39.9782801  20.5884528
  76.1194372  40.3674078  21.4629769  76.4497662  39.0885472  20.7237983
  83.2858181  70.6836414  33.9603996  83.4369373  71.5394402  34.3616509
  83.8646317  70.0895405  34.4381499  82.8963855   8.7554031  53.7542772
  83.4196809   8.3481365  54.4445848  83.0265763   9.6955829  53.8781548
  60.6134319  71.7317390  16.2874043  61.3774204  71.1550713  16.2902474
  60.5694199  72.0753908  17.1797037  49.5795298  73.2447910  11.7029715
  49.2812109  72.5588083  11.1057544  49.5067263  74.0528488  11.1950624
  74.4105437  19.9421268  28.5148454  73.8963511  19.1564899  28.3288169
  73.7854245  20.6624084  28.4332132  64.3061256  44.7471094  38.7169027
  63.9959288  44.5496178  39.6006465  64.6179676  43.9074612  38.3793020
  76.4478925  17.9119259  33.4433985  75.6014922  17.5075298  33.2528758
  76.3226655  18.8381820  33.2370019  49.0364000  31.3190895  42.8282452
  48.5357496  30.8712059  43.5101414  48.5172578  32.0962005  42.6213074
   6.6119835  43.8150052  65.5739853   5.7847545  43.3846025  65.3579423
   6.8009469  43.5349397  66.4695790  77.6799777   8.0067020  38.9111257
  77.8934768   8.9370304  38.8395023  78.0044844   7.6230770  38.0964088
  72.6472187  58.1988096  25.2830720  71.9254160  58.8073921  25.1253963
  72.9983187  58.4591484  26.1346483  15.2578467  49.7408867  24.0572023
  14.8985213  49.0254164  24.5818114  14.5361346  50.0055838  23.4868550
  39.6902177  26.0445527  53.6791369  38.8749263  25.5579404  53.5577318
  39.6318957  26.7688541  53.0560610  10.9709376  67.3072338  52.1878338
  10.5860823  67.4254179  51.3194132  10.9857768  68.1868839  52.5649643
  21.2861365  64.8155355  22.1060777  20.3916186  64.4865751  22.0174718
  21.1955661  65.6220484  22.6135826  65.0313807  24.5376325  38.0542874
  65.1472187  25.1758194  38.7582278  65.0828218  23.6873960  38.4909606
   3.4008190  21.9879585  31.0798359   2.5752470  21.5252643  31.2233019
   3.9298221  21.7782169  31.8495059  42.0969984  20.6494671  18.2429779
  41.6891500  20.7134872  19.1065729  42.9731199  21.0154682  18.3641410
  82.6928520  68.4213114  51.2342691  82.7466488  67.6174831  51.7511797
  81.7933559  68.4360743  50.9073067  21.4603588   9.2337566  37.7851129
  21.6708538   8.8046890  36.9557619  21.7133686  10.1474243  37.6530766
  67.1770954  69.8750305  57.9913139  68.0065584  69.4231129  57.8364229
  66.5127897  69.2852449  57.6348209  83.1687450  50.4110670  23.8293600
  82.3511791  50.8159876  23.5397649  83.3816338  49.7818279  23.1401825
  66.9677687  80.2401447  24.1136670  66.5591288  80.0553131  23.2680416
  67.8018713  80.6537437  23.8913107   5.6914538  60.0111723  24.5054460
   4.9922294  60.2607441  23.9012671   5.6268329  59.0580750  24.5659924
  54.4666672  63.6821651  61.5368080  54.0318871  64.0557528  60.7702398
  55.0531864  64.3748474  61.8408060   1.1099356  65.3781843  24.8193192
   0.2828711  65.3943062  25.3009129   1.7577571  65.0965118  25.4652452
  45.6335565   5.7921463  40.7342529  45.5261442   5.1214367  41.4086723
  45.5431959   5.3175502  39.9079251  62.1274301  11.0091453   4.2190680
  62.8900835  10.4499965   4.0709889  61.3818380  10.4745060   3.9461383
   5.0970191  69.2179632  38.6962724   4.2908686  68.7776613  38.4270263
   5.3952235  69.6739340  37.9092526  85.6955433  75.6628370  43.9806223
  85.7871151  74.8427486  43.4955454  85.6700802  76.3396406  43.3042240
  66.6446447  63.2819891  35.6240845  66.0358477  62.6433039  35.2530217
  66.2660694  63.5082388  36.4736271  50.6834483  38.2736279   6.1026266
  49.7575020  38.3479573   6.3335636  51.1045098  37.9545428   6.9008234
  66.5982676  74.5796680  26.1823034  66.3971567  73.9964581  25.4504228
  65.9482765  75.2792645  26.1166811   7.1590918  76.4748621  60.4183245
   6.9980449  75.6408596  60.8596134   8.0627650  76.4116430  60.1091194
  62.5867176  58.5540628  14.8739207  63.2751799  59.2045069  14.7354734
  63.0526161  57.7195120  14.9258196  33.6022448  18.2002617  11.5565899
  33.9635157  18.3208109  10.6784180  34.1549515  17.5264956  11.9525459
  26.3469240  12.4872356  11.5111172  25.6137010  12.9433876  11.0981619
  26.2164613  12.6243644  12.4494159  76.4637044   1.7235809  43.8277674
  75.8190587   2.4271064  43.7521458  75.9474757   0.9191566  43.7764168
   2.2396487  51.6595221  21.1563277   1.7040557  51.7119503  21.9479227
   2.8360194  50.9286118  21.3186240  42.6186779  26.6515403  70.1655769
  43.2127228  26.3112789  69.4965744  41.7436936  26.4506965  69.8334694
  20.7580015   0.6056553  17.1609390  20.7527992   0.6724888  16.2060893
  21.1528942  -0.2478833  17.3391485  68.3714581  52.3776913  39.8754478
  67.6976824  52.3161554  39.1983414  68.9800358  53.0401182  39.5482540
   5.7625598  59.5320511  43.7773561   6.1740130  58.8083887  43.3048677
   6.3307971  60.2832365  43.6068964  13.1328219  66.5346813   7.2010487
  14.0504187  66.2659025   7.1562070  13.0742091  67.0537090   8.0031765
   8.4775084  68.7049961  47.1808243   8.4270686  68.2427740  48.0175066
   7.6144236  68.5805988  46.7860556  80.5995941  70.7372427  16.8153608
  79.7633839  70.9808588  16.4183319  80.5705738  71.1232519  17.6907957
   2.5605792  58.5797691  35.4970717   3.3029479  58.9206219  34.9981260
   2.7413291  58.8369465  36.4011836  60.1804372  17.7944523   3.4358540
  59.5197508  17.2434288   3.8555044  60.8821794  17.8622108   4.0833104
  74.6638870  66.8986273  41.6174841  75.0050545  66.0863209  41.2433290
  74.0068197  66.6126108  42.2520590   9.7052974  67.8473043  38.6416793
  10.2263182  68.5601807  39.0112424   8.8629645  67.9077291  39.0923071
  72.4852276  72.6395798  17.1150208  73.3779478  72.9796076  17.0544589
  72.3415804  72.5094271  18.0523884  14.4178885  60.2960348  24.6139479
  13.9378661  59.5015430  24.3803048  15.2990359  59.9893236  24.8278379
  24.0285894   3.8417869  10.5165291  24.4555780   4.2687469  11.2592411
  23.9386484   4.5340400   9.8616040  21.9634530  27.0370845  69.1902228
  21.7410896  27.5172977  69.9878331  22.3956153  27.6846818  68.6333710
  60.3631803  60.6331020  11.8569100  60.4769251  60.9384399  12.7569437
  59.5580312  61.0572010  11.5600634  66.9463921  48.1130219  16.9424129
  65.9991312  48.0722666  17.0738208  67.1080971  47.5467443  16.1878169
  43.7368795   7.4223190  53.6873293  44.3482992   8.1526523  53.5924101
  43.0924913   7.7306800  54.3244410  75.4150057  59.9109173  16.4413559
  75.1138258  59.2683458  15.7989943  74.8803759  60.6867981  16.2727928
   5.9753054  60.3284883  30.7143688   5.0611323  60.5917358  30.8202887
   6.3547057  61.0021639  30.1500583  23.5921666  20.6133203  63.6729088
  24.0520904  20.6953124  62.8374574  22.6843879  20.8388881  63.4697202
  62.5786209  76.1151648  27.2763681  62.6563883  75.5880785  28.0715823
  61.6901636  76.4697695  27.3099971  62.9298332  21.7485862  54.1021347
  63.2965210  22.5095230  54.5524120  63.5197118  21.0293823  54.3280125
  22.1368998  75.4063272  29.5527768  22.2212809  74.8049879  30.2927089
  23.0311507  75.5147171  29.2290425   6.9915027  31.2097454  29.4096971
   6.6087931  30.6451035  30.0812221   7.5976962  31.7747211  29.8888230
  28.2818055  66.5754986  28.7628913  27.6088691  66.8042231  28.1217384
  27.8679228  66.7338133  29.6113443  14.5005104  11.0443836  44.7990370
  14.1061708  11.3054424  43.9668226  15.3802082  10.7485252  44.5648718
  11.4176291  71.7727852  58.7519360  12.1928328  71.2550545  58.9693069
  11.4712447  71.8980932  57.8044891  59.8250532  27.6279044  40.5796766
  60.6238794  27.4112058  40.0988960  60.0763988  28.3583617  41.1449099
  78.1835365  59.0390015  58.4188223  78.8066483  58.9709616  59.1422415
  78.7182951  58.9361191  57.6316214  65.9190559  61.0128403  26.9346976
  65.9887695  61.5506411  26.1459374  65.9731150  60.1119232  26.6158581
  30.9777662  17.0913463  22.7690363  30.4675314  17.7173000  23.2829213
  31.7978021  16.9958454  23.2534409   7.5707504  23.7682014  55.7531977
   6.6440698  23.8301235  55.5215549   7.5768444  23.3190971  56.5984821
  25.8400938  18.8013225  16.6979897  25.6034109  18.9054447  17.6196027
  26.4097330  18.0322319  16.6824138   7.3279205  37.4935989  59.2466900
   7.8728310  37.4712304  60.0333306   7.9446808  37.6545028  58.5325858
  33.4648248   0.2742916  26.6144538  33.7799474   0.6110149  25.7756782
  33.3419916   1.0547023  27.1549201  11.0010165  63.2790279  35.3081608
  11.3249129  63.0116224  34.4480371  10.3281993  63.9328051  35.1180840
  49.6996331  62.9240347   6.8609646  49.6599602  61.9906928   6.6523054
  48.7941575  63.2250620   6.7853382  67.9851246  66.6119146  27.3408103
  68.1013536  65.6618071  27.3366547  67.1860409  66.7532396  27.8484797
  18.3777541  60.8995390  50.7787991  18.7848967  61.7093086  51.0865927
  18.4485549  60.2988386  51.5206718   5.9587210  48.8040400   2.1803941
   5.5391330  47.9639912   2.3661350   5.4358214  49.1817617   1.4731926
   8.1049174  61.8156624  58.3240175   8.2483500  62.7524900  58.1897974
   8.0222911  61.7195225  59.2727852  61.2500954  44.9903727  25.7548881
  61.8214750  44.7193098  25.0363564  61.2635422  44.2515755  26.3633537
  62.3331165  76.6164541  43.7154722  61.5795469  76.7295694  43.1361818
  61.9502878  76.4620209  44.5790815   4.3318149   7.1044021  47.3508024
   4.9998209   7.2281128  48.0251122   4.8235580   7.0677429  46.5303898
  55.6409743  34.2697769  21.5533733  56.0897401  34.3020683  20.7085061
  54.8656800  33.7319809  21.3923645  72.2478580  61.2385988  64.5975304
  72.2797966  61.7369032  63.7808895  73.1273317  60.8719921  64.6889591
  36.5092444  28.9970089   6.1930540  37.1756863  29.2773510   5.5657604
  35.7716059  29.5871521   6.0385922  67.8693342  55.9484005  16.5130711
  67.7782440  55.2109623  15.9096503  67.4268246  55.6605816  17.3115540
  65.1192331  70.4443789   5.4471451  65.0763750  71.3161564   5.8400792
  64.2942953  70.3560162   4.9697554  48.3777857  78.7896013  29.5998192
  47.4328995  78.6873245  29.4859838  48.5654736  78.3653402  30.4370809
  50.0207755  58.7868909  69.1151147  49.0974805  58.8429002  68.8689041
  50.4861114  59.2207364  68.3999401  78.0672216  51.5019417  10.4991412
  78.3143520  52.4207115  10.3941512  78.6142302  51.1875343  11.2189746
  75.4552510  55.8770233  30.8696461  76.1964610  56.3019138  31.3012767
  75.7896664  55.0188594  30.6089878  19.2047664  24.6726757  32.5159645
  20.0908348  24.9135547  32.7863097  18.8940355  24.0880542  33.2072687
  70.1679232  26.3993507  27.3069596  71.0283187  26.3249450  26.8941379
  69.6762135  25.6492000  26.9726968  83.6926270  65.2319002  17.5805700
  83.4685516  64.7800493  16.7670250  84.6366310  65.3786182  17.5208795
  78.2688763   0.3584819   2.2773504  77.8453210   0.1662593   1.4407602
  79.0024236  -0.2549023   2.3209463  73.0968001   5.8758503  26.5307975
  73.1777957   4.9491840  26.3050723  72.1562913   6.0135990  26.6434956
  49.8328304  65.5873251  55.7883739  49.8925114  66.5408278  55.8475161
  49.1304731  65.4299831  55.1573706  79.7193527  57.0944691  54.8058128
  78.9965296  56.8801785  55.3955841  80.4367256  56.5283394  55.0905991
   7.4096796   0.4202419  66.1373234   7.3899957   0.7078319  67.0500851
   8.0115053   1.0280281  65.7076311  77.9007673  59.9889994  17.9903710
  77.7858829  60.8544588  18.3828163  77.1262741  59.8706388  17.4404764
  47.9578638  63.4697342  47.0068789  48.2700539  64.2675686  46.5799952
  48.5903358  63.3096552  47.7072954  56.5596819  49.2806101  27.8292084
  56.1199951  48.5225916  27.4440885  57.2950888  49.4549131  27.2418237
  69.4035006  66.3858223  36.6010165  69.1287374  65.6629992  37.1651649
  69.3439150  66.0327959  35.7132912  18.1341049  27.9156643  65.0219917
  17.6302931  28.7293583  65.0046349  17.9895517  27.5631385  65.9000921
  71.1385730  23.1057983  27.4037981  71.7266562  23.5892540  26.8235779
  70.3450158  23.6398559  27.4396110  13.3512661  28.6896663  13.3968949
  14.2202064  29.0775829  13.5003257  13.5089561  27.7455478  13.3964217
   9.7084114   3.5052066  26.3327551   8.8547823   3.1001812  26.4860535
   9.9652406   3.2005554  25.4624343   8.7250632  51.2417650  48.7793684
   9.3091983  50.5185843  49.0074730   7.9659289  50.8189726  48.3778715
  66.2352419  52.4043941   5.7994604  65.3679419  52.0893097   5.5449969
  66.8329048  51.9888878   5.1778626  60.9870815  53.6125469  30.0161052
  61.3315010  53.8738823  30.8701015  61.3859749  52.7588081  29.8480272
  58.5710955  60.0698423  62.8200626  58.6453915  60.4326296  63.7027264
  58.6770296  60.8247280  62.2411394  67.8548241  51.0460615   3.7357131
  68.2643509  51.8239069   3.3569345  68.4617281  50.3337622   3.5343987
  64.3361476   6.8841797  20.3817701  64.6921971   7.3042827  21.1646986
  64.2736485   5.9577900  20.6144428  54.8235703  56.2682676  42.3426390
  54.3758154  56.4037800  41.5075445  55.7526112  56.2380981  42.1141434
  20.3520557  21.6784530  43.0925274  20.2855179  20.8411937  43.5516548
  21.2609312  21.9501548  43.2203770  69.5263815  31.6787362  29.9150300
  70.1453447  31.1028695  30.3639078  68.8221931  31.8141866  30.5490685
  67.8717756  44.3958092  15.3507268  68.6697435  44.4140959  14.8223853
  67.4735785  43.5479116  15.1538956  71.4527228  32.0676475  65.8602762
  70.9935429  31.2338501  65.7594204  72.2692921  31.9516807  65.3744745
  83.5243702  49.6104574  52.2027254  84.0294838  50.3458738  51.8559551
  83.8896656  48.8414860  51.7651558  23.2500860  25.3151565  27.5512552
  23.4372255  25.9286361  26.8407249  24.0435049  24.7848087  27.6249862
  80.8708763  39.3775845  46.6696692  81.0361385  39.8306704  47.4964905
  81.5573502  39.6934271  46.0821104  10.0583193   9.2046219  19.2867577
  10.7135078   9.5084339  19.9149764   9.3032762   8.9661556  19.8246014
  16.1764830  73.2589388  57.9800606  15.8330458  74.0245628  58.4406090
  17.0385093  73.1120014  58.3693600  11.8987960  76.8946838  30.0024915
  12.5368708  76.5352106  30.6188297  11.5932292  77.7013731  30.4173517
  43.7810251   3.1733280  32.8197122  44.4530126   3.4992462  33.4184217
  43.3601400   3.9628177  32.4794221   1.6070861  66.3637352  33.1021547
   1.3283271  65.4803610  32.8609467   1.7508620  66.8062973  32.2656727
   1.7221659  39.9027920  32.9059863   1.8929976  39.2693520  33.6029816
   1.3347071  39.3843031  32.2008085  11.3618681  16.0573536  33.4961557
  12.2700998  16.1353641  33.7881494  10.9506294  15.4843002  34.1432452
   6.8801662   2.2876220  63.0228233   7.4687788   1.9432026  62.3511505
   6.1015913   2.5646454  62.5398016  51.1587595  41.9519831   2.6899985
  50.5193686  41.5451933   2.1052530  51.3467812  41.2792612   3.3444622
   4.2029399  78.2902718  21.3668203   3.8316459  78.8485479  20.6836700
   5.1380652  78.4946108  21.3611484  41.8717623  61.2473154  11.6239738
  41.7362022  60.9163237  12.5118363  40.9910250  61.4430189  11.3042402
  57.5382805  69.8119736  31.0555720  58.3708143  70.0289679  30.6360078
  56.9852209  69.4959068  30.3411078   6.2892264  58.5229111   9.6016419
   6.1613959  58.6001444  10.5471194   6.3402957  59.4272709   9.2921883
   1.2739104   5.6597376  34.3747830   1.3060206   5.7865030  33.4265590
   2.1920604   5.6324565  34.6440053  66.6143510  26.1127738  57.3265585
  67.5607392  25.9866409  57.2581467  66.2749097  25.8469991  56.4719412
  24.9840257  63.5643060  51.5416861  25.4311607  62.7658314  51.2610817
  24.8429773  64.0566356  50.7330179  24.1480732   2.9847604  55.3350353
  23.9158130   3.7662140  55.8366489  24.1042209   3.2651499  54.4208717
  27.9510352  75.8819771  29.9020386  28.6099240  76.0105807  29.2197204
  28.0836866  76.6141704  30.5041409  28.7799022  60.8800716  30.1750517
  29.4146678  61.2418789  30.7934332  28.0812833  61.5334303  30.1391625
   3.7798021  57.2804636  45.1969624   4.2579934  57.5559182  45.9790659
   4.2514393  56.5069932  44.8878765  68.7457275  19.3103051  24.8607445
  69.3708992  20.0097466  24.6705484  68.8440228  19.1498780  25.7992721
  57.4759801  67.9024798  13.1069803  58.0902915  68.6277205  12.9934895
  58.0183254  67.1744556  13.4104156  36.6846991  13.8678968  23.4200954
  36.7015672  14.6266484  22.8367925  35.8747268  13.4103811  23.1945801
  21.9209361   7.4847728  59.7829533  22.6678944   6.9244409  59.9934626
  21.4437318   7.5679445  60.6085348  76.4723507  72.3899943   1.3650672
  77.3966673  72.2279156   1.5537539  76.4551261  72.6267279   0.4377635
  80.3426826  26.3218570   6.9893813  80.2764893  27.1747327   6.5599030
  80.6005335  25.7210183   6.2902832  13.3068988  17.8176064  20.7463670
  12.9036662  17.3334498  21.4669442  12.9477975  18.7017245  20.8212924
   6.1613223  71.9540489  41.9736671   5.4331920  71.7034621  41.4051008
   5.7523200  72.4529809  42.6807833  81.3709262  67.7888150  10.3127718
  82.0236924  67.0895118  10.2795267  81.4546350  68.1528968  11.1940598
  31.8544862  80.2408912  28.4366655  32.5650260  80.6302818  27.9270220
  31.1076781  80.8210486  28.2885861  26.1030817   8.8215905  25.7538366
  25.5101752   8.6203551  26.4778543  26.3690734   9.7282434  25.9070063
  82.9885009  53.6082191  24.7455597  83.5905102  53.9849300  24.1037631
  82.5432947  52.9051871  24.2725158  49.9179363   7.9045141  41.1399221
  48.9630318   7.9390323  41.0834408  50.2208233   8.3248448  40.3350544
  17.4845612  13.5696459  44.8021412  18.1206417  13.2516444  44.1614342
  16.6824365  13.7034261  44.2972374  18.5665619   5.3050053  24.3661880
  18.5674632   5.5036199  23.4298205  18.7705469   6.1395645  24.7882438
   2.3893617  14.2901647  40.3150749   2.8034884  15.0113535  39.8411345
   3.1115127  13.8560748  40.7692719  74.8354593  73.8628930  42.3089743
  74.6009949  72.9413850  42.4188900  75.3111306  73.8916380  41.4788294
  62.9773426   2.7957112  29.3729734  63.7863350   3.2571241  29.5940232
  62.2795630   3.3872634  29.6547556  59.6201683  27.9495071  61.3896641
  59.0603614  27.2233211  61.6644427  59.2068267  28.2824360  60.5930844
  20.1754355   1.7985852  12.0235908  19.7879601   1.5354078  11.1888266
  19.4268048   1.9188054  12.6078260  49.3306637   9.2491764  15.2207184
  49.3388891   9.2471242  16.1778808  49.6069193   8.3657283  14.9769282
  21.2322566  70.5256004   0.5912689  20.3350351  70.1951248   0.5464639
  21.7747543  69.7389418   0.6469501  23.0500028  49.0552110  16.4290857
  22.7119252  48.8529748  17.3014581  23.9501283  48.7297959  16.4396787
  22.7498386  79.3779217  20.4830313  22.6657626  80.3145347  20.3043723
  23.5273788  79.1095631  19.9934912   3.4395287  66.1263496   4.2351392
   4.3300745  66.1037583   4.5853543   2.8958604  65.7751066   4.9403232
  64.6055412   4.0595019  21.6157246  65.2223873   3.4068638  21.9470787
  63.8136959   3.9269918  22.1369314  57.2225269  65.0874693  14.4183600
  57.3943504  64.3801016  15.0399220  56.2767429  65.2260203  14.4686425
  62.1943593  10.4756759  59.4611677  61.6750598  10.0987457  60.1714387
  61.9134570  11.3897155  59.4180795  19.9380109  70.4555470   4.8912776
  20.0710818  69.8237438   5.5979234  20.7755658  70.9131486   4.8182541
  74.3820396  68.0810816  33.5344410  74.4153646  68.1656927  32.5815701
  74.2975894  68.9801413  33.8519192   6.5084404  42.5821382  25.2013847
   6.6920275  41.6660863  25.4096529   6.2292857  42.9655036  26.0328457
  85.2003125  68.7453098   4.1711032  84.8806790  69.1566426   3.3680648
  86.0245088  68.3306641   3.9161482  26.0567117  12.5857639  32.4310589
  25.1930809  12.8466475  32.1111917  25.8801484  11.8676555  33.0388236
   2.5502702  19.9787947   6.0964421   1.8098709  19.3908807   5.9467867
   3.2251665  19.6730753   5.4904011  21.3900638   2.1980610  21.5508008
  21.9974113   2.7849758  21.1003661  21.5632486   2.3421985  22.4811029
  14.6702621  74.5611168  17.7613974  13.8255450  75.0078804  17.7058136
  14.4540689  73.6755127  18.0532861  52.2068024   0.1762313   2.0397198
  52.6567221   0.9298549   2.4216293  51.3115501   0.4812170   1.8922669
   2.7919048   2.3428406  28.7216783   2.3713510   3.0786997  29.1665125
   2.8302765   1.6528402  29.3839908  16.3083851  31.3038492  26.3799286
  16.7328906  32.1568727  26.2883782  16.4474905  30.8752275  25.5354381
  59.8940563  31.3577461   6.3234693  59.3745995  31.8281865   6.9754505
  59.3139076  31.2793612   5.5661631  36.1194701  27.8814779  63.9017281
  35.8635611  27.5161491  63.0548057  37.0683188  27.7606283  63.9378491
  12.6632780  60.8401559  60.6865397  13.1971449  60.7302903  59.8996815
  12.0356030  60.1182698  60.6528315  58.6291481  42.4511124  68.8586537
  59.1023374  42.4786435  68.0270486  57.8751851  43.0253352  68.7243399
  53.4856964  38.8053921  59.5995578  54.2911077  38.4594871  59.9841282
  53.1781865  39.4550151  60.2317437  27.4938560  23.7872243  34.9723959
  26.5812683  23.5660243  34.7866869  27.8457308  23.0090523  35.4046750
  81.1652401  80.4861558  23.3525825  80.9966687  80.4073825  24.2915225
  81.4802602  81.3830211  23.2402110  79.9748254  40.0999267  64.4361016
  79.0729118  40.0655640  64.7548595  79.9726272  39.5515783  63.6515370
  83.8130403  80.5582450  57.1943685  83.7252450  80.4603122  58.1424901
  82.9328037  80.7851766  56.8944976  29.1160533  66.0603601  15.8749664
  30.0661800  66.0420567  15.9896743  28.8505218  66.9159061  16.2122571
  10.3761384  65.1976127  18.7074935  10.4295370  64.5591134  19.4186187
   9.4433806  65.4008777  18.6376476  23.1159205  74.4793819  61.2611559
  23.0217463  75.4186891  61.4194694  23.9297641  74.4007896  60.7634476
   4.8676994  16.0697806  24.3399596   5.1829928  16.8865967  23.9531350
   4.4765896  15.5932879  23.6076903  17.6144693  79.0920047  20.2447772
  16.8342921  78.9268813  20.7742000  17.5665090  80.0239611  20.0317311
  25.8392286  30.3194666   1.4235497  26.6077828  30.8281755   1.6819556
  25.1008797  30.9115553   1.5667346  14.6714294  42.7303123   6.1331588
  13.9252996  43.2229805   6.4749187  14.9982166  42.2376537   6.8859744
  34.6806142  41.8450899  13.9095545  34.2052886  42.4156088  13.3055615
  34.6861837  40.9908075  13.4778118  25.1772404  12.6995432  19.4949830
  25.5523825  11.8697107  19.2002296  25.8786702  13.3382452  19.3673515
  37.2479844   2.5148362  49.5929527  38.0355954   2.8412804  49.1578293
  37.1913028   3.0256563  50.4004717  59.7486925  17.9846048  32.8234816
  60.5635309  18.3039117  33.2111835  59.8925257  17.0459867  32.7028966
  58.2342672   3.3666915  43.8172102  57.6681566   3.9476582  44.3253756
  58.1467772   3.6755705  42.9154539  63.0693579  51.5810251   0.2455700
  63.4518957  52.4497366   0.1221552  62.4787331  51.6832209   0.9918606
  23.9909315  12.7323377  40.3703260  23.4875560  13.4931362  40.6602001
  24.2972255  12.3249471  41.1805391  13.5457969   1.2632915  15.0470877
  14.3930364   0.9084213  15.3163147  13.5279894   2.1464831  15.4157174
  45.8551884  24.0453959  22.0831180  45.5676937  23.4843922  22.8034329
  45.9954214  23.4435844  21.3520980  48.9034557  40.0170565   8.2033539
  48.4069633  40.8117104   8.0077672  49.7358274  40.3347445   8.5533023
   5.8298180  78.8219885  26.9247890   5.5565545  79.7392498  26.9386101
   5.7391617  78.5588402  26.0089469   2.9807017  76.2249089  35.9941483
   3.5792992  76.7026535  36.5683198   2.4256465  76.9031206  35.6092143
  13.4975338  12.5679994  28.4028888  14.0290368  13.1393266  28.9572549
  13.2134306  11.8646073  28.9866328  77.5881294  62.9629022  40.4515934
  77.2497514  62.7786905  39.5753551  78.3598450  62.4024958  40.5330372
  38.1198788  21.1568022   5.5589110  39.0061092  20.9781480   5.2444094
  38.1311679  20.8820462   6.4757609  54.7861624  58.5644661  69.9158597
  54.5853234  59.2672585  69.2978152  54.6167040  58.9469503  70.7768023
  50.0035000  30.2698112  13.9508152  50.5669260  31.0268474  14.1110718
  49.9772263  30.1883459  12.9974508   7.8271979  21.4582705  34.6049023
   7.0200759  20.9863162  34.8099494   7.6024610  22.3808432  34.7256660
  49.9378872  24.3119001   8.9767236  50.5386734  24.4257355   8.2402927
  49.4977331  25.1578355   9.0597188  85.2929905  51.8085832  17.2304678
  85.0466827  52.2148175  18.0614543  84.9149731  50.9301657  17.2719526
  42.4461651  14.0795636   9.3646652  41.9642162  14.9065518   9.3718249
  41.7689610  13.4084177   9.2798799  44.9787760  10.2266300  17.9954827
  45.1826286   9.2969799  18.0975819  44.4473982  10.2694070  17.2004724
  22.5096893   2.7672207  17.7862585  21.9219708   3.4380335  17.4386537
  21.9791651   1.9707298  17.8057146  73.5415712  52.3399896   5.1087111
  72.9762903  52.7276201   5.7768667  73.4955719  52.9501910   4.3726605
  24.8080680  73.7202144   0.6551784  24.3438861  74.4612569   1.0445686
  24.4656846  72.9542554   1.1159538  37.6981378  10.8936274  18.0925703
  38.3587599  11.1076057  17.4337649  36.8860602  10.7975507  17.5950444
  53.4636641  13.7285960  16.7308247  53.6293125  13.7170887  17.6735127
  52.5386906  13.4969068  16.6473329   1.1826510  56.3862227  65.1436829
   1.4863390  57.1672414  65.6062999   0.2776093  56.2726735  65.4339296
  37.4205899  36.3448477  14.0684068  38.1341934  36.9447517  13.8513458
  37.4466419  36.2770391  15.0228465  31.4694357   9.7164488  37.5420856
  31.4292598   9.2873573  36.6873932  32.3899508   9.9574298  37.6460719
  38.4640357  78.3969027   9.0430272  38.5425803  78.7715418   8.1656975
  39.2336175  78.7203636   9.5113695  83.0558899  65.3843886  32.3875761
  83.5867623  64.9749345  33.0707717  82.6932004  66.1668748  32.8027916
  34.7862196  42.6095247  20.7173824  34.7431016  41.8814850  21.3373280
  35.7055950  42.8758669  20.7242966  59.5680929  51.8189226  34.5369193
  58.8623810  52.4111341  34.7967073  59.1190839  51.0303305  34.2323777
  24.6375012  12.4162269  22.1560097  24.9159956  13.2467473  22.5418973
  24.8417306  12.5042748  21.2250042  12.9980228  70.6308586  21.2333703
  12.3599336  70.0438923  21.6390133  13.3830878  70.1138503  20.5257988
  82.0529390  21.5574502  48.1788608  81.7120004  22.0162223  47.4110576
  81.8165088  20.6411432  48.0349323  39.8998380  77.9272674  52.0358178
  39.1875184  77.7237366  52.6419601  39.7402609  77.3617815  51.2801787
  65.9588191  54.5781321  33.7545729  65.1745656  54.8504776  33.2781219
  66.4109209  55.3965873  33.9594245  49.3065929  26.5397477  22.3947096
  49.5494938  25.6412959  22.6183534  49.9817705  26.8241119  21.7786694
  61.3375998  13.6262238  10.9535778  61.8122911  14.1364133  11.6097856
  61.8777514  13.6876202  10.1657343  25.5151296  61.1551809  26.6995335
  26.3370323  60.7706690  27.0042586  25.7338548  62.0671654  26.5080142
  73.1541300   2.2900628  23.7605333  73.1685305   3.2399487  23.6433101
  73.2158422   1.9381815  22.8725004  44.1273880  14.6589792  16.1846066
  43.4115410  14.6723485  15.5492997  43.6928463  14.7071981  17.0361221
  39.0306091  11.5430117  14.7170520  39.7516966  11.0298002  15.0815785
  38.5995221  10.9481692  14.1034079  13.6797094   4.6166143  26.7177820
  13.1782651   3.8116068  26.8471956  13.5234118   5.1265442  27.5126243
  53.0464458   9.1240168  18.1793475  53.3130169   8.2075256  18.2515752
  52.0897150   9.0952408  18.1710541  18.2258889  23.7598590  55.5398819
  17.3526714  23.4578733  55.7899389  18.2308671  23.7130050  54.5838424
  53.0389214   3.8510263  38.1558204  53.0438566   4.6618879  38.6644578
  52.6683140   3.1980899  38.7495852  22.8142926  41.7620010  21.4691210
  23.1291148  42.4242539  20.8538675  23.3027789  41.9318909  22.2745728
  63.8859749  43.7192182  69.6603005  64.1461468  43.3454596  68.8183698
  64.2244459  44.6143441  69.6398237  65.5530787   6.9738662  17.5193787
  65.8426762   7.5401807  18.2346761  66.2265205   6.2959880  17.4629033
  32.3043489  30.3805828   4.5532036  33.1767440  30.2545595   4.9263999
  31.7376256  30.5221796   5.3114951  54.3555546  34.4239354   7.7962345
  54.5881271  34.0183210   6.9610000  53.6209154  33.9023399   8.1194592
  40.4092357  76.0295389   1.0985146  41.2125680  76.0766626   0.5801873
  40.4205129  76.8251220   1.6306347  17.5783050  16.9506335   0.5467431
  18.3263016  16.9021058   1.1420397  16.9033825  16.4169705   0.9661657
  37.9434490  27.2817183   8.3703744  37.6813579  27.5170851   7.4803513
  38.2538676  26.3791585   8.2978696  40.0023317   8.2844853  10.7234716
  40.1814365   7.8538287   9.8875958  40.0251341   7.5765836  11.3673556
  24.8215005  77.6835412  43.6068249  24.8095271  78.3461625  44.2974901
  23.9395330  77.3116905  43.6163425   3.2328505  77.1672391  69.6755678
   3.6175484  76.5411900  69.0621326   2.4313540  77.4635576  69.2442550
  75.2709452  67.0971686   4.9830830  75.6601516  67.9611976   4.8481649
  75.2057377  66.7239422   4.1040593  47.4619150  26.9829726  52.9765272
  47.2429657  27.6044631  52.2822332  48.0949497  27.4481130  53.5234690
  52.1240139  20.6478381   3.8318929  52.1045494  20.1135421   4.6258590
  51.2385464  20.5787635   3.4749457  59.7757888  66.3095044  64.6884403
  59.0148950  65.7288240  64.6975574  60.0188184  66.3713621  63.7646750
  58.4354353  26.3680887  14.1079998  58.9490938  25.7649493  14.6452200
  59.0002489  26.5631843  13.3602333  56.9737077  70.1005100  58.3604750
  57.3223329  69.2210935  58.5064813  56.4517189  70.0217079  57.5620076
  56.4756393  27.4437380  19.5322251  56.0870361  28.1797767  19.0595043
  56.8796062  27.8410316  20.3037167  29.9573040  24.3937802  28.6560249
  30.2986598  24.9338818  29.3687630  30.5718589  23.6625290  28.5941625
  27.8179193  16.6497886  17.6541090  27.5883245  16.7946625  18.5720026
  28.7112570  16.3071382  17.6818752  68.7147048  76.9981406  12.8248048
  68.8314787  77.1145800  13.7676930  69.5055655  77.3732168  12.4373925
  72.2567776  66.7435140  19.9473608  72.1400407  65.9018809  19.5066130
  71.5876618  67.3099548  19.5630944  37.3118114  23.7345219  41.4577532
  37.0731163  23.6804199  42.3831320  37.3321009  22.8243756  41.1620283
  73.1457213  59.5506210   7.0737225  73.5805264  58.7481994   6.7851150
  72.4057320  59.2463750   7.5991571  11.6024673  48.7565708  18.3186221
  12.4371207  48.4058046  18.0078971  11.6532731  48.6865997  19.2719090
  19.0672016  12.9525924  66.7939472  18.6128879  13.4366512  67.4835253
  19.4238579  13.6308384  66.2203550  82.3213125   5.9187172  44.1919610
  83.2453895   6.1662053  44.1593978  82.2696901   5.1167058  43.6720130
  59.2546225  15.2211523  36.2644625  59.2513323  15.7206273  37.0810080
  58.3321810  15.0260484  36.0993195  71.0058880  14.2744410   3.3280319
  70.2548122  14.8328793   3.1273776  71.1314106  14.3718839   4.2719501
  29.4733644   7.3769552   9.9777901  30.1620817   6.7160505   9.9063385
  28.7873030   7.0731688   9.3834287  37.7089402  79.2840674  17.7833831
  37.9546163  79.9057988  18.4684551  38.3617017  78.5869018  17.8473449
  15.4317093  15.0595987   5.3165275  16.2573457  14.5860159   5.4178983
  15.4663432  15.4138827   4.4279805  69.9327398  59.9033521  65.4229054
  69.1669775  60.0549720  64.8689631  70.5503726  60.5898188  65.1708621
  85.6111267  20.9196520  20.6970406  86.4065265  21.3714623  20.4151917
  85.0157417  20.9952116  19.9513602  53.1139851  10.4053807   8.6131138
  53.1133747   9.5168239   8.9690620  53.7418652  10.3738141   7.8913087
   2.9558346  59.2900986  37.9418874   3.6718294  59.6074695  38.4922147
   2.3502752  60.0293536  37.8868270  25.7414815  55.6913514  21.0197210
  25.1215360  56.1735458  21.5668869  25.7183978  56.1433238  20.1762629
  39.6781230   3.8149458  28.3915806  40.3685379   3.6588368  27.7472281
  39.2246652   4.5951882  28.0724740  68.4963489  55.7372521  42.2419354
  69.2062402  56.2817656  42.5822088  67.7192212  56.0330890  42.7160522
  38.7689662  25.5030060  12.0694065  39.5830607  25.5487609  12.5707924
  39.0329432  25.6830382  11.1671102  35.0765967  51.3710165  18.7646139
  34.2128778  50.9867382  18.6144507  35.6807256  50.7907772  18.3013833
  37.7351737  18.0935431  11.9793046  37.9354286  17.1576452  11.9942987
  38.5828614  18.5177553  11.8462658  16.9579768   1.1595565   4.2323393
  16.2302065   1.1087504   4.8520184  16.5475786   1.0656841   3.3726922
  80.5471957  13.8094091  28.0620718  80.2184433  14.3663585  28.7677360
  80.8537126  14.4237614  27.3951030  37.1055532  16.6012228  46.0723734
  36.8902540  17.5184846  45.9035349  38.0597734  16.5632546  46.0071754
  75.6240168  62.4731857  31.0847735  75.4671625  62.8210396  31.9626284
  76.5650192  62.5831372  30.9481835  12.5770259   5.7717168  23.1368256
  13.4502566   6.0511363  23.4118223  11.9811726   6.3710755  23.5862255
  55.8480930   4.6898955  20.2368236  55.6319427   3.7682799  20.3787279
  56.3648653   4.9356043  21.0041595  64.7717142  43.7230110  18.8940859
  65.5833626  43.5588932  19.3742120  64.1720772  44.0765429  19.5511103
  54.5099783  25.6965876  20.2073526  55.1171923  26.4101577  20.0115514
  53.8901711  25.7025790  19.4779444  16.1421967  22.8509879  43.6901331
  16.1591518  22.4628830  42.8153086  16.0316122  22.1058059  44.2806482
  73.1259635   1.1071662  69.1719928  74.0315345   0.8236388  69.2976282
  73.1386331   1.5900592  68.3456230  23.7516665   8.7090778  18.6170268
  24.2434859   8.2235628  19.2793119  23.2333350   9.3391103  19.1176486
  14.9725959  80.7784056  21.1537099  15.0362441  79.8995034  21.5274882
  14.6980712  81.3306869  21.8857288  36.7286897   7.5653780  34.9929905
  37.1874976   7.4226612  35.8208537  37.4055409   7.8840929  34.3958902
   6.4705843  42.1570736  50.5820808   5.7368941  42.6992129  50.8719346
   6.4065928  41.3634909  51.1134598  12.1948907  55.7538838  14.3209946
  11.9745013  56.0799546  15.1935422  11.8866393  56.4367122  13.7252128
  73.4286574  77.2585637  36.2107992  72.4714580  77.2594804  36.2104750
  73.6676052  76.4876658  35.6961608  23.7206078  26.3329530  64.2122507
  23.7906528  26.0044622  65.1085854  22.7920175  26.2455940  63.9970255
  34.5953798  16.8028259  35.3461480  34.2837024  16.1455834  34.7239590
  34.8761654  16.2967432  36.1085606   5.1848862  19.1637305  48.8717696
   4.4895503  18.7457732  48.3637831   5.6253979  19.7392968  48.2465455
  64.3505192  40.0952412  60.6884018  65.2742792  40.3317091  60.6048664
  63.9962698  40.1975401  59.8050699  19.3305156  67.9630656  17.4867058
  19.7487304  67.6747937  18.2980180  18.8888023  67.1816868  17.1541834
  68.1982642  20.4694533   2.7121115  68.3171397  20.4290056   3.6610395
  67.5188130  21.1313629   2.5838432  84.9322085  29.4144082  48.2005739
  84.8408800  29.0656710  49.0872955  84.6266176  28.7072563  47.6324320
  56.4805198  69.2298482  55.5737945  57.1022058  69.7592281  55.0742981
  55.8859754  68.8725899  54.9141630  74.4852806  52.2358345  60.1172969
  73.9124084  51.8812846  60.7972571  75.3657079  52.1685778  60.4868266
  58.4451675  35.2757621   5.8334595  57.6606703  35.8065462   5.6953871
  58.1657600  34.3807507   5.6407988  35.1203060  25.2598619  33.9590144
  36.0101962  24.9389648  33.8128757  34.5771337  24.7362995  33.3698821
  20.2840066   3.9792624   7.9333425  19.4367278   3.6849725   7.5990623
  20.9268832   3.4840935   7.4256510   6.0985345  33.2108116  42.9666805
   5.6886464  32.7544737  43.7015104   6.9956315  32.8774905  42.9480886
  29.5562482  15.3989065  27.6855111  30.2644157  15.1931977  28.2957673
  29.4043732  14.5817995  27.2106385  70.2851200  10.7060349   9.4723982
  70.3905487  11.0564506   8.5879064  70.6124735  11.3994455  10.0453317
  21.6438338   0.5662708  65.8748680  20.9307143   1.0675220  66.2703827
  21.7352054  -0.2038356  66.4359537   7.4263186  60.0047492  64.7485730
   8.3308119  60.1933287  64.4984564   6.9385380  60.7870554  64.4910815
  22.4268675  34.9870515  31.2289977  21.7246532  35.2900791  31.8045878
  22.9007745  34.3388915  31.7500877  64.2443609  29.6224117  25.7240176
  64.1478014  28.7460732  25.3512740  64.3194723  29.4747543  26.6667724
  40.3101826  20.0549936   9.7819078  39.5010209  20.2562189   9.3118030
  41.0012484  20.4464555   9.2476630  50.0301218   3.7292203  42.2135353
  49.2391586   3.4420893  42.6697874  50.7457018   3.4966174  42.8052044
  76.0797548  12.4992561  15.2230942  77.0140153  12.3973870  15.4047835
  75.9035802  11.8763924  14.5179439  79.7025753  71.2508415  59.8599371
  79.9598909  71.8630956  59.1706154  80.5286718  70.9807085  60.2609667
  58.5153316  71.7791969  25.4581022  58.5305971  71.2858368  26.2782216
  59.3602178  72.2283871  25.4330492  30.1163840  13.7511301   8.0502713
  30.0219107  14.0529013   7.1468109  29.3901825  14.1637802   8.5177988
  41.0797691  14.9832284  27.9369664  40.1426697  15.1781845  27.9287124
  41.1270046  14.0307951  27.8540659  24.1532063  13.7698507   9.7655928
  23.3089805  13.3676910   9.9699998  24.3045402  13.5544777   8.8452971
  39.3380499  55.2966499  18.7861943  39.5727825  54.4871283  19.2398536
  38.4119439  55.4259491  18.9907527  67.6995054  52.7041263  24.5878386
  67.0935396  52.5452346  23.8641047  68.5280720  52.9248542  24.1624141
  73.3993128   4.1522578  47.1235558  74.3396452   4.3302755  47.1057221
  73.0242852   4.8930959  47.5997302  77.3217893  57.8907548  63.8577613
  77.5144697  58.2645498  62.9978880  76.3703180  57.9559611  63.9395210
  78.5210491  40.6063737  57.8923806  77.7029872  41.0379181  58.1389102
  79.2026115  41.1184448  58.3276877  53.7000585  40.7025922  61.4252976
  54.0337730  41.5661466  61.1821112  53.3089185  40.8315898  62.2893581
  40.8256292  11.7646289   8.8204592  40.6262493  11.1999679   9.5672113
  39.9918604  12.1840572   8.6079913   9.1858289  74.5216150  45.9766722
   8.8837883  73.6381811  45.7656097   9.3910072  74.9137503  45.1279306
  31.1397433  21.7996573  13.8156664  30.4691243  21.2675428  14.2438662
  31.3484430  21.3216233  13.0130708  23.5661933  62.0912558  15.0595009
  23.5543868  61.9926566  16.0115361  24.0381286  62.9103822  14.9093771
  53.0224323   0.6111929  21.9629478  52.8608847  -0.2248646  22.4001455
  53.6708546   0.4076374  21.2888980  72.6376606  45.6356196  61.4626422
  73.5713029  45.4264934  61.4910403  72.3962808  45.7785456  62.3778149
  60.9493473  33.6171200   4.0005997  60.9139660  34.0103324   4.8725918
  61.8818167  33.4707334   3.8415316  57.8525877   9.9603222  70.2081202
  58.4854222  10.6179379  70.4967280  57.8348113  10.0470875  69.2550266
  58.8957548   2.2324845  23.3692455  59.4570351   2.0962697  24.1325569
  58.0958462   1.7467800  23.5704088  17.8371644  11.2533069   9.6290308
  17.9444599  12.0985651  10.0652158  16.8895268  11.1409545   9.5542520
  21.8294287  42.1205378  16.7869008  22.6687002  42.4234819  17.1334231
  21.4227009  41.6547823  17.5175703  80.7366279  55.3567023  22.4727964
  80.2512720  54.6472139  22.8938508  80.1935175  56.1328525  22.6100874
  70.1382471  48.3539413  51.9206187  70.2963949  47.4467884  52.1819493
  70.2227664  48.3467375  50.9671840  85.3774095  47.8466706  51.0681245
  85.9929204  48.2805883  50.4772839  85.2243877  46.9906484  50.6680700
  25.2343559  32.0842028  18.8475990  25.8195138  31.8951750  19.5811450
  24.8650026  31.2335610  18.6104965  32.6388836  28.2594848   1.6322009
  32.8342700  27.7945638   2.4457759  31.6896081  28.1839561   1.5352234
  69.2923999  76.5003108  54.4132313  68.5637546  75.9217857  54.6382114
  69.5764518  76.8648194  55.2514908  31.8111253  14.8793244  39.4022298
  31.9828200  15.1215875  40.3122091  32.5598550  15.2257168  38.9167976
  33.9387405  15.9142588  62.4855301  33.5330791  16.7515205  62.7106193
  34.8142201  15.9613489  62.8696516   0.3554985  75.5897505  27.7095652
   1.1278770  76.1056001  27.9410005   0.6287286  75.0777156  26.9483829
  34.7681046  45.8985233  21.7623949  33.9236975  45.9529877  21.3149095
  34.5552611  46.0058928  22.6894331  66.1166525  52.8845619  38.3464667
  66.0624147  53.3204912  37.4960205  65.3330732  53.1735478  38.8141462
  85.0824333  80.6729816  64.7977719  85.2835107  80.4042719  65.6942069
  85.8765626  80.4705118  64.3032059  18.1240270  63.9033825  56.5883827
  18.7329242  64.1945559  57.2671270  18.1665942  64.5866007  55.9193277
  38.7572885  26.4466476  47.4255562  38.7770200  26.2411785  46.4908791
  37.8301287  26.5813684  47.6216507  47.3203421  14.2318487  32.2364283
  47.1617079  14.2145264  31.2926221  47.5659895  15.1383078  32.4214149
  19.0283358  31.7708325   5.3786552  18.1468117  32.1386933   5.4405034
  18.9037216  30.9195089   4.9591935  44.9456310  33.4740353  11.5751195
  45.8281994  33.1393766  11.4160359  45.0496006  34.0875196  12.3024845
  29.3663261  18.2331638  67.8842057  29.4784734  17.4629525  67.3270428
  29.8309753  18.9317683  67.4234685  36.1689133  69.9004053  69.4659679
  35.7475788  70.1307820  70.2939988  36.3840855  70.7422184  69.0643679
  23.3811069  47.6181650  23.1569767  24.3338466  47.6393509  23.2468247
  23.0828643  47.0846844  23.8936448  13.9656967  42.7786310  60.8720907
  13.4134812  43.5530670  60.7646617  13.9230866  42.3347223  60.0251195
  55.2391863   1.1489061  52.0988941  56.1087084   0.8075820  51.8899488
  54.7514820   0.3868583  52.4114037  61.1769724  13.3359969  20.4528451
  61.9828796  13.6370468  20.0331903  61.4489412  12.5883496  20.9850955
  46.9509935  26.0371971   0.9349064  46.2371874  26.6662383   1.0398573
  46.5125942  25.1928687   0.8293287  52.1123791  21.5614724  27.7759004
  51.9632769  21.6495562  28.7173033  51.2369156  21.5964198  27.3904419
  12.4704549  53.9574451   9.3532550  13.1093404  54.6504683   9.5199156
  11.8778464  53.9923734  10.1041389  41.7291212  55.8201551   9.2647952
  42.3371887  55.8749676  10.0020051  42.2826481  55.9177399   8.4899932
  40.3488445   6.0209614   1.2192890  40.7348919   6.6776735   0.6396978
  40.7748270   6.1669183   2.0639589  40.2433062  18.5197079  39.5579982
  40.0894451  17.9530573  40.3139544  40.7871056  17.9940081  38.9713502
  63.3964252  13.3767462   9.2204624  63.0502462  12.5732768   8.8320947
  63.3871031  14.0121174   8.5046083  31.5530157  10.6982589  51.7494249
  31.3946056  11.5847349  52.0739222  32.3483396  10.7747102  51.2223148
  42.7845001   0.6880730  35.8394122  42.1004009   1.3434000  35.9764910
  42.3108435  -0.1401815  35.7627487  55.3681899  67.7810572  47.4770996
  55.9282613  68.3249591  46.9232771  55.4678250  68.1503891  48.3545372
  40.9397173   7.6074368  19.2493296  41.7630482   7.8375041  19.6799421
  41.0752153   7.8436059  18.3316708  44.1612053   0.3948329   7.3475569
  44.3491125  -0.3991111   7.8481323  43.4375668   0.1489699   6.7712510
   8.4990591  67.2647260  63.3096686   8.3103413  67.2400569  62.3715803
   7.6661391  67.5054310  63.7152919  42.8616810  29.3343163  41.7888451
  42.1373320  29.0213370  42.3306847  42.6845741  30.2671695  41.6678095
  41.1995543  76.1675356  54.1605648  41.1597443  75.4937695  53.4818265
  40.8493901  76.9526194  53.7395427  81.4475587  75.4438621  24.1712213
  81.3670877  76.0746295  23.4557581  81.4893535  74.5922655  23.7361717
  31.5574360  12.5754118  17.7288938  31.4454865  11.8930387  17.0670271
  32.4959803  12.7633750  17.7227437  34.0551662  41.8497801   3.3652884
  34.7053266  41.3692141   3.8777140  33.8477898  42.6162624   3.8998288
   1.3512629   3.2926163  19.1287315   1.0229892   4.1582796  18.8856411
   0.6074923   2.7065051  18.9890718  16.8282557   4.0655759  26.7193413
  17.2950828   4.4465989  25.9756160  15.9228766   4.3555677  26.6078734
  60.6720353  59.1053186  67.5220320  60.1794291  59.9234866  67.5866190
  61.4311743  59.3248116  66.9818807  20.1780200  30.7566738  10.0810051
  19.5914590  30.6606579   9.3306994  20.0039840  31.6386414  10.4097545
  62.9598665  38.8425994   8.1130064  63.8093615  38.8030100   7.6736665
  62.3346901  38.5429215   7.4530190  70.8888483  22.7740002  10.3757191
  70.6546402  22.0063257  10.8973074  71.4482260  22.4291110   9.6797448
  28.8422418  56.8118715  27.9075980  28.4392667  55.9820080  27.6523137
  29.2502832  57.1368790  27.1050358  57.8783417  61.1622286  10.6369543
  58.3917761  61.1055470   9.8310983  57.1564054  60.5477810  10.5046964
  74.9529123  13.5667384  19.9105775  74.5571136  12.7046824  20.0387812
  74.3512869  14.1731441  20.3424954  54.5550156  25.1867986  26.2069511
  54.6953154  24.7404122  27.0419860  55.4365206  25.3761983  25.8855367
  76.5426922  15.9457362  11.6990626  76.3859272  16.6511929  11.0713780
  76.8480730  15.2128732  11.1643767  80.7246709  70.9724115  69.2319819
  79.8096300  70.7324909  69.3781776  80.7103277  71.9247745  69.1369469
  46.2171745   9.9489003  34.5528579  45.9108925   9.9660778  35.4595685
  46.8526220  10.6628811  34.5011353  27.0690772  78.9391947  30.9087467
  27.5890300  79.6156765  31.3426280  27.4345777  78.8857376  30.0256920
   9.1540024  46.8666667  49.0151453   9.4621966  47.5436777  48.4127331
   8.4479830  46.4274711  48.5409355  52.8669161  26.8331276  67.5169635
  52.4798197  27.6859091  67.3191017  52.1791930  26.2025474  67.3033339
  74.9731794  76.5928966  11.1718357  74.7556666  76.9927499  10.3297925
  74.8673383  75.6529511  11.0250998  39.3057416  79.4348925  61.7159876
  38.9662860  78.5588854  61.8993142  38.9691422  79.9764412  62.4298921
  23.4718013   6.7270952  16.1762691  23.7809229   7.4621201  16.7058098
  22.6326609   7.0225722  15.8230448  69.9666595  34.3613815  29.1711688
  69.8102379  33.4305406  29.3302226  69.2960310  34.6117878  28.5357261
  46.0827446  23.4707808   5.7266277  45.8887482  22.7245355   6.2938285
  47.0282650  23.4244895   5.5849200  32.3397779  31.3042164   2.0337260
  32.1218729  30.8178115   2.8288114  32.7369046  30.6527662   1.4556831
  58.1371069  35.5398335  67.7718678  58.6900068  34.9306481  68.2611790
  57.2461534  35.3359424  68.0562285  54.8354673  21.4661670   9.3580753
  55.2436590  22.3319316   9.3502402  55.5543756  20.8641505   9.5503771
  76.5088654  34.1930413   4.1367787  75.9048843  34.9187160   4.2943624
  76.0953522  33.4409237   4.5605209  31.7315722   5.0967431   6.4149350
  31.5302396   4.6487588   5.5933470  31.3991642   4.5107958   7.0949364
  74.4586730  77.9303740  66.2258762  73.8661600  77.4082969  65.6849578
  75.3275896  77.5730036  66.0428378  61.3707256  50.4915047  19.6266663
  61.1432171  49.7841072  19.0232944  61.0021687  50.2177334  20.4665756
  29.9522376  26.8511534   1.8195966  29.7082424  27.2309899   2.6636478
  29.2744851  26.1978865   1.6460350  55.0419331  20.7843089   3.7954897
  54.1136265  20.7226229   3.5703829  55.0482845  21.0192084   4.7233975
  49.9294115  54.1729961  65.3814167  49.9370718  53.5624062  66.1185422
  50.8450127  54.2301439  65.1082197  35.6257105  26.6903925   5.0240159
  35.9859657  27.5433064   5.2668852  36.3683629  26.2133670   4.6536863
  24.3495986  17.8975991  39.3383166  24.2987916  18.4852580  38.5844561
  24.1276738  17.0358590  38.9856335  72.5802589  46.6285096  54.6338186
  72.4455762  47.5683223  54.5119771  73.0168176  46.3430743  53.8312158
  59.5847654  36.3665175  15.4023683  60.4939318  36.3534284  15.1032519
  59.2081976  37.1440578  14.9902248  55.3395271  22.7754068  38.0727029
  54.7903061  23.0959773  38.7881207  55.2825165  23.4570003  37.4030662
  35.2152038  33.8911152   2.0038430  35.8098149  33.2227349   2.3443343
  35.1381969  34.5276690   2.7145481  84.4518379  77.1635661   7.0534211
  83.4970167  77.1891171   7.1158564  84.6260718  76.9296191   6.1417508
  29.7199244  77.5283717  33.2602355  29.0345187  77.4238323  33.9201829
  29.9962420  78.4409498  33.3443829  58.1305265  11.0895252  37.2116542
  59.0374899  10.9114981  36.9627380  58.1858158  11.3911653  38.1184006
  36.4785576  18.0069077  55.1400614  37.1767950  17.3585129  55.2310562
  36.7951751  18.7694168  55.6243801  47.3809624  32.2175598   5.2736837
  47.6030016  31.3413882   4.9586439  47.6056004  32.2016382   6.2040138
  20.5841872   4.8004369  52.9048225  20.7334230   3.8697938  52.7378818
  21.4580581   5.1591949  53.0593416  36.6912889  25.7218289  14.3028033
  36.2156963  26.0957742  13.5610425  37.5487566  26.1464143  14.2761457
  36.1442804  30.9001327   9.0477514  36.0342336  30.8820152   8.0970705
  36.6330504  31.7055488   9.2169797  43.4852886   2.4446550  48.7634945
  42.7112007   2.1735555  49.2569780  43.2332563   3.2751742  48.3598280
  34.4327641  39.0788841  13.7108672  34.3747663  38.1333852  13.5733974
  34.1144013  39.2110562  14.6038437  61.2639404  60.4116343  64.5865419
  62.0144511  60.9787892  64.7634575  61.6496897  59.5990346  64.2592671
  14.2363355  51.9039077  17.0562959  14.3095252  52.6535243  16.4655769
  14.7276446  52.1641249  17.8354847  72.0038986  77.2946692   5.9416080
  71.9428682  76.3645458   6.1592686  71.5855932  77.7409029   6.6779017
  10.8972735  59.4793724  68.5434864  10.6614918  58.9342855  69.2941648
  10.1254029  59.4549869  67.9779333   4.3519515  20.1774693   3.8638425
   5.1192111  20.0594044   4.4238532   4.4993609  19.5840502   3.1273931
  35.8933330  11.7614448  10.8685410  36.7508101  12.1132529  10.6293857
  35.2672195  12.3392081  10.4321885  38.7122226  27.6301813  14.5516610
  38.9193654  28.5639644  14.5887554  39.4768071  27.2315669  14.1360271
  57.6870871  29.2770863  14.1706061  57.0376539  29.2920399  13.4675801
  57.9702425  28.3638382  14.2157173  61.5426665   6.1543375  38.5866404
  61.5910917   6.8227631  37.9031992  62.3835260   6.2140691  39.0400910
  45.3622580   5.9167498  10.1909971  45.9565115   5.2405417   9.8656738
  45.9265232   6.6720098  10.3565753   2.3193647  34.9221492  58.6269236
   1.7175046  34.2813921  59.0056372   2.3794998  35.6132674  59.2864466
  58.3467007   9.2428231  56.1518908  58.0959702   8.4034824  55.7660484
  58.7345934   9.0120602  56.9960022  35.9199595  25.1809883  17.1537554
  35.7522249  25.9266090  16.5774322  35.7502031  24.4133139  16.6077781
  31.2471384  74.2888497  67.1677151  30.3373904  74.0853618  66.9504854
  31.5660090  74.7906827  66.4175719  22.9085922  11.9777298  25.5764437
  23.8513041  11.8263066  25.6442475  22.7652884  12.8052533  26.0356832
  83.3655715  49.7619848  65.5387291  83.9755369  49.2376451  65.0198457
  82.6814819  50.0163035  64.9193957  16.4468932   2.9633352  20.3153276
  16.5062177   2.9404476  21.2704134  16.4055026   3.8951254  20.1001859
  57.9297448  48.8982158  52.4431035  58.3693862  48.0742560  52.2332534
  57.4974490  49.1533683  51.6280886  75.2673698  43.3679824  68.4316854
  74.4891382  43.8321443  68.7401456  75.0480295  42.4413872  68.5293731
  57.0155666  72.3327733  14.3403006  57.5951710  73.0797834  14.4895208
  57.2981716  71.9746942  13.4987867  26.4316795  72.0558167  36.1455059
  27.2712609  72.3486597  35.7911420  26.4567086  72.3155809  37.0664430
  64.7715998  20.2281618  19.2548287  64.6657228  21.1783934  19.3004787
  64.0058661  19.8796415  19.7113502   0.3086895  43.3169146  64.5594510
   0.3618569  43.2231884  65.5105668  -0.6242996  43.2337652  64.3623641
   2.3489613  67.0318864  62.5909117   2.1508641  67.7611564  62.0034125
   1.5083689  66.8132685  62.9932097  10.3409600   8.3038199  37.8346539
   9.9261498   7.7436900  38.4907150  11.2260628   7.9509383  37.7435470
  31.5484616  66.7121333  16.6118383  32.0569274  67.2162396  15.9765625
  31.4890239  67.2828264  17.3780036   5.7491753   4.8997049  66.6610467
   5.0380394   4.2597846  66.6291374   5.3324291   5.7059221  66.9653076
  24.2143750  29.4744563  52.0154619  24.9536610  29.2422056  51.4535475
  24.4924784  29.2188764  52.8949881  50.6432772  39.4147706  15.8528388
  50.9886885  39.6921873  15.0043321  50.6573915  40.2081490  16.3881719
  73.1747583   2.9946737  66.8058464  72.3204878   3.3345441  66.5395012
  73.7641850   3.7454490  66.7341307   2.3912234  64.5917533  27.1227571
   2.3859066  63.6346649  27.1364281   1.5996212  64.8424958  27.5989124
  79.2372799   1.6596679  15.8484864  79.3518877   0.7137609  15.7570720
  79.7815990   1.8953875  16.5997422  85.3781036  80.1647570   6.8439138
  85.9388522  79.8708139   6.1260068  84.9585894  79.3656517   7.1627712
  67.9298902  77.4528550  67.0534620  67.2836662  77.0512961  67.6343036
  67.6938987  77.1402334  66.1800736  56.3724422  70.8299303   9.3057370
  55.6892920  70.1971245   9.5273072  55.9241962  71.4917564   8.7791574
  34.8181534  14.6337783  25.5175424  35.7248187  14.3615222  25.3758812
  34.5570278  14.1872048  26.3229108  34.7425365  19.2717159  23.5734916
  34.2612195  19.6416187  24.3135858  34.4623041  18.3571208  23.5385919
  44.4422531   2.2746526  27.7934813  43.8557720   1.6036463  28.1428003
  45.2951050   2.0706885  28.1772470  53.5269737  20.6865788  54.6466446
  54.2483616  20.1418018  54.3319273  52.7759409  20.4188776  54.1170025
  82.3078514  46.7131238  68.9333790  82.9352308  47.3677640  68.6266725
  81.9326187  46.3472550  68.1323972  53.4910298  81.0009979  50.6347653
  53.6290575  80.0539874  50.6534585  53.0218697  81.1585353  49.8154327
   3.9954180  61.7593955  65.5333963   4.2608017  61.3497447  66.3567978
   3.7571377  62.6539372  65.7768059  52.7961206   9.0022421   3.2346559
  53.4337759   9.7057337   3.1132975  52.7471590   8.5733491   2.3803225
  38.1209540  35.6747913  16.7576873  38.5197496  34.8323917  16.9757605
  38.5858512  36.3084745  17.3040831   3.3492610  77.3051212  18.4096205
   3.8727853  77.2820977  17.6086068   2.7992818  76.5233422  18.3588505
  61.4222431  41.2030363  12.0788765  61.8478727  40.3475523  12.1355510
  61.0663366  41.2351274  11.1908829  80.9536577  24.7196899  65.4437587
  80.3877378  25.4704701  65.2640468  81.6135812  25.0567876  66.0496458
  64.5820814  27.0704937  48.2082462  65.3827530  27.5715160  48.0528879
  64.8601848  26.3396645  48.7603140  20.4399061  25.2916241  11.1491358
  20.9643030  25.7094240  10.4659927  20.5374169  25.8643579  11.9098592
  48.0952740  77.0717430   0.5159752  47.7315903  77.9451656   0.6612451
  48.7570286  77.1979046  -0.1640206  56.3139963  17.2311306  37.6575828
  56.7092228  16.9702363  36.8257427  55.4437113  17.5507188  37.4194598
   3.9520878  32.7145235  54.1811213   4.5049662  31.9331418  54.1810557
   3.7170691  32.8415613  55.1002833  58.6481762   1.2272574  15.0673068
  58.5176897   2.1755138  15.0633335  57.8578424   0.8750188  14.6579945
  55.1555182  72.6195175  31.7240119  55.3035279  72.6012964  32.6695251
  56.0065409  72.8523255  31.3528085  49.7932386  20.2907872   2.4887772
  48.8735723  20.4776359   2.3002781  49.8346663  19.3369508   2.5574100
  66.9304943   4.8859417   5.5520302  66.1955690   4.6504065   6.1182791
  67.0629978   5.8209950   5.7080722  34.8917460  29.4077754   0.5076210
  35.5296040  29.4856000   1.2170666  34.0816069  29.1410899   0.9421123
  54.6498847  61.0291384  47.1667072  55.4999614  61.4612769  47.2495529
  54.0603328  61.5546678  47.7075192   1.2189097  62.4595021  63.4422079
   1.6281170  61.6785501  63.8148937   0.4235691  62.1348356  63.0199984
  37.1700096  33.2228351   9.3885523  36.6426063  33.8861179   8.9434278
  37.2618151  33.5505772  10.2831960  76.0602096  18.1016092  60.5056354
  76.4168361  17.2467641  60.2642032  75.1384738  18.0570773  60.2513704
  43.2342005  20.7727575  12.1126330  43.2242393  21.1067080  11.2156320
  43.3702469  19.8302341  12.0158088  51.1754084  16.4419079   5.4546583
  50.7010269  16.4806569   6.2851357  52.0038795  16.8877292   5.6310332
  53.1225109  34.7240043   4.2509532  53.7086296  35.4795241   4.2944595
  52.6443243  34.7437882   5.0799149  37.4013281  32.0751619   2.7170575
  38.0200291  31.4082098   2.4193753  37.8883386  32.8970814   2.6579145
  38.9267731  29.3709254  42.7830458  39.4491482  30.0644970  42.3801661
  38.2224607  29.2066073  42.1560049  73.5768056  53.4398185  57.8161618
  73.8679576  52.9462169  58.5828552  74.1911102  54.1713224  57.7548012
  26.5191359  30.9478383  59.2131600  26.4173884  31.6331266  58.5526594
  27.3542780  30.5316226  58.9997789   6.0963628  76.0434816  37.5219703
   6.8176386  76.0646266  36.8930459   6.4360521  76.5004001  38.2914305
  72.9785776  27.1231747  42.7896452  72.6348066  26.2891531  42.4695492
  72.4566507  27.7864766  42.3381329  68.1925583  69.0145922   6.2921315
  67.8883743  68.3510208   5.6729597  67.4427223  69.1672564   6.8671685
  76.3503647  24.5458865  10.3461170  76.5133905  24.7240186  11.2723589
  76.6809416  23.6577654  10.2112198   6.1496422  31.9711332  68.4129547
   6.7543838  31.2369327  68.3058791   5.5274460  31.8760804  67.6917949
  53.9927671  74.2149753  23.8387012  53.7798402  74.7534162  23.0764818
  53.5671041  74.6590442  24.5720840  82.6527336  16.3335828  65.4500544
  82.7039173  17.0036391  66.1316934  83.2451466  15.6432275  65.7478598
  84.9114513  40.3340816  41.9702339  84.0757084  39.8730040  42.0422649
  85.0074100  40.5111742  41.0344648  51.4593220  50.6413221  15.0958025
  52.1832466  50.0573540  15.3219557  50.8559561  50.0921059  14.5952594
  53.9784766  75.9836505  66.0048306  54.3053723  76.3470863  65.1818561
  54.0420461  76.7072486  66.6282058  60.0107813  19.3049824  12.6634300
  60.2867079  18.8894260  11.8464792  59.9450302  18.5833907  13.2889020
  21.3439771   2.2125393   6.0550368  21.8659469   1.9885021   5.2845907
  21.6591665   1.6207939   6.7382145  59.9440479  48.8742113  21.8777847
  59.3896627  48.6251497  21.1382890  59.7781467  48.2018995  22.5386190
  68.9273453  15.9774446   3.7118235  68.9544868  16.5067577   4.5088950
  68.0806828  16.1839342   3.3159006  19.6523711  14.1205434  64.3722239
  20.0821969  13.5421924  63.7421498  19.3740461  14.8752813  63.8534394
  74.7516155  58.0022144  14.6641123  74.6934032  58.2173347  13.7332165
  74.0991592  57.3136187  14.7920632  19.0868277  78.1542920  54.7108063
  19.8510117  77.7382420  54.3118641  19.2611927  79.0928601  54.6406671
  62.2633073   7.6962928  61.7225519  62.8039453   7.6332168  60.9351787
  61.9917199   6.7956285  61.8993977  21.7025638  53.0081367  20.8915377
  21.2610698  53.4244061  20.1512432  22.6334500  53.0585575  20.6744194
   8.1224746  40.6746626  31.8270588   7.7471656  39.7943711  31.8486547
   7.5233191  41.1770010  31.2748814  68.7348270  61.5436029  10.1035678
  69.5511913  61.6774607   9.6220380  68.0466986  61.7314100   9.4652611
  46.8223622   7.9651886  16.0909510  47.3422709   8.6932140  16.4314067
  47.4435416   7.2405391  16.0185421  82.3579788  75.9522676  26.8159795
  81.5407658  76.4021921  27.0303750  82.2186852  75.6105709  25.9327626
  22.3323101  71.8457745  52.1703216  23.2120413  72.1020340  51.8934998
  21.7750162  72.5772332  51.9045708  69.4050550  50.4423380  47.8069496
  69.0859127  49.9386883  48.5557604  68.6785078  51.0235214  47.5820351
   1.0916848  78.3078860  68.5501277   1.6010994  79.0819310  68.3101581
   0.2283806  78.6512517  68.7804226  54.7039411   2.9613618  61.6301355
  55.0011155   3.7105445  61.1137572  55.5104253   2.5454072  61.9347581
  19.6243376  71.0185836  61.7181924  19.9426073  70.2697228  61.2140658
  19.7438378  71.7681311  61.1349848  78.4191704   6.3785934  49.2581606
  79.1470528   6.0782743  49.8024273  78.8051319   7.0430529  48.6874056
  41.6879845  51.9881582  18.3009887  41.5043497  51.1344481  18.6930215
  42.4015617  51.8205309  17.6854062  56.4095831  65.3036880  31.2726498
  56.1139488  66.1640978  31.5701818  57.2373343  65.4767275  30.8241892
   3.1291861  78.6352156  44.2186305   2.5253672  79.1947769  43.7302396
   3.2740778  79.1007875  45.0423285  28.1772536  25.6327319  19.9768543
  27.8103656  25.6954694  20.8587217  27.4714106  25.2581549  19.4498730
  79.8537493  37.6691389   9.8407918  79.7043514  37.5609112  10.7800460
  80.7452965  38.0118346   9.7780025  69.2274857  32.5289559  56.0231543
  69.8354578  31.8863988  56.3888311  69.7604465  33.3122134  55.8864260
  47.5542164  38.6356473   5.2424955  47.6694441  38.1675625   4.4155422
  47.0170021  38.0502105   5.7762533   2.7739543  20.1184773  16.6499603
   3.2350749  19.3028879  16.8459570   2.9442233  20.6779456  17.4077427
  80.7081413  37.1929932  24.2695522  81.5931320  37.0439959  24.6024489
  80.8365536  37.4624014  23.3600688  29.6569633  70.6491089  33.0710602
  29.2266345  70.0014353  32.5128794  29.2809749  71.4865732  32.7999210
  52.5767040  57.5371647  21.0313892  52.6517963  56.6848755  20.6022000
  52.6967096  58.1722689  20.3253651  13.4925029  45.9431962  54.9327347
  13.1156490  46.7646150  54.6173164  13.2189605  45.8902387  55.8484885
  15.8428330  65.3943037  53.7748727  15.7013983  65.7046698  52.8805002
  15.0977129  64.8194002  53.9495394  52.0647430  53.6853504  10.7976580
  52.8341579  54.0461349  11.2381959  51.6260147  53.1643391  11.4701879
   8.6544055  47.5773191   0.6654174   8.9079398  47.5008869   1.5852599
   7.7421111  47.2883844   0.6436227  73.5795212  20.7350111  35.2431464
  73.4794140  19.7836196  35.2757716  73.2671452  21.0380888  36.0956693
  76.6133213  28.4126997  18.9770699  76.5439177  28.9367461  19.7750616
  75.8359814  28.6454344  18.4693241  65.5642891  40.2619600  11.9002581
  64.9118471  40.6029940  11.2884986  65.3908157  39.3212724  11.9356239
   9.6058604   7.6479081  68.5033663   9.4105313   8.3964280  67.9396360
   9.9928424   8.0342750  69.2889856  50.2334118  39.3834019  12.4861455
  50.4064989  39.8366618  11.6610217  50.4237795  38.4641838  12.2989798
  82.4135471  80.1767491  59.4588348  81.8596530  80.7504772  59.9882433
  82.5186706  79.3878745  59.9906799  52.9119205  35.7140446  22.1398616
  52.4610519  36.4778185  21.7798662  52.8369904  35.0476861  21.4567900
  78.6550689  58.1430982  68.7480220  78.7038303  58.2800196  67.8019212
  77.8627563  57.6209794  68.8739484   9.5595309  64.2092461  13.3918011
   8.7012741  64.5564396  13.1487250   9.3644068  63.4677631  13.9648294
  77.9569006  43.4474897  37.3565817  78.3896923  43.7491560  38.1552815
  78.5216045  43.7548590  36.6474509  61.5186716  48.0764519  62.4292418
  61.9179988  48.8783889  62.0920995  61.0046101  48.3637862  63.1838360
  70.7891634  10.6997279  63.5660377  70.2253953  10.5378703  62.8095987
  70.9023980   9.8388604  63.9689264  13.9479921  12.0704869  60.2355269
  14.5271823  11.3960485  60.5903521  13.0912826  11.8741588  60.6146613
  60.3662443  26.7083454  32.7897310  60.6378126  26.5752363  31.8815637
  59.5454645  26.2221122  32.8680038  41.3934660  22.5670671  38.3099198
  41.2390566  22.6138306  37.3664141  40.7053757  21.9874835  38.6367941
  29.7861192   8.3506135  66.0978341  30.5695579   8.8304834  65.8291665
  29.8888299   7.4844388  65.7035917  11.6587067  53.3644962   3.7865973
  11.3238621  53.6300516   2.9300982  12.5884426  53.1925011   3.6374658
  10.7459849  19.4170821  12.0407653  10.2525538  18.7211370  12.4748409
  11.4020556  19.6831536  12.6849735  54.5954514  16.7276645  26.1943436
  54.4319916  17.4841714  25.6311321  54.3224430  15.9750342  25.6697083
  77.4120474  38.8884783   9.3988049  78.0712700  38.2291460   9.6154666
  77.3377275  38.8485694   8.4453291  56.1216066   6.6147641  40.9596702
  56.8033311   6.9416026  41.5467402  55.8012101   5.8189611  41.3842627
  40.0257683  49.4152641   6.4640683  39.5566368  48.6820984   6.0657972
  40.9472179  49.1588736   6.4262980  17.7133602  72.3615264  63.4365377
  18.5190386  71.8698596  63.2772145  17.4831671  72.7273654  62.5824854
  74.1929317  57.7734958  66.3018933  74.7549224  57.0267497  66.0950854
  73.3431030  57.5452803  65.9251386  68.6550522  60.5267382  23.9826465
  69.2656279  60.1915503  23.3260798  68.5645914  59.8118210  24.6126771
  13.0550307  40.8067465  30.4352355  13.0657023  41.7349529  30.2016735
  12.6725406  40.3723192  29.6728635  52.2575951  78.5071039  13.2165372
  51.5549517  77.9501009  13.5516107  52.8826809  78.5648680  13.9391458
   2.3877543  19.5160854  38.3862710   2.1213549  19.4318140  37.4707603
   1.5643805  19.5747006  38.8708878  25.2858350  22.4147681  65.2302295
  25.5278823  22.9637698  64.4844130  24.4953200  21.9570760  64.9441615
  82.8372217  78.8681649  47.9118296  82.0939184  79.2570041  47.4508187
  83.1615472  78.1925438  47.3163626  39.5202303  44.8122168   3.4866515
  38.6772442  44.4654703   3.7788418  39.8679185  44.1370916   2.9039413
  37.3035860  49.4139099  14.7391307  36.8139887  49.9199104  14.0906811
  38.1409502  49.2271090  14.3146837  53.0625868  48.6242247  25.5916381
  53.7658024  48.6852455  26.2381625  52.9209709  49.5267344  25.3058887
  70.3144169  24.3759108  19.0682185  70.2924776  25.0334263  18.3729303
  69.7644377  23.6637235  18.7418091  75.3358412  30.7426333  55.5642605
  75.6706190  29.8622179  55.3939009  75.9794855  31.1334372  56.1552095
   3.6137694   5.0518268   8.9571518   3.6675090   5.5570513   9.7683811
   2.8972739   4.4348651   9.1062415  59.3998241  24.7902989  26.7379141
  59.8746157  25.1779199  27.4731374  59.0834808  23.9512253  27.0727468
  41.9252062  72.5773907  19.3923759  42.4680042  71.7907095  19.3400681
  41.4596558  72.4922705  20.2243900  60.4771423  72.3786163  18.9464593
  60.7944345  71.5684366  19.3454087  59.5247889  72.3292828  19.0290332
  63.7387037  71.2161493  30.2185869  64.4462109  71.7452621  29.8502040
  63.1284666  71.0926580  29.4915462  43.0252692  19.0186910  66.9757959
  42.4866388  19.1427545  67.7572787  43.1737802  19.9042587  66.6442066
  77.2791672  48.7564659  10.0565445  77.5015736  49.6205950  10.4030263
  76.7803955  48.3381510  10.7583070  26.6308069  73.9647293  32.5322294
  26.5627122  74.8455334  32.1637392  26.2934875  74.0513706  33.4238219
  14.1345686  73.9496873  64.7469065  13.3161110  73.4548329  64.7853610
  14.4271941  73.9997076  65.6569061  59.1092873  67.0330000  32.6970148
  59.5471144  66.1858225  32.7796125  59.1897345  67.2547483  31.7693353
  60.4574728  39.5755625  27.7023840  60.1132631  40.3563690  28.1360817
  61.0268736  39.1698265  28.3561397  55.7667160  73.8224316  37.5217605
  55.5185270  74.7397375  37.4069309  56.3979435  73.6556673  36.8217778
  58.4760332  53.8886309  24.0603232  59.2299032  54.4196653  24.3170571
  58.2973671  54.1476059  23.1563091  55.7555246  58.4463501  40.3708076
  55.4656076  57.6335621  39.9566245  56.4710617  58.1791878  40.9477520
  71.6844845  45.0733900  17.4091637  72.1796942  44.2632008  17.5299752
  71.2299156  45.2026415  18.2415664  68.1638813  33.8383245  27.2682071
  67.7775621  32.9640985  27.3203349  68.5052538  33.8965058  26.3758421
  76.5344906  65.9576368  32.9996467  77.4773788  65.8222771  33.0938005
  76.3466740  66.7219830  33.5443807  66.4489841  40.3376341  23.1765294
  66.9300413  39.8423719  22.5135565  67.0762873  40.4548264  23.8899636
  84.8800564  57.1637535   5.4600143  84.5843506  57.0846462   4.5530814
  85.5346394  56.4725065   5.5596626  54.6727705  60.6824636  31.0931706
  54.7801256  61.2379074  31.8653035  53.9250135  61.0591316  30.6292558
  80.5469131  51.7964983  16.0364056  79.8861217  52.4862909  15.9749401
  81.3207245  52.1676445  15.6125093  78.6729431  53.3897543  35.1764297
  79.3263149  52.8100538  34.7849154  77.8703976  52.8683949  35.1946497
  76.6398001  43.3157682  26.2242150  77.4146557  43.5485506  26.7357278
  76.6594458  42.3597336  26.1813307  21.1121845  77.8981686   6.3670027
  20.6075811  78.6995411   6.5063292  22.0217013  78.1928682   6.3205022
  65.2458811  68.5503197  30.9669137  64.3830729  68.1784248  31.1499095
  65.2947140  69.3274403  31.5236306  49.6510887  70.1100779  32.9081964
  50.1205587  69.4078350  33.3584023  49.6332407  69.8366404  31.9910574
   2.7192423  42.1460275  43.9036915   2.2072050  42.9252271  43.6871216
   3.0874941  41.8613176  43.0672929  37.4178716  10.1841026  42.2753716
  36.6919634   9.6600776  42.6140308  38.1541273   9.5739227  42.2324133
  68.2493210  58.5852194  15.3997803  67.9126692  57.7500057  15.7243085
  67.8743935  59.2397881  15.9890163  52.9766226  60.6132650  22.9556108
  52.7639198  60.3397179  22.0633292  53.7859583  61.1163187  22.8653955
  30.1615548  46.5483761   2.8023615  30.9423447  46.4023066   3.3364612
  29.4303823  46.3558292   3.3893418  72.7173328  35.0285506   8.9548045
  72.4431705  35.3664255   9.8073941  73.3914900  35.6408143   8.6600536
  30.4293442  41.6069984  20.8736157  31.0381174  42.0003891  21.4988136
  30.9081101  41.6005564  20.0447774  84.6782163   0.8289365  48.5571834
  84.8997978   1.6347770  48.0905434  83.7947563   0.9815435  48.8925096
  84.2110634  20.9727454  18.2045043  84.6592617  21.4961004  17.5400805
  84.2129993  20.0834608  17.8503847  72.5344992  37.2143745  42.6627970
  71.8888140  36.7207384  42.1571875  72.0296764  37.6131535  43.3715725
  63.2257462  47.5506639   7.8980833  63.9428997  46.9224596   7.9834491
  62.6321268  47.1515083   7.2620600  67.6873398  41.3474178  39.1426396
  67.1316147  40.5751848  39.2478251  67.3943758  41.9484234  39.8276210
  25.8798623  28.0802417  25.2262497  25.9747267  27.9187703  26.1649489
  26.7037582  27.7751946  24.8462820  69.0335798  41.5568018   8.9170992
  68.7714767  40.6391573   8.8431698  68.2579803  42.0005226   9.2602992
  43.3315704  76.8069372  17.5606608  44.2749021  76.8345404  17.7206528
  43.0301473  77.6951251  17.7517033  76.9286156  58.2779694  11.7486143
  76.7217731  58.9783669  11.1298299  76.2543011  57.6161146  11.5953755
  39.2947793  80.0682831  15.3893769  39.5251226  80.6309223  16.1287069
  38.3791637  80.2778435  15.2050745  50.6233928  30.5739860  59.8837241
  51.5486715  30.4974488  59.6508476  50.6038282  31.2390165  60.5718985
  69.8780727  60.6408644  27.1309352  69.8963404  61.3921118  26.5380430
  69.7890234  59.8824024  26.5538359  34.6083807   3.2172514   4.8602036
  35.2872920   2.5456788   4.9258021  34.9660754   3.8604523   4.2481783
  16.1179781  34.7312665   6.2319171  16.5143216  34.2847562   5.4837388
  16.1965907  35.6623673   6.0243064  63.3427382  79.8253298  15.8689630
  62.8104734  79.0649652  15.6349254  62.7138758  80.5425739  15.9484887
  33.2207012  64.1800261  24.0178800  33.9496827  64.5065928  24.5453000
  32.8217506  64.9672174  23.6472011  59.8521233  61.2901688  21.2137127
  59.6030760  62.0414782  21.7519855  60.3792286  61.6652012  20.5082059
  82.6145267  42.9358101  17.6425362  81.7384529  43.2645702  17.4409592
  83.1067276  43.0517387  16.8298018   6.6975901  40.7283334  60.1333412
   5.9429738  40.1412896  60.1799074   7.4462173  40.1740197  60.3536150
   8.3719367  68.2484818   9.2814451   8.3290976  68.3420944  10.2330935
   8.1633586  67.3280478   9.1216898  62.2586679  31.4412618  22.8315282
  61.5513039  31.9772196  23.1901574  61.9271135  31.1425400  21.9847298
  53.2121992  57.9401350  23.5104203  52.6882458  57.8414822  22.7154517
  53.3856249  58.8797379  23.5679007  40.5969715  78.3396006  23.1079435
  41.0207796  77.7887344  22.4497867  40.6536150  79.2259169  22.7509212
   0.5467343  47.1475220  35.5407977   1.4403281  46.8217945  35.4329872
   0.2635323  47.3681259  34.6534634   3.1973690  70.8395384  49.3787238
   3.9526076  70.7618331  48.7957928   2.6711125  71.5418600  48.9965865
  53.4906054  27.1050334   5.8956647  53.1914473  26.3578820   5.3774947
  54.3233776  27.3557353   5.4958308  46.4851379  75.4436445  10.5051219
  46.6432762  74.5517731  10.1956189  45.5497742  75.4646921  10.7072985
  60.0126839  53.6533403  39.8049760  60.8711481  53.6019659  39.3847036
  59.7876883  52.7440691  40.0020409  77.3197174  56.2870932  15.3569007
  77.2093248  57.1492672  15.7577777  76.4820528  56.1136293  14.9274087
  32.8791616   9.9854020  54.8618385  33.6226175  10.5730848  54.9964902
  32.1235225  10.5682544  54.7875222  56.1792040   0.7764687  59.1571951
  56.2017155   1.5034723  59.7794437  57.0634174   0.7464523  58.7918329
  68.4416914  47.0184374  34.7332215  69.2306662  46.6006279  35.0784564
  68.1553268  46.4413977  34.0252328  14.8356721  78.9179302  44.1971684
  15.1364515  78.1663901  44.7080040  15.6354758  79.3995645  43.9860296
  78.7720705  50.2146499  51.7533740  79.3487955  50.5252193  52.4513480
  77.8986097  50.2185576  52.1448943  54.1520357  70.8240557   5.3750128
  53.4828472  71.3080072   4.8910609  53.6577845  70.2106428   5.9187663
  26.9474310  63.5996674  64.8374930  26.6976637  62.7249287  64.5396897
  26.4335245  64.1944526  64.2912641  62.0896292  25.5080128  40.6526375
  62.5049591  26.0751247  40.0029325  61.7961454  24.7461867  40.1529169
  75.5840778  45.8814478  12.1287680  75.5102921  45.0813341  11.6085732
  76.4596319  45.8373833  12.5130761  61.7516327  17.6807618   5.5223149
  62.2513819  17.0562196   4.9965501  62.3828268  18.0175924   6.1582172
  69.4084740  38.5621715  30.8666372  69.7338629  37.6650953  30.9415436
  68.7557936  38.5226250  30.1675844  29.2039990  16.4287186   0.5717674
  28.4868193  16.8180907   0.0714944  29.1100097  16.7960393   1.4506723
  52.8202963  60.3481007  20.1627207  53.3687115  61.1261034  20.0618219
  53.0105257  59.8188734  19.3881464  67.1564531  30.0990915   7.1388692
  67.1802616  30.0097513   6.1861449  67.4199772  31.0048795   7.3011523
  17.8803176  48.5630608  18.4694064  17.4329680  47.7225018  18.5672450
  17.8445262  48.9563513  19.3413424  33.3869576  10.2139854  23.1043100
  33.1603098   9.3373513  23.4147525  34.3126440  10.3147197  23.3260965
  76.4393917  12.4375991  55.5143472  75.5526582  12.7920894  55.4489836
  76.3388923  11.5046338  55.3253671  50.4760406  63.8483197   4.2903340
  49.9536130  63.4240074   4.9709642  51.3790128  63.6058051   4.4954047
  62.0003748  23.0055499  19.8898125  62.7292395  22.7909374  19.3076396
  62.0963335  22.4017668  20.6263375  61.5176249  34.0594435   6.9130272
  61.1580324  34.2179942   7.7858323  61.5159941  33.1065083   6.8227917
  39.4902992  21.8857050  12.5089204  38.7824297  22.5212646  12.4030161
  40.2506638  22.3046780  12.1057630  85.3835583  64.9465942   8.2898539
  86.0255432  65.6043100   8.5572481  85.8075714  64.1087246   8.4754020
  23.9974017  73.5235475  65.5899247  24.3545431  73.2373308  66.4306179
  23.2462687  74.0695118  65.8221888  24.4825149  40.4179382   6.0205907
  25.2532458  39.8558164   6.0994804  24.6391654  40.9291458   5.2266383
   7.5754113  68.9864634  39.9783775   7.7974076  69.9173735  39.9973199
   6.7071957  68.9554070  39.5765492   9.6742720  78.9424990  60.6829068
   9.1817469  78.1893037  60.3567979  10.5036396  78.9110087  60.2060541
  84.8764062  47.7083056  60.0784346  85.5219532  47.0214151  60.2448103
  84.9319149  48.2797520  60.8443329  61.4332771  47.3911285  34.8901510
  61.2137794  47.0106792  35.7406282  62.0828152  46.7929649  34.5206451
  56.9767570  57.7465820  30.8137083  57.6776361  57.9433918  31.4352131
  56.1705971  57.8708076  31.3146114  84.8505497  51.9024229  11.8810594
  85.1342773  52.2132063  12.7407956  84.0260220  52.3613787  11.7205942
  75.4233983   0.9893661  40.7954693  75.4264071   0.0329929  40.7556677
  76.2032988   1.2518840  40.3065205  52.9580307  58.6724901  31.3571382
  53.0567694  57.9819679  32.0126271  53.7033749  59.2539120  31.5076041
  56.4505053  46.8257093   9.0446544  55.7318211  46.6217613   8.4462166
  56.9144297  47.5495768   8.6239129  75.9732819  61.0786819  13.3202493
  75.5750942  60.3153133  12.9019785  76.8865585  60.8272314  13.4578454
  21.0081932  20.6914764  36.8632865  20.2900955  20.9257465  36.2753344
  21.0757467  19.7393852  36.7913461  66.5932560  69.4702482  17.4971044
  67.5074768  69.2825413  17.7097178  66.5999508  69.6620274  16.5593374
  57.4301359   3.7207752  37.8489995  58.3504221   3.9090019  38.0330753
  57.4048540   2.7762561  37.6957798   3.6785525  51.5924788  47.1342039
   4.0738314  51.5278625  46.2648296   2.7802867  51.8784904  46.9682407
  80.8176136  57.2568321  61.2086725  80.3485775  57.9791927  61.6263199
  81.3872910  56.9118500  61.8961954  60.2619698   4.7639232  24.4111991
  60.7586887   4.1049629  23.9261413  60.9080770   5.4334598  24.6359158
  45.0314903  50.1183176   2.6361695  44.9228859  49.2840862   3.0927834
  44.1830635  50.5524158   2.7253753  59.5110989  75.4244661  37.6497269
  60.4603672  75.5309582  37.7112246  59.3903923  74.7064590  37.0283318
  40.6674501  14.9956375  22.6967716  40.0742742  15.7465416  22.7196074
  40.4280111  14.5254665  21.8981194  68.7064269   3.9655357   4.0472099
  67.9632428   4.2063957   4.6002844  68.9617064   3.0956894   4.3545240
  58.3119535  53.0614901  29.4692516  59.2469645  53.2617712  29.5125461
  58.2031393  52.6051664  28.6348915  56.7757845  52.0948172  31.7847586
  57.2765684  52.4675322  31.0591316  57.4401855  51.7672539  32.3909807
  67.4357605  53.3008671  42.3675013  67.8997850  52.9928017  41.5890360
  67.5718164  54.2483521  42.3681498  62.6246119  59.6576118  55.2746964
  62.7642632  60.0749493  54.4246578  62.9063034  58.7518978  55.1460123
  59.5128655   8.7505032   0.1368979  60.1551651   8.6588122  -0.5668613
  59.9990582   9.1588856   0.8531931  60.3654480  72.4430990  12.2552645
  60.2998066  73.2949829  11.8237305  60.1541901  72.6218748  13.1715846
  51.8193338  34.0139226  57.4280390  52.5117490  34.0769128  58.0859348
  52.2846887  33.9926128  56.5918407  66.7212152  67.3086309   4.6416995
  67.5929737  67.1487522   4.2801628  66.2246513  67.6818562   3.9134404
  58.0817509  71.0623741  11.7723310  58.9551497  71.3408184  11.4968789
  57.5551081  71.1011696  10.9739745  24.1192263  30.0714469  40.5830574
  24.6069354  29.6106076  41.2657022  23.7666529  30.8456850  41.0217810
  44.5000124  71.8309402  59.5316648  44.2936659  70.9492970  59.2212486
  44.4969702  71.7557096  60.4859018  70.1212120   6.5734291  45.4774952
  70.6233406   6.5489578  46.2920523  69.4105434   7.1902788  45.6526566
  82.1620369  32.8739190  19.8096168  82.9782963  32.4520874  20.0779724
  82.3221970  33.1540108  18.9084339  62.0494938  55.2392006  15.1473594
  62.6116467  54.9580622  14.4254351  61.1870241  54.8845816  14.9314332
  66.2455559  72.8421164  52.9111862  67.0281076  72.5265980  53.3631706
  66.5804338  73.4326744  52.2364044   0.4922789  69.4016457  48.3846092
   1.4162368  69.6311426  48.2852745   0.3839225  69.2449570  49.3226624
  47.9634187  21.5683059  68.0821460  48.0844447  21.0479335  68.8763716
  47.2158143  21.1635808  67.6422363   4.0443724  50.8498430  34.2647791
   3.5478228  50.5786419  35.0368667   4.8820704  51.1545086  34.6136045
  70.3257704  53.3819580  43.9023733  69.7253227  54.1090679  43.7380266
  70.1569700  52.7660894  43.1893206  74.4000959  70.8441162  18.8374031
  75.3421640  70.7399130  18.7036765  74.3279409  71.3680935  19.6351957
  56.5234375  35.3585172  18.9423823  56.6061783  35.3930616  17.9893899
  56.0394096  36.1524129  19.1697049  71.9810343  61.9644308   8.8549405
  72.8820372  62.2771168   8.7733787  71.5415525  62.2930288   8.0706525
  67.9641628  54.2266035  36.2238359  67.8542995  53.9549446  35.3125954
  68.4386587  53.5034227  36.6338205  71.1724901  56.0109472  32.8018355
  70.8801174  55.9450340  33.7109041  71.3055992  56.9482374  32.6604104
  48.7275553  45.0926733  18.1253433  47.8515434  44.7246790  18.2411814
  48.9795303  45.3909445  18.9992833  61.5994072  33.4103751  19.1730535
  61.8176222  34.2207026  19.6334684  61.0701942  33.6936116  18.4274399
  79.3101025  65.2394104  32.6131296  79.6803141  64.9702168  33.4537911
  79.8498964  65.9813023  32.3402691  14.9670142  71.6486406  12.8889751
  14.5336932  72.5010014  12.8448582  14.8248214  71.2626457  12.0246720
  77.1633863  36.2795949  66.0289526  76.3763905  36.6264915  66.4491081
  77.5491047  37.0337248  65.5831480  43.8511703  20.9572057  65.2905095
  44.7141025  20.7927493  64.9103334  43.5976026  21.8140439  64.9473396
  69.6422529  52.1764660  37.1106744  69.7905827  51.2438297  37.2669291
  70.4934359  52.5843382  37.2699142  41.0978127  51.1644983  10.5608952
  41.0513830  51.3794851  11.4924824  41.5472126  51.9111252  10.1648915
  62.1699572  53.4315634  24.3640018  61.5949392  54.0998363  24.7368217
  62.7329493  53.1670475  25.0915360  67.0199537  52.3237181  56.2553358
  66.9569254  52.6155233  55.3458786  66.6363192  51.4467621  56.2526321
  67.3215294  56.7396021  30.6410050  66.8149948  57.5484753  30.5676103
  67.4524593  56.6235495  31.5820789   2.0650786  64.1416025   5.6734800
   2.3697299  63.5688925   4.9696171   2.2306651  63.6450577   6.4748895
  73.7581253  52.5580835  28.1953716  74.0984964  53.4311008  28.3908725
  73.6509180  52.5502729  27.2442245  64.2514610  79.8078823  36.8859196
  65.1395941  79.6049166  37.1796227  63.6975574  79.6042061  37.6395369
  20.6277368  29.0670900  59.0338990  19.9334190  28.4702138  59.3129978
  21.3812730  28.8267259  59.5730027  55.5073354   3.4990815  54.4937977
  55.3412625   3.3431606  53.5640988  55.0685784   4.3292741  54.6795353
  53.4097910  60.9418106  12.8111160  53.1793833  60.0354958  13.0154324
  54.1812515  61.1199141  13.3490384  79.7180033  71.1993837  46.7246389
  79.1788769  71.8345451  46.2533188  79.9531507  70.5478239  46.0640287
   8.4554404  79.9937296   1.4849927   7.7268428  79.8037004   0.8940079
   8.4579963  80.9477425   1.5630068  64.5680428  41.7641973  25.4624414
  64.7209930  41.5148020  24.5510483  65.2120066  42.4512863  25.6340456
   3.2225055  42.5425863  21.9811869   4.0574282  42.9803085  22.1470928
   3.2090396  42.4034214  21.0342526  31.7749399  63.7884472  64.9859205
  32.2628302  63.5235261  64.2061695  30.9738440  64.1852807  64.6438673
  21.5382046  55.5282687  67.5017089  20.7765288  56.0017084  67.1671396
  21.2850231  55.2611302  68.3853197   6.4143774   9.1558033  15.0296271
   6.6571304  10.0423961  14.7626972   6.2090274   9.2339378  15.9612703
  50.8094597  50.1926374   3.6053759  51.4983511  49.5385695   3.4876770
  50.3253937  50.1818943   2.7796677  51.0485840  74.3235302  13.8317716
  50.7387590  73.8624811  13.0522394  50.6127834  73.8815880  14.5604670
  64.1745806  79.7532225  32.0771194  63.5932159  80.4858494  31.8733835
  63.9267206  79.4900846  32.9634380   7.8031653  66.3964558  14.6293986
   8.7204188  66.6700315  14.6235168   7.7237719  65.8413124  15.4051208
  75.6581306  13.7600744   4.8150253  75.2956438  13.2311010   4.1043773
  76.4781284  14.1055572   4.4622064  13.8405150  21.6838551  17.5525153
  14.5469683  21.1620069  17.9330707  13.1777972  21.0412979  17.2992074
  63.6698341  59.0435028  22.3385978  63.1984186  58.8174009  21.5368032
  64.5841646  58.8364029  22.1453524   0.9743902  24.6529464  63.4471658
   1.8282745  24.4973544  63.8507804   0.6677339  23.7827090  63.1924388
  62.2656819  24.8581580  49.1485664  63.1087396  25.2728061  48.9654276
  62.4879453  24.0772943  49.6556041  61.5354183  23.2368522  36.2985015
  60.6192520  23.5135131  36.3166070  61.8759039  23.5895115  35.4763484
  24.8844814  71.6017199  21.6163969  24.0631914  71.4369726  21.1531782
  24.7897077  71.1335230  22.4458790  67.2803497  55.0104713  28.5422564
  67.1342182  55.5929470  29.2876434  67.6535225  54.2176104  28.9274120
  72.9279995  80.2193832  25.6825209  73.7079239  80.4550266  25.1801038
  72.3563910  80.9837341  25.6099939  74.8845959  61.4719105   1.9416030
  75.5183887  61.7429638   2.6057330  74.1973448  61.0241556   2.4349967
   0.9990805  68.2663870  31.1849141   0.1407069  67.8920555  30.9866500
   1.5278834  68.0767202  30.4099154  33.2573888  26.9677428  55.2818856
  33.2953689  26.4652614  56.0957035  33.8086412  26.4776448  54.6718427
  53.1352758  69.6193743  27.0451260  53.2452583  68.6747551  27.1539044
  53.2080984  69.9726582  27.9317617   4.6271533  37.8974080  27.0128155
   4.1915912  37.0490956  27.0957732   5.1673812  37.8134489  26.2271118
  70.2425671  44.4254112  44.7024870  69.8237228  43.5724926  44.5870447
  70.1804781  44.8410892  43.8424921  65.1834771  21.2818937  64.6740499
  65.6929872  21.8383054  65.2631509  64.4655988  21.8412618  64.3774351
   7.6816246  15.8709961  44.9520111   8.4604284  15.9239154  44.3980312
   6.9594547  15.7383018  44.3379307  20.4366988  35.3132915  25.1927614
  21.2027282  35.8393335  25.4223418  20.2299422  34.8295522  25.9924364
  57.7928448  73.5585690   1.4310122  58.6903095  73.3869171   1.7161866
  57.7508783  74.5096731   1.3316610  41.3203430  37.3800087   1.3178818
  41.1542511  37.9974961   0.6055947  40.5570126  37.4627423   1.8894677
  81.7100906  36.9527268  17.0637667  80.7896805  36.7232442  17.1919334
  82.1469307  36.1147189  16.9116259  63.9339209  55.3381062  32.1847868
  63.8334942  56.1329412  31.6609716  63.0381918  55.0371981  32.3375964
  52.6388502  77.0820236  38.8125491  51.8613100  76.7550564  39.2650461
  52.7846575  76.4555025  38.1037164  63.4047318  65.4027271  33.3170533
  63.4091091  65.1563692  34.2419982  64.2122459  65.0277996  32.9655051
  45.7334089  49.9757957  21.9560122  45.3467941  49.3448162  22.5631571
  46.2768269  49.4454098  21.3732386  77.1509027  31.3530803  37.1824145
  77.6790667  30.6821299  37.6149654  76.5720987  30.8627820  36.5986180
  55.4217813  26.0487107  69.8224363  56.3331983  25.9901981  69.5358728
  55.3833863  25.5073432  70.6109042   6.0886365  73.4152079  17.3795211
   5.8553535  73.6894464  18.2664287   5.9633631  72.4662447  17.3815012
  14.0157005  18.2694107   8.8592827  13.8131591  17.4887806   8.3436996
  13.2251903  18.4273105   9.3754172  77.0984507  47.1413326   4.1052929
  77.3026705  47.4852180   4.9749303  77.2820520  47.8687954   3.5108849
  23.3504483  14.0274934  43.5416290  23.5260722  13.1632594  43.9137670
  23.0419442  14.5491199  44.2825529  51.6258362   6.2001663  42.3173380
  51.0383060   6.5946823  41.6728210  51.0946491   5.5296569  42.7468491
  81.3842106  67.1701002  40.9873915  81.7936134  66.4606333  41.4826441
  81.7934608  67.1261454  40.1232052  66.5377188  73.6076975   1.2914720
  66.0230732  73.9792156   0.5749872  66.0046101  73.7577534   2.0721844
  53.2893178   2.7287082  63.8537529  53.7579534   2.8700332  63.0311724
  53.9600274   2.8209190  64.5304182  25.6121111  36.4281058   8.4283388
  25.5633926  37.3832417   8.3886945  24.7881365  36.1300540   8.0430311
  46.9898987  75.6205845  38.8526297  47.8707075  75.7058764  39.2175031
  46.7303610  76.5173388  38.6412048  51.8285227  60.6768990  33.0366230
  52.1498585  59.9493504  32.5040340  51.8659592  60.3504276  33.9356494
  76.1187935  33.3742356  46.9335651  76.5152359  33.8854623  46.2280798
  75.7068872  34.0267730  47.4999237  76.8763116   4.3097358  27.5002789
  76.6882518   4.4907432  28.4212017  76.7287639   3.3686691  27.4061680
  71.8315840  79.0783787  55.0384665  70.9353685  78.7833214  55.1996136
  71.7378998  79.9912453  54.7662067  57.0956326  65.7984734  10.8919287
  56.7012835  66.5024090  11.4068949  57.5765753  65.2739239  11.5320647
  51.8877697  40.3405571   4.8771417  51.4932632  39.6498728   5.4096353
  52.7051449  40.5529881   5.3277034  66.1365792  28.9124326  62.0381144
  67.0828149  29.0016441  62.1517476  65.8129880  28.6698035  62.9056677
  81.2672138  24.5534658   2.2082058  81.6513062  23.8171601   1.7322236
  80.4511642  24.7393894   1.7437446  65.7130146  42.4171591   1.5252523
  65.8319998  41.4731312   1.4209418  66.4868259  42.7039528   2.0102270
   1.0142442  13.9614921  15.0287950   0.4833337  14.4519573  15.6563318
   1.3719293  13.2325988  15.5357587  83.6527348  65.4522610  42.1376896
  84.3937778  65.0057745  41.7281342  83.0188179  64.7559547  42.3095560
  71.5436602  24.7982717  36.2810349  71.3640833  24.4263458  35.4175234
  72.2843218  24.2898774  36.6114783  73.3529615  76.0114288  32.1747994
  73.1372452  76.9259024  31.9919372  72.5643396  75.6567860  32.5853252
  48.1680414   4.0163475  20.9937787  48.9219972   4.5954948  20.8825517
  48.5496637   3.1640297  21.2038851   4.9289343   9.8069912  44.7848272
   4.6614858  10.4508358  45.4406929   5.7906744  10.1052719  44.4938612
  11.8554324  73.9301872   6.3374996  12.5888366  73.4741306   6.7502415
  12.2577685  74.6738958   5.8888829  74.3286991  41.2308025  29.8519158
  74.0323925  40.7395697  30.6181574  73.6170292  41.8448877  29.6711993
  51.5146828  79.7907877  21.0516357  51.7877579  79.4062138  21.8845606
  51.3467693  80.7106781  21.2561655  67.3432446  80.0931644   5.2838022
  67.6855755  80.9807873   5.3894866  66.7914867  79.9559879   6.0538501
  74.8494244  62.4949169   8.6141092  75.4440451  63.2049274   8.8560683
  74.4998932  62.7551746   7.7618635  36.9972754  59.1563034  31.3026547
  37.3614860  59.7472906  31.9616842  36.7309284  59.7319460  30.5857682
  65.8611870  44.7936916  24.3031764  66.1022711  43.8943672  24.0810847
  66.5675735  45.3277206  23.9397764  61.3552094  54.7507763   0.7445350
  61.0348082  55.4511738   1.3128796  62.3031473  54.8804617   0.7157388
  83.6245060  55.4635239  17.2637486  83.9966965  56.3293600  17.4311960
  83.0101585  55.6022263  16.5429378  51.6224670  69.9969959  14.0253305
  50.9681940  70.4643011  14.5447397  52.4446154  70.4504251  14.2116213
   2.2580478  43.8239316  69.4701960   2.2651860  43.0679349  70.0572668
   1.8973324  44.5350293  69.9997770  53.1557703  12.2161853  10.7294309
  53.2478285  11.3992798  10.2391028  53.7227917  12.8360808  10.2706873
  44.6812773  64.7756147  12.9746068  44.1584301  65.2720594  12.3449993
  44.6977711  63.8854313  12.6231325   8.5268992  44.1989183  21.8240499
   7.7167815  44.6954393  21.9398999   8.5438937  43.9824390  20.8918071
  81.9544029  31.7371297  26.7642570  81.5343761  32.3866820  26.2004399
  81.6500854  31.9526148  27.6458383  77.5398445  70.6384754  34.8204422
  77.5632668  69.6815968  34.8287892  78.4602833  70.9004211  34.8002315
  60.5768251  56.2468481  67.8837872  60.7544184  57.1774578  68.0204010
  60.7307053  55.8455706  68.7390852  47.6730061   7.2946721  28.0384111
  46.8395424   7.4242586  28.4909344  47.6322889   6.3948768  27.7144623
   6.0828420  14.4635349   4.3112698   5.9069845  13.5231739   4.2791232
   5.2229234  14.8716121   4.2100430  56.4907026  75.7262230  15.0317895
  56.9415712  75.5186033  14.2133522  55.5643177  75.7594156  14.7931528
  59.9712515  47.6623344   0.4122113  60.6987333  47.3275852   0.9365603
  60.2764702  48.5118866   0.0938820   9.8896998  47.4360609  22.8746510
  10.4814833  48.1134605  23.2019925  10.2873629  47.1471119  22.0533109
  83.0551720  56.7616081  23.4240437  82.1967220  56.3503551  23.3231854
  82.9437065  57.6405764  23.0617976  80.9973812  35.1931953  36.6988611
  81.0876656  34.7149205  35.8746433  80.2142525  34.8229218  37.1060944
  14.0056917   2.4469810  48.0993605  13.4387991   2.2033458  48.8311434
  13.4888860   2.2465664  47.3189926  33.2169673   0.7086066  68.1682327
  33.5252998   0.8273486  69.0666004  33.3704278  -0.2178403  67.9828191
   3.6219996  69.3900537   1.4361842   3.7617511  69.6305275   2.3520848
   4.4563693  69.0126038   1.1576566  19.6883315  64.1788387  26.4344144
  19.2072123  63.9008951  25.6549931  19.1733378  64.9041986  26.7877865
  57.7980566  77.4976826  10.9279609  58.5032463  77.9226494  10.4397523
  58.2307053  77.1199942  11.6937268  65.8270359  77.8247499  21.3199544
  65.3025055  77.5958109  20.5526948  66.3883448  78.5403538  21.0214972
   3.4505099  41.3487387  34.7069335   3.9683074  40.7091665  35.1958776
   2.6830119  40.8593988  34.4107389  67.3042583  36.2936616  40.0659370
  67.9243898  37.0212507  40.1137018  67.6969814  35.6083465  40.6066227
  56.6594789   5.1395635  57.3015746  56.6821477   5.6096677  56.4680764
  55.7582280   5.2391462  57.6082846  68.1932211  59.7400045  34.8577309
  68.4703779  60.6358719  35.0496650  67.5813818  59.5227003  35.5610561
  78.7309885  79.2329979  11.4932764  78.8586378  79.2221260  10.5446887
  79.5757341  79.5134115  11.8454218  65.9340525  69.7608376   0.4697826
  66.4090204  70.5396366   0.7598092  66.3442659  69.0389299   0.9460182
   5.4245585  22.9940152  13.0846226   5.3698367  22.2133207  13.6357594
   6.0342902  23.5702801  13.5454726  75.0734520  36.6406727   8.8923341
  75.9731197  36.7178679   8.5747296  74.9060488  37.4692702   9.3413740
  49.4290686  76.0835791  39.9180675  49.6080589  76.3923502  40.8062410
  49.6738863  76.8181086  39.3552470  62.7793694  35.3290653  39.6550727
  63.2150936  34.5882893  39.2336154  61.9095421  34.9989104  39.8800707
  69.9089861  46.6927862   8.3727193  70.1794386  47.4831629   7.9053921
  69.8101282  46.9743156   9.2822254  84.6066856  22.4199319   4.3332526
  84.1854763  22.1289825   3.5244513  85.5276012  22.5311971   4.0970871
  65.5238506  23.6977891  31.4772198  65.2972987  23.0650262  32.1587750
  64.7509387  24.2576389  31.4036915  17.0202369  51.0240650   1.5705183
  16.9694632  51.8908453   1.1675929  16.3037318  51.0125971   2.2051191
  80.4254913  58.6681271  43.3835220  79.9500084  58.0315161  43.9172554
  80.6543255  59.3690681  43.9938879  68.9806935  28.3406858  55.6971988
  68.5451409  28.6981372  56.4709887  68.3049199  28.3433465  55.0192985
  74.9530935  53.9018536  18.6258507  75.4197121  54.6825552  18.9241815
  75.5991936  53.4189653  18.1104791  40.1752615  52.6170349  15.5418539
  39.3463850  53.0943155  15.5045128  40.6234169  52.9749393  16.3082063
  50.7496119   7.0661718  14.2544985  51.2674236   6.9126755  15.0447750
  51.2632561   7.6972890  13.7504220  40.0258062   0.9670953  69.0624127
  40.4391191   1.6841535  69.5432867  39.3721530   0.6178645  69.6682238
  43.5168359  15.1693992  63.8545486  43.3892629  15.9549550  63.3227006
  42.9601953  15.3061704  64.6211490  80.8833268  10.6710392  42.8285694
  81.5554717  10.8145481  43.4947968  80.6805518   9.7375923  42.8900957
   1.9781226  47.4414301  30.9331274   2.3671073  47.5516844  30.0655055
   2.6574248  47.0039225  31.4463234  66.8467426  39.1290140  15.1237428
  67.2308636  38.6109829  14.4164038  66.7799234  40.0134563  14.7638404
  82.8154182  51.5460682  34.1940784  82.2266960  51.6351461  34.9435449
  82.6727676  50.6523657  33.8823438  76.1575699  30.3746247  20.8820367
  75.3008223  30.4824328  21.2950683  76.7211914  31.0041523  21.3317680
  79.2373419  27.1415019  37.4964333  79.5064974  26.5467834  38.1965017
  79.0843773  26.5710568  36.7431569  76.4466143  54.7848320   9.5481467
  77.3423433  54.4821787   9.6974844  76.2903738  55.4232836  10.2439928
  63.2486105  76.1414671   4.5290601  62.6429558  75.7385159   5.1511896
  62.7171850  76.7845297   4.0597063  72.4506566  28.4879903  68.7323064
  72.5530526  29.0346460  67.9532556  72.1401784  29.0902690  69.4083961
  60.4348993  78.4198570  33.0713320  59.8917723  78.0163097  32.3942828
  60.7384872  77.6850605  33.6043835  83.5609627  40.1043129  18.7533891
  83.6082554  40.6727171  17.9846799  82.9941177  39.3820620  18.4827065
  29.4980261   1.6832023  30.1943898  30.2935812   2.0855957  30.5428004
  29.1434213   1.1799198  30.9273291   9.4958395  74.7751306  32.6030824
   9.8165554  74.3833779  31.7907402   9.6153921  74.0914153  33.2622263
  74.7841644  56.4740992  11.8331206  74.4523954  55.8148336  12.4426544
  73.9987516  56.8464470  11.4322269  58.2195568  53.5562849   7.3170131
  57.8811169  53.4891081   6.4241648  57.5002384  53.9414597   7.8174680
  58.0164337  18.8507044  15.9983766  58.3463097  19.6414661  15.5716348
  58.7413359  18.5558259  16.5495539  77.8454685  49.1556644  17.2579205
  77.8359222  49.8712206  17.8936279  76.9213295  48.9576197  17.1063256
  17.1764296  72.0807123  35.3926897  17.8336829  72.0382977  36.0872841
  17.2491664  72.9707861  35.0481486  13.4541911  54.5510054  38.1181645
  13.1887549  54.1701841  38.9552712  14.3876094  54.3505239  38.0490613
   6.2969562  11.6513973   3.8547662   6.7626831  11.8557602   3.0438650
   6.5281507  10.7413822   4.0409267   6.2970993   6.3231044  36.2427449
   5.4398081   5.9707885  36.4818311   6.8033191   6.2929588  37.0545745
  29.2390582  33.2132653  60.5964473  28.5240123  33.1512431  61.2297645
  30.0288531  33.2818250  61.1328784  11.5393657  70.2600861   1.6756324
  12.0384711  69.8728704   0.9564725  12.0957774  70.9686184   1.9990826
  83.6434078  63.5582685   0.4887283  84.5079994  63.5628223   0.0780141
  83.7933350  63.1876707   1.3584459  69.2705393  38.9218283  36.6118407
  69.2454290  39.8780680  36.6465878  70.0185871  38.7221718  36.0489917
  33.5286352  12.9949909  27.4430323  32.8628179  12.3116928  27.5205708
  34.3596288  12.5336128  27.5561786  27.7479288  28.4026199  21.8017125
  28.4029981  29.0096241  21.4572501  27.6748583  27.7233463  21.1312842
  37.8679010  19.1794353  29.2989874  37.2521421  19.4201427  29.9911833
  38.2477400  18.3516651  29.5935249  57.4746609  60.1393032  38.7173986
  57.4649620  59.5031023  39.4325113  58.3251810  60.0137091  38.2966018
  63.1735277  27.0019579  36.6320229  62.9255390  27.4817467  35.8417487
  63.0174732  26.0832357  36.4133239  25.9467742  32.7644519  43.7086484
  25.3156755  32.1918897  43.2726189  25.4619023  33.5728912  43.8746545
  21.3927764  72.8758812  23.4752679  21.5839309  72.9369545  22.5393367
  22.2527617  72.8259993  23.8926029  57.7562332  64.0784264  64.8792934
  57.0721483  64.0931082  65.5486536  58.2905340  63.3153820  65.0995779
   4.0376872  49.9715710  62.6257706   4.1000861  49.4083738  61.8543100
   3.4103030  49.5276070  63.1963110  81.5794659  74.5762539  32.3668528
  81.2951469  74.6473789  31.4556265  82.5286198  74.6950388  32.3315620
  13.2110900  42.8317213  56.2444687  12.6126593  43.5549641  56.4316320
  12.9306525  42.5038099  55.3900337  17.4242040   1.4941745  27.9907703
  17.2988626   2.2311931  27.3930001  16.5496227   1.1195999  28.0958581
  79.0132713  75.6872034  31.0306311  78.8823462  75.0189161  30.3579640
  78.5308599  76.4487314  30.7087779  85.3469181  59.7643995  29.6365047
  84.5401669  59.3890953  29.9893880  85.7389259  59.0544748  29.1280079
  35.7130075  78.4921741  32.7643275  35.5219126  79.4057846  32.9765439
  36.4368320  78.5377359  32.1396422  59.9508238  29.3810129   8.1204319
  59.8283863  29.9382377   7.3518342  60.5617189  29.8673987   8.6740267
  40.5680579  59.9162579  22.2092700  40.3621787  59.0920925  21.7681456
  40.6807536  59.6742773  23.1284952  69.4901991  38.3091092   6.3854754
  69.8995543  37.4483800   6.4738292  68.9797020  38.2497859   5.5779451
  62.2544670  73.9867353  20.2656651  63.0658054  73.5465479  20.0122881
  61.6022539  73.6631012  19.6442854  73.3663034  73.8534594  26.7819333
  73.1740427  73.6487484  25.8668590  73.9138937  74.6375418  26.7420125
  42.4347517   3.5428005  59.2026138  42.1471330   3.6199718  60.1123095
  42.1373865   2.6746898  58.9302158  51.9302705  16.8277698  61.7155457
  52.7465561  16.8496757  61.2161160  52.0864156  17.4145179  62.4555349
  61.5549371  38.9542321  61.4415017  61.8583867  38.3744363  60.7429424
  62.3438260  39.4112806  61.7330411  63.6304304  18.2784420  37.6912355
  64.1830751  17.9613739  36.9768953  63.2167169  17.4898201  38.0421567
  60.7406041  19.5360355  61.4278027  61.1441133  20.0852279  60.7556418
  59.8121640  19.5166902  61.1957237  66.5222406  60.8579493  46.8128443
  65.7249260  60.3293991  46.7788696  66.8597126  60.8401966  45.9172869
  23.1672114  57.4327993   3.0251130  22.5648612  56.8699026   2.5387383
  23.1736106  58.2556868   2.5361890  16.4284727  15.0793415  23.0074072
  16.8364355  14.5755535  23.7116742  15.5141327  14.7961097  23.0089283
  17.1242448  11.6879230  30.2303052  17.1089765  12.5507599  29.8161817
  17.5570747  11.1227565  29.5903969  68.7951994  42.1174669  33.7871456
  69.3491220  42.2015858  33.0110478  69.2412186  42.6356602  34.4570494
  65.1493263  76.2315273  29.9029541  64.4285774  76.8500376  30.0221014
  65.8576250  76.7577219  29.5319104  66.8655491  52.3328543  32.4055266
  66.5175200  53.1282997  32.8084755  67.0563793  51.7541790  33.1437325
  19.8912666  16.1558608  66.9693240  20.0457761  15.5620698  66.2346315
  20.5632302  16.8312434  66.8768403  70.8498216  51.3141893  69.2615900
  70.2511144  51.4612399  68.5293648  71.7142654  51.2516402  68.8553123
  64.6159935  73.0395912  59.6162602  64.2600751  72.8922294  60.4925248
  65.1700569  72.2766660  59.4513735  17.8756377  35.4995150  11.6745150
  17.4427459  36.2651295  11.2967980  18.4601590  35.8596272  12.3415101
  34.8822829  73.0899877  28.4112716  34.2909238  73.2312787  27.6719737
  34.3038079  73.0195535  29.1706371  52.2426987  15.2230513  36.3942409
  51.7664576  15.4687905  37.1873569  53.1594515  15.1862025  36.6670775
  19.4584269   8.1630753  46.1064121  18.9069504   7.4126028  45.8852836
  20.2965254   7.9774927  45.6828758  16.9461722  31.7990552  59.4544157
  17.7286047  31.6491692  59.9850401  16.2333960  31.4148079  59.9648437
  84.4518998  46.1202902  23.3460855  85.1967600  45.5420513  23.1816101
  83.7250832  45.5267710  23.5350466  65.0926256  35.2090478  22.0129013
  65.5728769  35.8396006  21.4762497  64.2434311  35.1234460  21.5795779
  79.9566341  68.9293073  57.4318072  79.3296123  69.4869612  56.9712660
  80.6450391  69.5292638  57.7188286  62.9200221  67.7169679  60.6178823
  62.8184486  68.5015677  60.0790724  63.8273931  67.7503012  60.9208646
  71.2100053  43.5672726  51.1976728  71.7129732  42.7532490  51.2226221
  71.4220024  43.9538579  50.3480598  75.5135370  53.2530414  67.4246207
  74.8581720  52.6974689  67.0026380  76.2165618  52.6510225  67.6686816
   9.0455932  22.1052146   3.5754704   8.1248778  21.8449187   3.6030662
   9.3561381  21.9826484   4.4725618   9.4822157  58.0719398  48.5182282
  10.3541816  57.7111708  48.6787006   9.6031917  59.0203415  48.5643837
   7.4006504  44.2620783  30.9425279   7.2614807  44.0763371  31.8711635
   6.9500536  43.5515927  30.4860112  51.5110064  22.9970264  59.4386053
  51.8247747  22.1149135  59.2394686  51.1261892  22.9228950  60.3119040
  15.8608902  28.3541870   9.4633228  16.5732706  28.0550361  10.0283504
  15.0649250  28.1596494   9.9581206  80.0153566  59.8274432  53.1716022
  80.6642414  60.5307220  53.1475136  80.4713035  59.0949713  53.5861239
  54.5287204  66.9020818  67.5643256  55.0006462  66.7780326  66.7408395
  53.9424444  67.6396822  67.3956314   5.8567521  75.5249745   7.8487414
   6.0835883  76.3492919   7.4183017   5.9357927  74.8652912   7.1596825
  18.5558361  11.6057108  56.3996419  18.3589215  12.1131800  55.6122836
  17.8584189  11.8358277  57.0135555  43.7744761   3.1253374   8.3591527
  43.7156343   2.2288755   8.0288118  43.9805126   3.0250847   9.2885238
   2.7863974  58.1047092  62.8424290   2.7515692  58.1070231  63.7989923
   3.5797161  57.6118098  62.6328364  36.8500352  29.9107504  27.9803729
  36.0481358  29.4023418  27.8590822  36.6999054  30.4064369  28.7853503
  31.4525199  26.1034799  -0.2946388  30.9493017  26.1911058   0.5148818
  32.3051381  26.4870572  -0.0893543   5.0576872  37.8930669  40.0969550
   4.8486561  37.6883660  39.1855618   5.0209374  37.0488252  40.5465528
  45.7221317   8.5938114  11.2724817  45.3141499   8.4605455  12.1280634
  46.4496183   9.1916335  11.4445400  45.1455879   9.3127590   2.9206645
  46.0562992   9.2182213   3.1997743  44.9876308  10.2567363   2.9343966
  16.2055106  51.3539074  41.2863704  17.1258396  51.4627241  41.5259311
  15.7323021  51.9321595  41.8846437  38.1740806  63.7167281   7.9632390
  37.7638337  64.5620221   7.7804643  39.0348384  63.7735612   7.5483948
   4.2814634  67.6254732  25.0123620   5.1063583  68.0957050  25.1334381
   4.4908759  66.7159051  25.2246451   9.7848556  70.7048351  19.0175784
  10.0324604  70.9304888  18.1209159  10.1891372  69.8506851  19.1699445
  73.7288523  16.9855869  24.4120741  74.4612455  16.6927707  23.8697743
  73.6332750  16.3017476  25.0749922  55.6956482  17.3862743  15.0349605
  56.3347912  16.6918457  14.8752809  56.2242174  18.1750631  15.1560378
  33.5972810  16.7397022  24.1043997  33.8371658  16.0721910  24.7471404
  33.9341259  16.4042377  23.2735968  24.9966476  51.2519116  30.2661133
  25.0010392  51.5534491  29.3576598  24.1555116  50.8062047  30.3664684
   9.0586323  38.9173338  45.6714484   8.3445019  38.2859875  45.7588980
   9.7054524  38.4729199  45.1234004  63.2488823   9.6101612  14.0960562
  63.2501364   8.9289027  14.7684526  64.1646719   9.8798829  14.0266669
  70.4180336  62.5828457   6.6008705  69.5947504  62.1912861   6.8926281
  70.2599812  63.5262823   6.6352332  63.2474136  23.1663895  14.1603100
  63.6181307  23.8715744  13.6297297  62.4259520  22.9436135  13.7223625
  22.1270985  67.2041439  69.4301053  22.1942276  66.4541935  70.0211200
  22.8618140  67.7673648  69.6734276  58.4931517  26.2447453  23.1435633
  59.2712593  26.6851497  23.4853601  58.8323879  25.6289220  22.4940181
  41.3141680  28.5549355   0.5101533  41.9192266  29.2719412   0.3203165
  40.7177782  28.5402703  -0.2384061  67.2141409  56.4708184  37.8496191
  66.3699627  56.6632281  37.4414870  67.6002288  55.7939862  37.2936818
  50.5859137  13.9586675   4.0099525  50.6210327  14.8153615   4.4354808
  51.3345146  13.9566624   3.4134409  70.7534814  69.9519943  45.9702775
  70.4672409  69.4497536  45.2073547  71.3845802  70.5807375  45.6200930
  16.8951649  41.4944237  55.6325492  16.6307062  41.6129509  56.5448233
  16.1690277  41.0155912  55.2329549  79.9725080  36.2128572  58.4236249
  80.0664258  35.4098009  57.9112658  80.5062366  36.0629143  59.2039344
   9.0102023  20.7337046  17.1349263   9.5944327  20.4835129  17.8506899
   9.3546504  20.2702904  16.3714910  59.1506124  51.0989319  59.0807685
  59.2110658  52.0109294  59.3650862  58.9675761  51.1521147  58.1427380
  43.1809044  41.0124159  18.8404691  43.2903671  41.8245745  18.3458459
  42.9544115  40.3581285  18.1795311  28.0381102  78.0944322  58.1947789
  28.8504786  78.5183166  58.4715649  27.4662108  78.1497119  58.9603552
  10.8053634  16.5484790  60.4662642  11.6419456  16.5887908  60.0028619
  10.1972148  16.1716870  59.8303291  47.7448797  10.1944804   3.2613409
  47.8709126  11.1294889   3.0997682  48.5749722   9.7930008   3.0044580
  35.0403688  77.8581042  27.8903270  35.9782502  77.9267866  27.7117300
  34.8842284  78.4861741  28.5955787  29.8480082  23.1315923   1.6809809
  29.0192342  23.1085873   2.1593481  30.4844856  23.4524751   2.3198569
  77.0992231  37.8053474  12.9912305  77.9145575  38.0035090  12.5305867
  77.3754787  37.5719047  13.8774693  47.6635981   9.2618114   5.8049279
  47.8741217   9.5091677   4.9045244  47.0291567   9.9186939   6.0916662
   1.2433047  74.2412518  68.9894614   1.4798827  73.4269260  68.5454658
   0.4050536  74.4911955  68.6007443  30.6949804  79.2162660  13.4743071
  30.8596465  78.6178241  14.2029929  31.1283252  78.8067799  12.7254641
  42.7446461   6.5121007   8.6321658  43.0686665   7.4028265   8.7657678
  43.4996510   5.9527040   8.8145852  47.1572161  29.7196007  11.0326612
  46.7052889  29.2045951  11.7010617  47.9910755  29.2672706  10.9049404
  57.5627494  71.1205886  54.2278370  56.9820071  71.8272947  54.5098635
  57.8995252  71.4111732  53.3802673  21.0350603  59.7019945  61.7073885
  21.8599839  60.1855277  61.6634545  21.2632603  58.8775657  62.1368912
  58.4261129  65.4746038  29.5289159  58.3339021  65.0680131  28.6672807
  58.5891244  66.3989837  29.3413472  31.3270423  11.8011216  62.6555273
  31.9754121  12.2610645  63.1887242  30.5167243  11.8579559  63.1618777
  20.0976128  71.0067652  47.7284095  19.5309538  70.4345702  47.2109863
  20.8291334  71.2100934  47.1455118  65.7653713  20.2027893  10.0790441
  64.8962212  19.9740195  10.4083908  66.2654543  19.3886817  10.1371634
  73.7877893  18.2540953  12.9100609  74.2051601  17.5131869  13.3494771
  73.6548996  17.9551589  12.0105004   9.0511462  80.1174195   4.6209064
   9.5353458  80.0168134   3.8013569   9.5815608  79.6561854   5.2706414
  20.1955175  44.9869108   2.1329205  21.0086751  44.4867325   2.0634609
  20.4680514  45.8421803   2.4652933  29.3604228   7.8015880  45.6251189
  28.4083268   7.7065067  45.5986902  29.6911666   6.9033889  45.6162092
  85.7737827  59.0492535  14.5290971  86.3000774  58.4157467  15.0168633
  85.4937267  58.5754919  13.7459302  78.7319732  69.3375467  61.5972981
  79.2333198  69.6057485  62.3673305  79.0215993  69.9309515  60.9043190
  40.8785963  10.7462502  11.6395152  40.6127262   9.9000806  11.2795949
  41.7391491  10.5826592  12.0254052  26.5615794  52.3214549  15.0771332
  27.2342441  51.6814226  15.3097534  25.7948348  51.7931671  14.8552299
  73.7182594  73.7802957  30.4171798  73.9102722  74.2977618  31.1992237
  72.9201532  74.1710566  30.0614187  14.0278357  14.0606821  24.6124172
  13.2577342  13.7215042  24.1562104  14.4172973  13.2919419  25.0290608
  43.4660813  75.6506384  25.3111529  43.9876744  74.9559862  25.7131886
  43.8208911  75.7348818  24.4261408  73.8324571  69.6806024  61.7122742
  74.4660831  70.3773235  61.5410182  74.3604780  68.9510702  62.0366308
  78.0422163   9.2747504   9.2188615  78.7822390   8.6728913   9.1391015
  77.2697830   8.7209803   9.1051924   2.5496525  60.0664960  60.9482643
   2.6524157  59.4301199  61.6558632   2.9878706  60.8545803  61.2693879
  69.4033813  32.2694850  36.1083865  69.0840721  31.4844108  35.6634927
  68.7055302  32.4972248  36.7226887  64.2712400  79.5381179  19.0515852
  64.9594876  79.5223205  18.3865261  63.4832284  79.2553935  18.5875416
  39.4479084  49.5113993  12.8595769  39.5349145  48.6251497  12.5085449
  39.0362954  50.0094128  12.1533275  28.3064961   0.9418571  12.7771521
  28.4773684   1.2188842  13.6773133  28.5397840   1.7019999  12.2442436
  71.7554712  26.6594028  12.4745035  71.7536974  26.5864658  11.5200877
  72.5504255  26.2018347  12.7482033  62.4963856  49.7195673   5.7485372
  62.8491831  50.5083942   5.3368062  63.1493330  49.4802094   6.4062583
  58.8812566  66.2853240  53.1343266  59.3254734  65.5509733  52.7104935
  59.5759511  66.9230746  53.2983586  11.2715287  47.1551333  57.3343524
  11.0706038  47.5266515  56.4753780  10.4761404  47.2955494  57.8480360
  16.7837045   2.3838214  52.5696990  16.9424197   3.0446366  51.8956372
  17.1269843   1.5725211  52.1952864  69.6505762  52.9986058  49.5929024
  69.0687538  52.4666761  50.1358232  69.3131137  52.8910874  48.7036392
  64.1926670  10.1665497  17.4020743  64.0745878   9.3269205  16.9578767
  63.3031416  10.4619002  17.5963712  22.4169558  10.2807224  66.9818020
  22.8240508   9.4539165  66.7231417  21.5342158  10.0364006  67.2598314
  76.6731927  69.3649978   7.0243615  77.0341966  69.1546089   6.1631733
  77.3162458  69.0207846   7.6442289  63.5687256  41.3350773   9.5557803
  63.1229448  40.5364656   9.2734122  62.8610706  41.9559574   9.7288835
  83.5846353  66.4596079  49.1972157  83.2959962  67.0621203  49.8827073
  84.0769363  67.0089482  48.5872194  54.4596481  15.9382176   4.2928338
  54.2351913  15.6694245   5.1836765  54.2177820  15.1889539   3.7484652
   8.8728327  51.7587017  42.0996520   9.4911665  51.0612856  42.3176095
   9.0872521  51.9955467  41.1973426   1.4218659  46.0275529  64.1511783
   0.8200116  45.4184307  64.5789316   2.1100420  46.1789309  64.7990468
  19.5898575  67.7421306  69.1069121  20.4803652  67.3932980  69.1461826
  19.6948237  68.6283372  68.7607130  62.0521021  20.2178311   2.4123709
  61.5461302  20.3097725   3.2196930  62.6654911  20.9524727   2.4291603
   9.9048156  18.5131860  15.7644451  10.5830878  18.0694616  15.2552450
   9.6473521  17.8739548  16.4287698  70.8555508  39.1651821  13.0477524
  71.6349840  39.7138572  13.1353235  70.1843929  39.6194744  13.5570633
  54.8205281  53.1480073  53.9699826  54.5884324  54.0430294  53.7223968
  54.6921278  52.6374243  53.1705758  85.0503564  40.8062238  57.9113325
  85.7934595  40.2644674  57.6457664  85.3769756  41.3129732  58.6548075
  83.4430313  16.9631898  17.8265905  83.7660313  17.1195948  16.9392133
  82.5693035  17.3540163  17.8357995  67.6261330  80.1198769  12.7787304
  68.5643911  80.2634144  12.6550436  67.4646950  80.3633785  13.6902535
  72.1205536  75.0561423   9.8566550  71.6206661  74.7468383  10.6120849
  72.0786730  74.3339903   9.2297786  19.2523307   1.7997608  19.1742015
  19.8450774   1.9071594  19.9180794  19.7196502   1.2144868  18.5781312
  67.0302629  22.6799059  14.4313884  67.1209812  22.3645473  13.5321939
  67.9015255  23.0030990  14.6609044   4.5501990  65.9038423  61.1393574
   4.1167111  66.3304208  61.8785140   3.9867634  65.1593398  60.9284255
  77.7574447   7.6417855  66.1905754  77.7330569   6.6858653  66.1475205
  78.4016398   7.8949622  65.5294070  26.5793845  10.1919870  69.8945074
  26.7877814   9.2686013  69.7525433  26.2281511  10.4900054  69.0554266
  43.2985514  59.1065598   9.9700028  43.4072512  60.0565910   9.9268961
  42.6896685  58.9678240  10.6954312   8.7266774  58.2499133  40.1033327
   9.4854016  58.7790428  40.3494927   8.0952639  58.8819145  39.7596428
  20.6144378  71.3526005  13.6483133  19.8700664  71.9461811  13.5492945
  21.1389968  71.4926780  12.8599930   8.5475821  66.9915079  32.3065850
   8.2956642  67.7732204  31.8149611   8.1485028  66.2668251  31.8251273
  41.7451525  17.7503562  14.4125521  41.4669704  18.1512332  13.5890579
  41.8499470  16.8221176  14.2036867  32.8518960  80.8332618   8.7648159
  33.4635064  81.0210876   9.4767767  31.9876668  80.8750564   9.1741931
  65.7364413  78.0635051  13.6581206  66.6098556  78.4236658  13.5042918
  65.2020887  78.8225505  13.8916779   3.8694304  24.8733521  37.7180314
   2.9496783  24.6190023  37.6432300   4.1275424  24.5839834  38.5931730
  61.4401007  37.0331454   6.1695814  61.6873264  36.1700559   6.5015256
  61.8656635  37.0916891   5.3141874  68.7071228  71.9504595  17.1085501
  68.9539671  71.0306454  17.0123947  69.1091776  72.3861647  16.3570559
  74.2675114  30.6988335   2.4788094  74.9213791  31.0426497   3.0874792
  74.7793293  30.2503347   1.8056670  66.5198660  76.1060070  69.2559182
  65.7409835  75.5643533  69.3831543  66.8963433  76.1936019  70.1316018
  39.7160149  38.9564610   6.8790859  40.2614450  39.5639825   7.3787397
  40.1074791  38.0974340   7.0373952  15.0083298  56.8457709  61.4205345
  15.7989830  57.0932590  60.9411088  15.2771134  56.1000024  61.9570205
  57.8559542  20.5857706  24.2118645  58.5903740  21.1969113  24.1538310
  57.2020483  21.0463786  24.7376776  81.6999507  59.7532128  57.4083885
  82.1000553  60.6163071  57.3024854  80.8935714  59.7983597  56.8946347
  55.8463955  12.7277863  10.0253487  56.3704729  13.3923101  10.4725420
  55.6720257  12.0683718  10.6969142  52.9687834  58.0451107  13.0672169
  52.3971415  57.2967720  13.2388139  53.4984732  57.7748537  12.3171365
  70.0600124  44.1600020  62.2044483  70.1827646  43.2333474  61.9983533
  70.9033418  44.5644163  62.0007971  57.0703602   9.8636383  -0.1859451
  57.0290899  10.6040180   0.4193375  57.9429436   9.4934928  -0.0524531
  62.6876926  26.8561554  26.3473582  63.4278107  27.1836805  26.8584180
  62.0862150  26.4973068  26.9998026  66.9424486  10.9023213  16.9143844
  66.0306597  10.6520438  16.7652667  66.8911934  11.7811620  17.2902083
  80.7533357   4.9385862  56.7267033  80.0822255   4.3054752  56.4717290
  81.1951253   4.5321349  57.4722537  44.7946832  73.5653443  18.8573253
  44.6301458  74.2703629  18.2311404  45.0811622  74.0137309  19.6530080
  85.6912446  10.5932401  55.8100685  84.8833633  11.0291527  56.0812482
  85.7966495   9.8747276  56.4336559  47.8457117  22.7491617  17.6659536
  48.6319828  22.8778982  17.1354449  47.5888157  21.8426228  17.4973667
  46.5394497  68.3528852  21.7957973  45.6586885  68.7261629  21.8298221
  46.5595913  67.8610563  20.9748673  19.7752139  58.3024806  19.8984718
  19.5833919  57.5564260  19.3302822  20.1072452  58.9762635  19.3051720
  74.6326113  39.2756462   9.7297257  75.5451965  39.3311214   9.4462752
  74.4638729  40.1141787  10.1594031  59.5784569  42.2213221   2.6420513
  59.1181087  42.6881409   1.9446340  59.6702528  42.8672028   3.3425111
   7.7882975  27.1448135  29.1023040   7.8354091  26.2402415  29.4117546
   8.5723323  27.5614572  29.4599843   4.3416447  62.0806573  56.1495396
   3.8322825  62.8645943  56.3550314   4.8754639  62.3325776  55.3960106
  84.0972591  26.6545867  49.2817828  83.4300876  25.9941064  49.4685408
  84.1668630  26.6614531  48.3271405  64.8968554   9.8798037  10.3205287
  65.5162811  10.3075337   9.7292656  65.4043818   9.1822672  10.7353675
  48.6621094  27.8813219  13.3538628  47.7161741  28.0019331  13.4368992
  49.0358067  28.7152863  13.6386216  25.5908132   7.5217307  22.8457665
  25.3895044   6.8781435  23.5251069  26.0447025   8.2254362  23.3094621
  26.2432763  79.4260713  13.2757711  25.8140514  79.5175711  12.4251091
  25.9735439  78.5625446  13.5884976  60.2308941   7.0791316  43.7928152
  60.6252575   6.4402944  44.3866158  60.7499695   7.8737408  43.9168644
  76.9898987  30.5336285  15.1071811  77.8609419  30.6721783  14.7352755
  77.0391369  29.6701217  15.5172586  55.8242846  26.3558507   4.0500426
  56.6922903  26.5028834   4.4257832  55.7134676  25.4052544   4.0678707
  11.3923735  72.4923132  48.4317943  10.5134625  72.8650259  48.3622906
  11.8290753  73.0301713  49.0922734  56.6949129  38.1279993   4.6065742
  57.5742912  37.9270458   4.2863578  56.7911339  38.9644814   5.0618422
  51.0567331  34.2755365  10.5790198  51.2554359  33.3410120  10.5206013
  51.8976831  34.7087955  10.4330039  80.6622601  49.3401194   0.9103435
  80.1155281  49.2570543   0.1290473  81.5358639  49.0775299   0.6203729
  15.0124544  55.2008818  69.7401089  14.5506949  56.0361956  69.8126316
  15.3525538  55.0380431  70.6199086  71.6802955  54.3550633  61.9141969
  72.0824886  55.2155183  62.0329073  71.0671020  54.2744480  62.6447615
  56.2495708  30.1692796   4.5361969  55.3003693  30.0563502   4.4863188
  56.5937853  29.6158481   3.8351527   1.8697352  65.3642367  68.2093236
   2.4595064  66.0895561  68.0036151   1.7045779  64.9431919  67.3657149
  44.6954772  72.4308521   5.3022027  45.4934356  72.7377707   5.7326561
  44.0913961  72.2458888   6.0213053  60.3075695  38.0566740   9.7426236
  60.4692316  37.1140146   9.7812676  61.1777353  38.4454679   9.6538228
  75.9411097  25.1701760  13.1473494  75.0157833  25.0029039  13.3263123
  76.4093494  24.5590973  13.7161732  46.1893654  22.4603415  10.4608822
  46.5555334  21.6748261  10.8672285  46.7015553  22.5770307   9.6607083
  -0.1143985  62.3148464  57.5173852  -0.0377088  62.2006963  56.5701148
   0.2278561  61.5001463  57.8852913  65.0068307  72.4675940  66.7494222
  64.8099876  71.6807388  67.2576946  64.3549181  73.1071924  67.0360517
  57.3564717  79.6199838  23.8217783  57.2446057  80.4538124  23.3652186
  58.0011842  79.8053889  24.5045638  39.3024731  29.1513228  22.0814943
  40.1216125  29.3263721  21.6182494  38.9938307  30.0145507  22.3568296
  22.0282149   2.6065773  24.2352486  22.3376822   3.3559793  23.7264657
  22.6966929   1.9344607  24.1024733   3.4513707  46.5962033  66.1025953
   4.2371029  46.0563509  66.0165113   3.1545967  46.4458148  67.0001143
   1.0259074  12.0772660  12.5274539   0.2978057  12.0905781  13.1486762
   1.7717761  12.4118268  13.0254328  71.0465074  38.3839338  57.2488210
  70.1253725  38.6382611  57.1935031  71.4906335  38.9546500  56.6217109
   8.1478018  73.9176582  38.8004896   7.3424286  74.0335511  38.2963249
   8.1392330  74.6352814  39.4338748  55.9744645  70.2810429  66.4303508
  55.8904338  70.4549001  67.3678714  55.7475782  71.1112999  66.0115099
   9.1975281  60.4720826  16.7158234   9.2445633  60.3955502  17.6687992
   8.4008381  59.9985237  16.4765394  16.8300807  45.5925179   8.5367709
  17.0401132  45.6995964   7.6090568  16.6899180  44.6516752   8.6435694
  82.9781414  62.1083091  68.7228870  83.0147434  61.2322544  69.1068393
  82.0847583  62.1859597  68.3881196   4.2872233  39.1863008  60.7342580
   4.2400593  38.9717488  59.8026058   4.8988098  38.5454813  61.0969511
  54.9432325  44.7198296  25.9158635  54.4847202  45.2887344  25.2975273
  55.8003521  44.5729065  25.5158734  67.0912937   9.9463491  53.2900914
  66.6180316  10.7479743  53.5129043  67.2976497  10.0406532  52.3601684
  48.9192292  27.1353988  65.4808202  47.9832503  27.2513084  65.3173080
  49.3403957  27.8137807  64.9529537  70.0808334  38.3225012  10.7511449
  70.2941465  37.3895144  10.7348537  70.3833771  38.6224341  11.6083157
  44.4820595  19.4466829   4.5744085  44.3516445  20.1795864   3.9726815
  43.8377523  18.7940764   4.3001801  74.9070692  35.5388618  23.5582185
  74.9171352  35.1312518  24.4242358  75.4635191  36.3121581  23.6509895
   8.4022850  33.4143281  17.0396435   9.3532312  33.5218930  17.0206094
   8.1195742  33.9174485  17.8033030  27.9914996   4.3504695  43.5000917
  27.4734447   4.8470144  42.8666183  28.0717323   3.4786920  43.1130502
  39.9750993   6.6385297  52.9069278  39.9245259   6.0555057  53.6643967
  39.0995738   6.6067485  52.5213417  33.2887745  51.8412590  -0.2086569
  32.3878455  51.5181017  -0.2198709  33.5047889  51.9162226   0.7208326
   8.7545294  54.4388603  66.6038805   8.6736578  54.3209802  65.6574154
   9.4173283  55.1221083  66.7043787   3.6634297  52.9132854  58.7183937
   4.5824093  52.7268587  58.5261688   3.4258551  53.6066924  58.1027839
   1.7390364  42.4890423  31.3468480   1.8692416  41.9989300  30.5350161
   1.4569682  41.8304443  31.9816089   0.5988997  47.2900677   8.8816392
  -0.2907735  47.5509548   8.6436254   0.4882163  46.7438078   9.6598321
  11.0890192  80.5787490  49.8434254  10.3424782  80.0407218  49.5799205
  11.5537638  80.7601045  49.0265056   2.9811686  27.0737028  44.7749090
   3.7961024  26.8486929  45.2237892   2.8490561  26.3628149  44.1476822
  50.2950856   9.9931363  51.8389353  50.0016400  10.8830194  52.0344672
  49.5198533   9.4492416  51.9783327  25.3972453  73.9636803   7.9923290
  25.2098101  73.1336212   7.5540298  25.0365084  73.8565922   8.8724619
  65.6971741  18.6925840  13.4643435  65.1733065  19.4777417  13.6234736
  65.5952978  18.1712353  14.2606163  84.2086124  34.5454383  15.3150070
  85.1071930  34.2588592  15.1516998  84.2464161  35.4998207  15.2520788
   3.4385104  66.0709499  54.5784888   4.3203301  65.8599161  54.8852310
   2.8618092  65.5264877  55.1144048  64.7485209  42.2935104  32.4552989
  65.4406786  42.8863382  32.1625543  64.7052479  42.4250078  33.4024358
  17.9130024  57.6607297  53.1492087  18.2763428  57.0200013  53.7605044
  16.9695277  57.6357864  53.3088013  29.8363131  18.1629002  13.3748162
  29.1895694  18.4670448  14.0115690  30.6575888  18.1286359  13.8652909
  73.2127476  41.2826395  25.6149721  73.2219315  40.9427118  26.5097332
  74.1211796  41.2106133  25.3220582  46.6297862  20.6819991  63.9459237
  47.4259135  20.2884845  63.5887691  46.3186452  21.2642173  63.2527807
  56.7368412  50.9401703  12.7757657  57.1374226  50.1133394  13.0443108
  56.2295198  51.2192249  13.5379910  67.6044130  64.6746349   1.5371005
  67.2292471  65.4253387   1.0767516  66.8595219  64.0952396   1.6973378
  13.2992667  37.2866392   1.6127753  13.6219519  37.0129895   0.7541581
  14.0689772  37.6448536   2.0548899  77.5153255  27.5605845   4.4121483
  77.0667934  28.0688787   3.7363616  78.3450174  28.0189252   4.5454606
  66.2699414  78.2104276  51.8972489  67.1508456  78.4878110  52.1488401
  66.3549448  77.9443883  50.9817001  54.8100662  55.0301123   7.9112470
  54.7584772  54.1568995   7.5225616  53.9448929  55.4108763   7.7605075
  16.9063038  74.5248674  64.9338195  17.0782084  73.6640166  64.5522252
  15.9932799  74.7073220  64.7116992  53.0531976  76.1203257  25.9468389
  53.1481168  76.2625015  26.8886495  53.6960122  76.7080939  25.5499029
  31.2339446  75.0397736   0.2786509  30.5448816  75.6471629   0.0093864
  31.9677684  75.6034309   0.5236473  36.6902918  75.4750680  60.4762283
  35.8341212  75.8313035  60.2389625  36.6804213  75.4449676  61.4329037
  59.0765142  56.3511038  48.0636787  58.8467360  56.2471104  47.1403027
  59.7277355  57.0525980  48.0709028  34.5805308  10.5094747  66.6051051
  34.9339387   9.6836976  66.9359085  35.3515622  11.0107354  66.3396344
  12.0835418  16.1998498  18.9801264  12.4977607  15.3375602  19.0134144
  12.6789206  16.7704868  19.4660604  83.0539823  80.7271265  62.8308871
  82.5234485  79.9652480  62.5978574  83.7062812  80.3865717  63.4430638
  83.2280234  19.2502431  59.4690522  82.8940276  20.0713853  59.1079292
  82.9056052  18.5765962  58.8703260  27.9997153  71.7531131  62.9239425
  27.0752043  71.5091823  62.9687521  28.0399508  72.6161741  63.3359358
  47.9674620  70.0302170  48.2616684  48.5458083  70.7373594  48.5474941
  47.5615401  69.7120641  49.0680405  11.1516017  32.6119018  15.9703243
  11.3421935  32.3968792  15.0572705  11.8298453  32.1574616  16.4700210
  29.7845266  33.3237580  65.1059702  29.2628858  33.7646512  65.7765946
  30.2850530  32.6645927  65.5868021  83.1331707  78.4725617  39.8949358
  83.7070966  79.2347930  39.8184988  82.8990102  78.2575582  38.9920661
  19.1315192  12.8255212  11.5244365  20.0137919  12.7065301  11.1727619
  19.1670722  12.4350452  12.3976469  57.7626324  27.7313733   7.3640847
  57.4627495  26.9314384   7.7958345  58.5506678  27.9825878   7.8458738
   1.4301699  43.7911034  11.7261922   1.0696811  42.9178381  11.5722728
   0.7615489  44.3886614  11.3913858  81.3840700  54.1504358  48.4555432
  81.7250085  53.6741851  47.6984569  80.4432607  53.9743517  48.4454581
  41.8082905  15.5660474   1.0711200  41.7456675  15.3023136   1.9891368
  41.4517641  14.8233807   0.5837077  64.4861889  40.7248545  18.6207557
  65.1553106  40.0648069  18.8019776  64.9630356  41.5548182  18.6179101
  47.3400784  64.6369982  36.4440632  47.0188761  64.1161919  35.7079816
  48.2632160  64.3965054  36.5228558  27.2574708  74.2164553   6.2364930
  26.7178104  74.5972098   6.9293296  26.6607949  74.1189790   5.4943979
  70.6502485  21.4047313  25.4312253  71.4603043  20.8972049  25.4808021
  70.6802797  21.9791198  26.1963439   6.2131900  62.3987198   1.8996891
   5.4428977  62.9669476   1.9001640   5.9911746  61.6948032   1.2902310
   5.0825328  35.3788161   3.7947637   5.0489825  36.2101483   3.3214834
   5.9891433  35.0863600   3.7011835  84.2251656  55.5695060  60.6518644
  84.8716424  56.1406710  61.0666841  84.1775677  55.8789399  59.7473091
  56.1927414   7.1412921   0.9528603  56.0678339   8.0337083   0.6300242
  56.5739822   7.2528028   1.8237521   0.8894843  30.3148031  26.7431593
   0.3419799  30.6558156  27.4503946   1.4795894  31.0369849  26.5276051
   7.2439951  54.5247077  42.9429290   8.0299658  54.0884291  42.6140854
   7.3970599  54.6171700  43.8832757  59.3787575  60.7956648  47.9938602
  58.6127281  60.9441805  48.5482740  59.2302561  61.3488770  47.2269583
   6.5930578   1.4986377  32.4181485   5.7736990   1.4321952  32.9085255
   7.2235986   1.8427330  33.0507994  71.9886637  51.0234785  12.0341742
  72.4328423  50.7023621  12.8189170  72.4548626  50.6086111  11.3083827
  80.4837513  33.4094357   3.6658973  80.5521107  34.3116236   3.3534604
  80.7379532  33.4552526   4.5875895   2.1422404  33.1966066   5.6165183
   1.3196009  33.1628013   6.1047280   2.8031272  32.8946185   6.2396234
  76.4284182  49.7396278   6.5807676  77.0631552  49.9670887   5.9013575
  76.9354677  49.7417450   7.3926324   1.7447228  59.7548472  67.8634959
   2.2529597  59.2457841  67.2320035   1.5519900  60.5754326  67.4099284
  84.8903919  64.4020651  59.0337071  85.6264568  64.9950908  59.1845640
  85.2391410  63.7322091  58.4455773  80.6759071  43.1486988   4.3724892
  80.4871464  43.7572718   5.0868011  81.6083717  42.9531050   4.4645888
  74.3052888  59.9060641  43.6088321  75.2300525  60.1105879  43.4702298
  74.2697025  59.5467804  44.4953319  63.5135221  46.5988731  14.5870292
  62.7546501  47.1653366  14.4474971  63.2426596  46.0034132  15.2858078
  49.8801133  14.0036754  66.9846263  50.2675531  14.7852639  67.3786339
  50.5702874  13.3424119  67.0358303  42.6323748  17.7543998  17.2106862
  42.5013208  18.6323237  17.5688827  42.3448849  17.8218377  16.3001728
  69.8844910  41.5475559  36.9224191  69.9804211  42.3836279  36.4663291
  69.2305803  41.7181683  37.6003003  20.3676746  18.2615642  60.5069116
  20.2874276  18.5475949  59.5969781  19.4687173  18.2535199  60.8356139
  63.0337524  60.1103258  30.8680010  62.4493647  60.8540630  31.0149264
  62.4465513  59.3625355  30.7573915  45.7020089  27.7572755  42.0023701
  44.8164031  28.0319337  41.7646858  45.6131742  27.4011449  42.8864023
  57.2790813   4.5115730  22.5070596  56.8747187   4.7373167  23.3447719
  57.9771328   3.8978386  22.7357221  28.6033148  77.8970026  43.0229518
  28.3968920  78.7129973  43.4787771  29.2337126  78.1518553  42.3492476
  82.5399092   3.2762365  58.5076675  82.5292209   3.4380941  59.4510230
  83.4073094   3.5657672  58.2247910  63.0276966  38.2365346  39.2449450
  62.1560383  38.2578039  38.8499904  63.1926441  37.3084617  39.4114017
  22.9693532  35.1092196   7.4099678  22.2639847  35.7431078   7.2800630
  22.7496910  34.6716762   8.2324862  61.6916180  26.0024881   7.7197641
  62.4851274  25.5012488   7.5318044  61.6645765  26.6730237   7.0372081
  71.8488503  44.2001438   1.7200974  71.6045570  44.0656376   2.6357719
  72.7927828  44.3570614   1.7446066   0.3208751  28.6251974  17.4621797
   0.4881495  28.4110069  18.3799887   0.4585093  27.8011632  16.9949985
  13.6627383  64.8637556  59.3568990  13.4972185  64.4281338  58.5207948
  13.9920182  64.1694592  59.9276504  84.6205616   8.7601519  23.3007216
  84.7329330   9.2113030  24.1374230  83.6743164   8.7553042  23.1564140
  75.3393030  39.4619823  14.9917078  75.7299757  40.0512600  15.6369650
  75.7663107  39.6931076  14.1667986  52.7323434  23.1222705  67.0280504
  52.2221658  23.9101962  66.8406337  52.6201818  22.9823283  67.9682992
  41.5804240  23.4016732  41.0053918  41.7102763  23.2009963  40.0785157
  41.9268081  22.6378087  41.4666507  11.1691779  14.7740757  14.6383333
  11.0802764  13.8790524  14.9658394  11.5527648  14.6733451  13.7671578
  59.6910858  25.9790421   2.8518927  58.9367771  26.3259149   3.3282629
  59.3383360  25.7202005   2.0005409  54.7431040  42.3911142  15.1885080
  54.2858458  41.5595675  15.0633144  55.2850151  42.2518969  15.9651577
  25.9761331  13.3976249  68.4152661  25.7465551  12.5871877  67.9606014
  26.1764857  14.0172986  67.7137737  54.3164015  31.0555005  10.0852919
  54.7005796  30.3883624   9.5164639  55.0563765  31.3975096  10.5869865
  16.7151278  22.6675749   8.0617827  16.9916648  23.0248761   8.9056391
  17.5323027  22.5114560   7.5884098  28.7318034  79.8434495  51.5199301
  28.9439387  79.7319482  50.5932149  28.3195299  79.0172885  51.7723522
  78.5411406  23.3516502  20.4908252  78.9118528  22.5361991  20.1534176
  77.6520920  23.3750820  20.1368713  49.0419669  63.9411067  33.1642672
  49.2092509  64.5290946  32.4277088  49.5170111  64.3335889  33.8967368
  22.5451392  29.7234273  22.4825382  23.3899230  29.2986202  22.6312804
  22.7694720  30.5962014  22.1597791  66.6175413  44.8790741   4.0355331
  67.2291422  44.1484022   3.9444637  66.0246372  44.6091509   4.7368431
  57.9370403  23.7612629   5.9442770  57.7681398  22.8581238   5.6758612
  58.6484241  24.0517116   5.3734821  52.4621248   6.1579502   9.4007558
  52.6974773   5.2829820   9.7094178  51.7616701   6.0076171   8.7659395
  82.8128362  57.3997115  65.8114254  83.3996034  56.6463255  65.8773637
  82.0856834  57.0904063  65.2712318  79.6642017  35.4960251  43.3687449
  80.5838013  35.2527308  43.2620716  79.1807556  34.8179412  42.8968191
  80.0806788  15.1852254  67.6906325  79.2128137  15.3708343  68.0492304
  80.6862381  15.6161622  68.2938075  30.7588959  57.3862934  33.6770701
  31.2985969  58.1614971  33.5221052  30.0984073  57.6761723  34.3063188
  11.8389338  36.0068250   5.8211303  12.6954287  36.0135388   6.2484556
  11.9558066  35.4392171   5.0592941   1.5372319  60.2394603  58.3168253
   2.1450037  60.1070450  57.5892863   2.0785422  60.1474689  59.1008863
  78.6286402  42.8803825  12.0264375  78.0901241  42.9524565  12.8144956
  78.6394882  41.9439173  11.8285811   4.1615313  23.3694363  17.3236716
   4.0665168  24.3194485  17.2552478   5.1074141  23.2226372  17.3226130
  59.3090150   4.7345428  68.7864427  58.9381597   4.5531444  69.6500327
  60.2501104   4.5987252  68.8965829  76.8946314  61.1872482  47.8178120
  77.3723173  60.5345726  47.3058891  76.4767122  60.6843424  48.5168552
  82.1834922  31.7605548  50.7343385  81.6816020  32.1283166  50.0069544
  83.0961347  31.9472264  50.5141851  67.7243090  43.2285452  22.9329705
  66.9392824  42.9498482  22.4614930  68.2313538  43.7183237  22.2854710
  59.1827676   7.7850799  46.6864058  58.9907167   8.6092834  46.2391516
  58.3240697   7.4378328  46.9278142  32.4478126  45.0641394  17.1689677
  33.2369494  44.7189760  17.5865269  31.7471552  44.8850775  17.7960634
  54.2988205  23.8246536   5.6114608  54.8378038  23.6466813   4.8407087
  54.1537094  22.9647040   6.0060018  61.1468315  43.7857246  12.8239334
  61.2347269  42.8777122  12.5340724  61.9615793  44.2052984  12.5475776
  72.4891853  54.1018772  12.6299953  71.8975592  53.5366392  13.1266963
  72.9384470  53.5084009  12.0281804  12.6464003  38.5709906  49.8713827
  12.9874629  38.8165236  50.7313919  12.6179713  39.3928123  49.3814468
  81.5415764  27.2656703  17.2965848  81.3562965  26.6669416  16.5731025
  81.0776615  26.8887401  18.0442071  40.9516141  31.2138061  67.5246602
  40.8622977  30.4855470  66.9099325  41.8809364  31.2211637  67.7538705
  23.1371114  75.4326285  25.7900023  23.7209031  75.0788248  26.4610028
  23.1513784  74.7787184  25.0911260  48.7296626   1.6936425  62.6457581
  48.5849759   1.1717014  63.4349826  48.2773873   2.5193862  62.8184470
  43.3039856   9.1864908   6.6029102  43.8094711   8.5286832   6.1254108
  43.7178183   9.2271775   7.4650711  78.7064075  18.8419402  44.0825558
  79.2256880  19.2360151  44.7834682  79.2122221  19.0083826  43.2871437
  10.1225776  49.4481087  27.0531249  10.6260222  48.6732340  27.3028159
  10.3417891  50.1007032  27.7181768  64.8176050  22.1306539   7.0261991
  65.1614189  22.0015502   7.9101431  64.4065905  21.2950587   6.8046623
  48.1024694  36.7092776  18.2151616  48.2361364  36.0700297  17.5153565
  47.3516893  37.2277474  17.9257584  75.6855154  52.3634624  25.0450873
  75.3460550  52.2083282  24.1636515  75.2351570  53.1552076  25.3392792
  69.9265623  20.8255124  11.9517672  70.2097034  20.4271054  12.7747715
  69.2746210  21.4760971  12.2124314   9.2883989  26.6353111  68.6279440
   9.6837327  25.7836036  68.8137907   9.2309210  26.6694526  67.6730814
  61.0505629  37.9133487  20.9058809  61.5871239  37.9931188  21.6945338
  60.1926804  38.2498336  21.1648130  47.5586700  53.4417391  25.2310514
  47.6321459  54.2985153  24.8106122  47.6687193  52.8141737  24.5167136
   2.6191920  27.2353220  35.6836057   2.3823947  26.3682175  35.3545332
   3.1623000  27.6137948  34.9922061  66.9648266  73.6786722  65.2456361
  66.3285566  73.0324482  65.5518866  67.5582195  73.8004206  65.9867781
  72.0139074  33.2468891  17.8587651  71.7962980  34.0965271  18.2421613
  71.8003082  33.3412313  16.9304836  80.7869148  57.2514868   5.5590481
  81.3658905  56.8337250   6.1966181  80.7467365  56.6322708   4.8302215
  35.7531566  25.2996945  19.8512089  35.7895678  25.2541232  18.8957882
  36.5194815  25.8185887  20.0956202  33.9198184  53.3726501   6.1561829
  33.5822392  53.5611200   5.2805382  33.5768867  54.0799236   6.7024368
  37.7061889  25.7911138  69.8064472  38.5947892  25.7874994  69.4506223
  37.1429107  25.9167747  69.0428008  77.4579716  67.2402859  35.3908396
  76.8296814  67.6238298  36.0027051  78.1791496  66.9408035  35.9444141
  15.9547728  37.1181154   2.7254620  16.7429274  37.3972011   2.2594681
  16.2160987  37.0957136   3.6460257  68.1663179  37.8873062  12.9912972
  68.4249115  38.2700634  12.1529317  68.6592484  37.0684123  13.0429339
  16.7364329  35.2816176  40.2310562  16.6134566  34.8204327  39.4013500
  15.8853549  35.2243423  40.6653547  55.8254051  23.8348651  21.4888000
  55.2694559  23.1855273  21.9195127  55.2103186  24.4580913  21.1021566
  48.7390661  18.8328147  12.2214651  48.6142921  18.0104113  12.6950848
  48.5920811  19.5126188  12.8791070  37.2215984   6.5651302  60.8371261
  37.3138473   5.7801942  61.3771292  38.1205985   6.8205909  60.6303289
  38.0307981   5.3629356  20.0017524  37.3848554   5.3753811  19.2954707
  38.3691141   6.2578254  20.0327063  33.9881560   9.7661857  46.5183136
  33.4135339  10.5282430  46.4454386  33.3913419   9.0186195  46.5528366
  23.0019087  69.9687861  56.2351534  23.3629603  69.1517447  55.8911809
  23.4163565  70.6535362  55.7101867  55.1478863  64.8186350  28.8441491
  54.3921185  64.2718029  29.0586758  55.6074810  64.9292183  29.6764803
  82.7377605  49.1443872  32.8460097  82.7371883  49.2810059  31.8986082
  83.6188030  48.8253117  33.0414486   1.1503810  37.2475386  34.0354991
   0.2558345  37.1786594  33.7019277   1.4070624  36.3442397  34.2209530
  61.5744257  51.7746210  36.8236399  61.4504576  52.5851393  36.3297510
  62.1992922  52.0060635  37.5108123  26.3950938  71.1087322  32.2075009
  25.4767245  70.9371710  32.4158406  26.5098494  72.0428419  32.3821330
  71.8420696  65.0991440  11.9801593  70.9225607  64.9547148  12.2034776
  71.8165731  65.5204391  11.1210346  80.8939552  46.8232632  51.3069153
  81.8206978  47.0210505  51.1717939  80.7105350  46.1077023  50.6981754
  25.9385774  12.7886705  62.4382022  25.1758334  13.3388738  62.2600809
  26.6816947  13.3910207  62.4038020  54.2161989  29.6535158  14.4598150
  54.7312403  29.7346401  15.2625501  53.8355017  28.7765503  14.5070994
  52.5626612   4.2517436  23.1284809  53.2765198   4.6794888  23.6014199
  51.9004011   4.0806559  23.7980890  54.5683381  11.9741945  61.7698535
  53.8473890  12.6038245  61.7651203  54.7913739  11.8724231  62.6951244
   4.2905253   6.8684220  17.5660062   5.0828475   7.3777962  17.7362704
   3.9082736   6.7235994  18.4315395  37.2168822  74.9946903  48.3719656
  37.6881785  75.2237986  47.5709531  36.6692442  74.2501472  48.1230065
  69.8021984  52.7887821  11.9942796  70.6169844  52.2880030  11.9546795
  69.1973782  52.2244501  12.4758959  39.3383784  57.0002948  67.3014840
  39.7438521  56.9335531  66.4369801  38.3980650  56.9507907  67.1294665
  63.5103559  46.0033131  33.6839724  63.8759422  45.8444262  32.8137231
  64.2693043  45.9978819  34.2672372  48.5271737   2.2183637  49.0467998
  48.4426591   1.6401462  48.2886717  47.6643846   2.1981172  49.4608232
  68.9475870  55.3728533  11.9915068  68.1571102  55.3612423  11.4518321
  69.2469597  54.4636965  11.9973814  66.2391663  20.8466601  31.1165428
  65.5340528  20.9014034  31.7615628  66.9190407  21.4293575  31.4548731
  69.5238781  58.2145262  25.9107947  69.1484642  57.8433895  26.7092633
  69.4131374  57.5283527  25.2526641   3.3721942  69.8583174   6.8543375
   3.8555259  70.6553936   7.0718116   3.5745829  69.2532730   7.5679117
  66.5618226   4.5507983  69.3378522  66.2297818   5.3887920  69.6599572
  66.2182519   3.9041309  69.9543042  20.3842467  21.7455745   9.4326341
  19.6492022  22.2880673   9.7183740  19.9745292  20.9787345   9.0322286
  19.6035764   1.5664558  58.0277476  20.0961873   2.0576219  58.6852595
  19.0947005   2.2312526  57.5637135  53.5057116  73.9943218  47.0450735
  53.8444662  74.8457718  46.7684650  52.5931358  74.1640663  47.2787905
  62.5196505  64.7277403  36.0316253  63.2105875  64.4666672  36.6404605
  61.8006182  65.0151634  36.5943098  12.9007506  62.5946045  50.6873035
  12.5122344  62.2516584  51.4920855  13.8014042  62.2707033  50.6992006
   8.8914335  28.3844256  62.7565336   8.5876387  29.1247153  63.2818079
   8.1989950  28.2496500  62.1095467  11.0056341  64.8251820  53.3441687
  11.2686777  64.9902391  54.2495918  11.0363710  65.6852913  52.9252386
  54.6802330  56.0229778  39.6597600  53.9253378  56.3039112  39.1426063
  54.9307394  55.1808357  39.2799306  40.8112588  12.2266822  49.1261482
  41.2494817  11.6183048  48.5311127  40.7871750  13.0549102  48.6468935
  58.3470875  57.8087282  65.4706907  59.1420203  58.1104708  65.9103107
  57.6321584  58.1458282  66.0105658  32.4240258   8.3137851  49.3933392
  32.9033276   7.6917415  49.9406576  32.6306307   9.1704231  49.7671270
  47.3108714  18.6601521   4.7682026  46.3579505  18.7503649   4.7623614
  47.4838948  17.9096772   4.1997984  36.2611142  16.3799911  63.8470793
  37.0487275  16.8441349  63.5634041  36.4230773  16.1738639  64.7676849
  77.0788574  60.3789806  69.3096447  76.1406767  60.4417753  69.1304636
  77.3217034  59.5027447  69.0105343   1.2758875  78.5813856  65.5969095
   1.2469949  77.9799318  66.3409853   1.4425415  79.4388390  65.9883690
  35.7454005  37.9492527  40.6751871  36.3572731  38.5315853  41.1254358
  35.5707070  38.3843380  39.8406744   0.5547261  17.4673106   3.5817841
   0.6118917  17.0363976   4.4345930  -0.3816820  17.6167370   3.4512261
  20.2910801  14.7624260  60.8281326  20.3995308  14.8056369  59.8780775
  21.1257496  14.4211536  61.1492014  69.2876893  22.5566365  43.5886028
  69.7991687  23.3653094  43.6144951  69.2517930  22.2666527  44.5001152
  21.3147426  53.1547165  53.7497950  20.4210281  53.1331301  54.0919065
  21.8630528  53.2984543  54.5211124  44.8247805   2.4965435  36.2750411
  44.1356531   1.8327766  36.3023543  45.0595918   2.5600582  35.3492641
  30.4651523  67.2366905  58.7282276  30.7520723  66.9284344  59.5878124
  30.9806132  68.0282307  58.5733175   9.6648926  64.9665737  57.2451448
  10.5600977  65.0572920  56.9186354   9.1147822  65.2726793  56.5241003
  56.1472074  27.1584631   1.4149931  55.8371320  26.9867112   2.3041418
  56.5353810  26.3303448   1.1325577  60.4324626  21.5534712   4.2524460
  60.2539560  22.4894501   4.3436268  59.5764169  21.1359669   4.3478850
   8.1100869  62.7706861  40.7830906   8.2681441  62.4039793  39.9131632
   8.9800221  62.8365374  41.1769295  79.0915447  24.0884043   0.5525139
  78.4280186  24.2341925   1.2268379  78.7174922  23.4091593  -0.0086805
  64.8026668  21.4127566   1.0813311  64.3343955  21.6389204   0.2777127
  65.0686722  22.2556187   1.4488247  65.9542071  47.0427538  20.8714703
  65.0744962  46.7562510  20.6259945  65.8322137  47.5089194  21.6985348
  17.3591971  43.4158564  58.5464573  18.1875408  43.8461828  58.7583494
  17.4577057  42.5263166  58.8859320  66.9765896  38.1257749  52.5278664
  67.2396177  38.5413289  53.3490658  66.5120965  37.3337150  52.7982712
   2.7223637   7.0365291  52.1042967   3.4751728   6.4470726  52.1495914
   2.1248677   6.7142444  52.7791023  63.3057362  59.5465946  66.6957617
  63.9555389  58.9522886  67.0709753  63.8130170  60.3060198  66.4091015
   1.9488692  49.8707987  35.9677914   1.5733194  48.9969374  35.8602360
   1.7068457  50.1276518  36.8575505   3.2366526  36.6700625  67.0073128
   3.1524453  36.4106011  66.0898018   4.1452315  36.4682293  67.2308731
  22.2688317  67.0453691  59.1760254  22.8567290  66.4429808  59.6318054
  22.5224948  66.9770813  58.2555771  37.2207990   1.6799694  40.7890272
  36.9331965   2.1222168  41.5877390  37.0056882   2.2923237  40.0854778
  68.5972669  71.4045854   1.4415959  67.9074052  72.0428010   1.2599304
  68.6452058  71.3691111   2.3969343   3.0327445  45.9349298  35.0117421
   3.2692394  45.8716249  34.0863800   3.3926129  45.1403046  35.4058266
  64.0662085  45.8389307  26.4011410  64.1197848  45.4709460  25.5191258
  63.1572759  45.6964709  26.6652897  34.9793315  57.0282555  68.8080835
  35.3731680  57.1907616  67.9509258  34.8350573  56.0822392  68.8299036
  15.2846697   1.2652259  64.7950172  16.1079362   1.7351585  64.6622181
  14.9885776   1.5412098  65.6624222  67.8359526  56.9106340  62.2365952
  68.2865184  56.1712170  61.8285751  68.1890339  57.6812267  61.7919016
  34.9224081  33.2004409  14.6192145  34.1867950  33.0062538  15.2000701
  35.6617078  32.7290302  15.0031853  77.4249249  19.0489031   0.6544283
  77.6913005  19.0296627  -0.2647611  77.2916871  19.9772669   0.8457974
  67.2643750  25.9616543  18.3436707  67.7394241  26.5501095  17.7569130
  66.8676245  25.3128077  17.7624443  37.3184174  70.4244830   7.8031996
  37.2835534  69.5171000   7.5004175  38.2279318  70.5522372   8.0728224
  32.9981375  73.8083887  54.5199871  32.9507208  73.2118368  55.2670527
  32.8525805  74.6761703  54.8968124   9.6710130   8.3081394  44.7213602
  10.0171873   9.1627746  44.9782372   9.5509550   7.8401428  45.5476761
  13.2620454  31.5375686  60.0299311  12.5311267  32.1503806  60.1102543
  12.9636204  30.8914113  59.3898869  21.6388679  76.5910530  57.4240541
  22.3388290  75.9746027  57.2089386  21.1320353  76.1496305  58.1055975
  74.0445154  35.6820179   3.3998755  73.6203557  34.9313904   2.9840830
  74.0824156  35.4518010   4.3282011  56.4703491  20.3376823  70.4248810
  56.6644981  21.1229473  69.9131250  56.5792706  19.6155506  69.8061037
  21.2279105  55.5182505  55.3002691  20.3005242  55.7215261  55.4222012
  21.6231847  56.3501263  55.0395584  10.4744947  62.8004742  66.0354662
   9.5532429  62.6704168  66.2604427  10.5261886  63.7146902  65.7565975
  61.3222626  16.9219165  56.3127422  61.1332562  16.1320930  55.8060980
  61.9210222  16.6284042  56.9994450  35.4190770  12.5197178  47.3051023
  35.5976793  13.0945926  46.5608883  34.6247533  12.8791576  47.7001810
  46.5399781   3.8944297  65.8156824  47.0050886   3.8295513  64.9815989
  45.7304314   3.4027630  65.6773615  80.2443295  46.2343527   1.4228037
  79.4942480  45.7551600   1.7749241  80.2894383  47.0308520   1.9517401
   8.7023038  55.5876493  69.3167067   8.2545853  55.6596661  68.4737396
   9.6306610  55.5301762  69.0906954  12.5206542  79.3059254  35.6361508
  12.7029896  78.7526083  36.3956404  11.5708899  79.4243479  35.6485820
  64.3386820   8.3394485  36.7082906  64.9858001   8.2247787  37.4042225
  64.7911766   8.0607181  35.9121799  82.5641685  58.2207037  13.5938194
  82.1567207  59.0129687  13.2437542  82.4977475  58.3169486  14.5438507
  15.3638792  37.6923203  19.8989534  15.5100024  37.2361016  19.0702522
  16.1903024  37.5988436  20.3727865   8.1339657  69.0170050  34.8503017
   8.8482964  68.6405897  35.3643799   8.1120425  68.4918880  34.0503001
   7.7940220  34.9447322  62.7348852   7.2569078  35.0442457  63.5209084
   8.4336501  35.6546783  62.7904081  49.7934535   1.1080700  67.1049643
  49.4997433   2.0189338  67.0874977  50.7469991   1.1650234  67.1661377
  13.4869551   9.1902186   5.1127604  13.6669230   9.7187640   4.3352774
  12.5600266   8.9631630   5.0387171  13.4639347  75.5894470  31.6646791
  12.9169476  75.1884699  32.3401451  13.6659813  74.8726273  31.0633612
  45.7105687   0.7818084  62.7403927  45.4325941   1.5600067  62.2573137
  44.9221149   0.4894024  63.1976414  79.3881744  47.7022028  67.6992607
  80.1095337  47.3690748  67.1655035  79.6037418  48.6233187  67.8452301
  18.3257881  14.8154216  68.8067102  19.0125879  15.1337867  68.2208920
  17.6287010  15.4674869  68.7351751  34.1177106  75.9156990  30.1443005
  33.4148574  75.8263588  29.5006800  33.6863923  76.2686205  30.9225297
  10.4835618  69.2261410  68.5743570  11.3464618  69.2266035  68.9886475
  10.5095327  68.4861803  67.9677105  64.8786691  49.5403071  -0.2367136
  65.2636865  49.5809223   0.6386927  64.0985802  50.0922145  -0.1811191
   6.2630320  72.0395708  14.4907761   5.8888376  71.5609503  15.2304602
   5.6166011  72.7169991  14.2921495  18.5275984  46.3747454  58.2202816
  18.6120343  47.1183968  57.6235485  18.0580580  46.7266226  58.9765501
  73.0243056  33.3097292   2.7180794  72.1265703  33.2845332   2.3869208
  73.3681911  32.4333979   2.5448254  61.8231624  64.9613978  21.7748764
  62.6058345  64.9000288  21.2272576  61.1188918  64.6172167  21.2255409
  22.7227497  61.0291910  29.4992352  22.9594684  60.8921766  28.5819435
  22.0669222  60.3559351  29.6804857  65.9694230  41.7897345   4.6270731
  66.6665470  41.2956549   4.1956452  65.1606649  41.3760306   4.3254355
   6.1357993  58.1035852  55.1562262   6.2500376  58.9986658  55.4756308
   5.3339070  57.7983809  55.5805492  45.1094153   0.3977161  32.6381707
  45.8403495   0.8174568  33.0918074  44.5187071   1.1180359  32.4180841
  85.0617517  53.7307549  19.5304573  85.1683423  52.9921675  20.1299214
  85.6516290  54.4030571  19.8714614  79.9254870  75.5030870  41.2009430
  79.0220743  75.8127308  41.2657356  79.8621243  74.5545101  41.3123560
   9.8874202  76.8896218  20.0242737   9.2159536  77.3315378  20.5439594
  10.0734189  76.0847684  20.5078533  63.9579254  26.1201811  45.5974436
  64.0145284  26.8517303  46.2121487  63.2359010  25.5853724  45.9274292
  31.5547061  27.4912834   6.2814671  31.4581585  26.5749788   6.5408802
  30.6739259  27.8572106   6.3624376  17.2022295  66.5115023  45.6028843
  17.3739278  65.6335497  45.9433985  17.3475814  66.4353037  44.6598577
  29.3685937  13.2818830  33.0549192  28.7327719  13.9391077  32.7720475
  28.8424516  12.6119375  33.4914732  77.9304790  55.6427193  32.0535159
  78.3819115  54.7999239  32.0073152  78.5700130  56.2356758  32.4480176
   4.2211530   9.0852098  51.1655602   4.3094465  10.0231723  51.3348755
   3.6431214   8.7697963  51.8602702  12.7234471  65.0404501  33.1762910
  12.0774508  65.6866074  32.8909874  12.8891730  64.5078611  32.3984003
  61.4978081  16.4718390  61.6978216  60.7188016  16.3152969  62.2315598
  61.8299729  17.3168409  62.0009232  19.1170302   5.6452900  49.2998695
  18.6373821   4.9272972  49.7129869  19.1960874   6.3070827  49.9868917
  63.7405020  44.1448784  54.7209215  64.6566039  44.0430832  54.9790335
  63.2618982  43.5476828  55.2958345  80.1633036  31.2575054  43.4246349
  79.8498458  30.5682206  42.8390932  80.2252322  32.0342350  42.8686762
  60.7272488  36.7772198  48.2332373  60.3043157  36.2768149  47.5354195
  60.5287939  37.6906371  48.0270481  72.1879619  47.6339006  48.8696957
  73.0435043  47.2414875  48.6956549  72.3158771  48.5686636  48.7081575
  73.2748645  24.1004777  49.4651175  73.7083560  23.2481146  49.4227695
  73.7244898  24.5629811  50.1723385  74.2993325   5.6160218  29.8731279
  74.0339440   5.3393495  28.9960575  73.4861892   5.6239307  30.3780723
  27.9243649  66.9404908   5.5798939  28.1857843  66.0885926   5.9294155
  27.8899927  66.8102451   4.6322182  76.9207454  52.1233988  39.2912579
  76.6801578  52.2215891  40.2125120  77.3528951  52.9476357  39.0674067
  29.5372438  70.8332062  57.8689146  30.1187825  71.4680290  57.4505377
  29.3236518  71.2256289  58.7154484  66.5133625  66.2200069  31.4209223
  66.4194173  65.6859398  30.6321383  66.1187321  67.0607567  31.1893272
  69.2573565  24.1686894   1.6864660  69.2040127  23.4155203   1.0981396
  70.1863270  24.2345311   1.9076231  51.5945584  51.6142941  57.4865150
  52.3694402  52.1551704  57.3340702  51.0737258  52.1138239  58.1153488
  10.2194536  25.5981326  31.1056328   9.5628244  25.9830689  31.6860580
  10.7360780  26.3439322  30.8004856  55.6622581  78.9335009  69.6087790
  55.4773240  78.8110236  70.5399227  56.5450525  78.5824957  69.4917250
  76.8196148  38.8091779  64.2478752  75.9642219  38.4749889  64.5177889
  76.9764638  39.5581579  64.8229027  -0.0475192  21.8466258  63.1101513
   0.5718419  21.4506435  63.7231970  -0.2689548  21.1400843  62.5035238
  56.4247137  41.9687843  55.0280952  55.7560474  41.4449644  55.4693794
  56.9124514  41.3378572  54.4986868  32.1799129  78.9554616   6.8863705
  32.4541667  79.5304652   7.6007822  32.9909786  78.5487052   6.5814856
  83.1839350  66.3968706  52.8472233  83.6777869  66.9632578  53.4401417
  82.4186575  66.1275721  53.3552217  81.3799003  30.6358051  30.9771991
  81.8703270  30.0719190  31.5753174  80.4983348  30.2630687  30.9653306
   7.3486948  78.2084322   9.4371372   7.4555141  78.1749105  10.3877676
   8.0719584  77.6822710   9.0961456  73.5595614  31.2282491  29.8111534
  72.7018553  30.8171034  29.9185348  74.1770321  30.5919194  30.1717734
  68.3103794  34.0823364  60.4442835  67.8622824  34.7333121  59.9042177
  68.5437661  33.3836842  59.8330164   3.2515505   9.7516918  34.4553638
   3.6877844   9.7727472  35.3071189   3.8007572  10.2963138  33.8914585
  80.4734403  59.3879318  34.5275044  80.3077686  60.1291037  33.9448857
  80.8439445  59.7821522  35.3171563  79.5939892  75.1649237  34.0423274
  80.5039531  74.8679638  34.0387464  79.4333804  75.4556274  33.1445932
  85.3609070  55.7120657  39.5128179  85.7449332  54.8688841  39.7532344
  86.1099165  56.3030100  39.4353366  32.4605203  49.9401808  25.7241201
  32.4679232  49.2978430  26.4337540  31.5361857  50.0304747  25.4924250
  84.1379084  39.5843720   8.5846555  84.8501621  39.9934554   8.0931503
  83.3407965  39.9428368   8.1943363  19.0033948  21.9071913  46.4490604
  19.4644773  21.1529350  46.8161154  19.6689105  22.5933027  46.3983488
  75.8781814  39.1046906  28.9885879  75.4089731  38.5431147  28.3715725
  75.1960272  39.4504023  29.5642447  70.7975441  16.7981554   0.1976469
  70.2467280  16.7440821  -0.5833217  70.1997369  17.0700480   0.8940151
  50.8366063   0.6498581  18.8787150  51.2630060   1.3097625  18.3319545
  50.8748725  -0.1529831  18.3588946  77.3191178  55.2169704  24.4671011
  76.4355367  54.9537945  24.2097020  77.2231239  55.5310249  25.3662062
  15.1764452  53.3566618  61.7219830  14.2797399  53.0218840  61.7307138
  15.2636516  53.8294697  62.5496817  51.0500127  65.6982851  62.8748035
  50.4827338  65.7878780  62.1090364  51.9327027  65.6254816  62.5117779
  71.5557724  64.1440392  42.9070520  71.0848051  64.2052555  42.0759869
  72.0896083  63.3540726  42.8221989   0.6137943   8.2045723  17.0524052
  -0.0249005   8.8301684  16.7104557   1.3956451   8.3443095  16.5181568
  79.3987214  68.8157368  41.4503622  80.1360303  68.2081413  41.3917494
  79.6673256  69.5696592  40.9253120   0.8041013  40.4577971  20.8330655
   0.3425783  39.6390629  20.6516743   0.6581026  40.6133842  21.7661834
  65.5288750  46.1913633  43.3921194  66.1798805  45.5258703  43.1695414
  65.6723672  46.3650846  44.3224239  15.5915728  16.4736515  63.9563990
  15.5609229  17.3500782  63.5727787  16.1293807  15.9651809  63.3493948
  13.7407589  54.8764467  42.4512863  14.1415703  55.7309151  42.6108789
  14.2792225  54.2623281  42.9504347  29.9803823   7.4601513  59.5703506
  30.1113553   7.7191787  58.6582232  30.6340229   7.9614216  60.0579071
  78.9024811   3.7869431   3.1119469  79.1147857   4.7132899   2.9977396
  79.1103655   3.6047961   4.0283755  16.1587226  29.7453117  66.8413067
  15.7106423  30.3564620  67.4260712  16.3913190  30.2722287  66.0767889
  73.1549364  17.4920489  10.3542927  73.4371572  16.7481924   9.8220661
  72.8335672  18.1324507   9.7195986  81.5791755  20.6758572  15.6701210
  80.6552582  20.6280352  15.4245213  81.5687614  20.9255530  16.5941265
   6.9092947  62.5563574  63.3624840   6.5793377  63.2146263  62.7508974
   7.2588021  63.0638218  64.0949821  67.7910918  70.7098818  33.8509107
  68.3613866  70.5425549  33.1005788  67.8179175  69.8983669  34.3578148
  11.8909976  10.6555394  64.9472234  12.3894450  11.2823085  64.4228813
  12.5430152  10.2483968  65.5176079  46.7884555   2.0765644  33.7779546
  46.4304450   2.9347187  34.0051532  47.7375200   2.1976429  33.8070154
  80.0859481  57.1865225  32.8128529  80.5195689  57.7654791  32.1859455
  79.8447263  57.7594042  33.5407662  11.7316341  74.5181847  51.3278198
  11.5094900  74.9809265  50.5198860  12.1334982  75.1859426  51.8835497
  53.2820054  29.9983145   4.2088774  53.2324391  30.7321049   3.5962418
  52.9634404  29.2468621   3.7088087  67.0035320  72.7443504  62.2199965
  67.4035686  73.1851435  62.9695988  67.6752740  72.7732038  61.5387011
   3.1009603  79.1167593  62.3096323   3.9877325  78.7761164  62.1920300
   2.6069263  78.3797216  62.6687145  26.5808393  11.5080600  56.7242241
  26.4444431  12.0387416  55.9393644  25.8930775  10.8433872  56.6864300
  15.0872636  77.6126766  27.8445101  14.5196462  78.3474588  27.6118350
  15.2124202  77.6966715  28.7897682  82.4887705  62.6737595  21.9752574
  81.7839682  62.8099585  22.6084518  83.1172648  63.3709335  22.1627951
  77.8658992  46.7592478  42.0737743  77.5801372  47.2809744  41.3238621
  78.7096167  47.1375990  42.3212099  20.7499075  37.1935058  55.7018614
  20.6734490  38.1278920  55.5087042  21.6868687  37.0104504  55.6323576
  76.6075575  49.8276758  21.4476037  76.3979649  50.3216696  22.2402382
  76.6016185  48.9122725  21.7273045  48.5541493  55.7611084  21.2938738
  48.7863141  56.6207409  21.6450977  48.9017230  55.7649279  20.4020166
   6.1052346  34.2854571  28.8639379   5.6809217  33.7257719  29.5142794
   6.5820348  33.6772895  28.2991123   1.8055482  61.9782495  45.0970745
   2.1055050  62.8316164  44.7839832   1.0100173  62.1712351  45.5931759
   9.7576761  49.5470810  54.7638750   8.8020605  49.5114517  54.7219086
  10.0409102  49.4567585  53.8540077  59.4928169  76.8278217  29.2720532
  60.2567148  77.4009514  29.2071867  59.3021631  76.5795469  28.3674860
  22.8316975  75.6750393  41.3025045  22.3018670  75.6161928  40.5074883
  23.1778932  76.5674019  41.2941027  44.4299522   5.2214485  58.8929510
  45.0977197   4.5736652  58.6677837  43.6499193   4.7028022  59.0898991
  13.9110601  61.9108725  17.0016110  13.4691846  62.4280882  17.6750088
  14.6629810  61.5249634  17.4509656  54.0211072   3.8403918  27.3169068
  54.0957817   2.8913857  27.4171284  53.1437632   3.9750983  26.9586495
   1.6572021  77.0535898   2.7310318   2.1289590  76.2251806   2.8171796
   2.0664218  77.4853992   1.9811574   9.6206707  14.2933738  68.1609297
   9.1767055  14.8964989  67.5648022  10.0419891  13.6547923  67.5856590
   9.3330085  47.4426460  69.0865183   8.8129312  48.0207300  68.5283327
   9.1732919  46.5656519  68.7378025  68.8206416  51.0271956   0.7986096
  68.6757916  50.0881411   0.9144953  68.0135422  51.3459708   0.3946284
  85.6240541  45.7264614  28.0964804  84.6765564  45.6688261  28.2195997
  85.8587488  44.9087381  27.6577544  14.9449670  70.6963158  34.3465686
  15.7918143  71.1045742  34.5265841  15.0874698  69.7648907  34.5150137
  13.2749760  51.8486595  26.5312719  12.7970183  52.0920658  25.7384658
  12.6847124  52.0817375  27.2478580  29.0102887  26.7555189  42.1097231
  28.2171535  26.9333839  41.6042185  29.3718004  25.9611917  41.7165470
  11.3513577  67.4185085  32.7366328  11.5740681  68.2321119  33.1890535
  10.3968978  67.3687649  32.7891922  12.1033323  51.6660213  58.6694956
  11.6069305  52.2180843  59.2736816  12.5621843  51.0446453  59.2348099
  11.1649191  59.3140078  51.7283821  10.9147704  58.3912754  51.7755318
  12.0772636  59.3003559  51.4391184  68.3211559  80.7769394  58.0449057
  67.3815936  80.8309364  57.8701544  68.3918112  80.8426189  58.9972353
  70.0366193  81.1539936  34.9664116  69.9394447  80.2449608  35.2500486
  70.2399963  81.0932159  34.0330410  13.7295985  36.1939287  69.6293402
  13.5820174  37.0878816  69.3206310  14.6811342  36.1196971  69.7021389
  17.3272848  22.5598025  64.5557356  17.7424407  21.9846129  65.1984119
  17.8897786  22.5014734  63.7834454  14.5249367  47.8048897  70.2586126
  14.6826029  48.4149265  69.5380354  13.6069429  47.5517082  70.1615667
  38.1603957  60.8016847  68.6135739  38.0575258  61.7524122  68.5715316
  38.1819600  60.6042837  69.5499495  82.6861319  66.5977001  38.7293625
  82.8073186  66.4814901  37.7870035  83.5147047  66.3123035  39.1143942
   7.4659920  73.4048414  68.5085297   7.4542421  73.7209702  67.6051188
   8.3600128  73.0892229  68.6402321   0.0178760  44.5302010  66.9332266
   0.2985522  44.4240761  67.8421736   0.0510111  45.4746485  66.7810392
  85.4695931  70.5811119  31.9491196  84.5260960  70.4916430  32.0834327
  85.7741037  69.6883202  31.7865586  76.1670303  68.5847616  37.5082731
  75.8916807  69.4946575  37.6201057  76.7988753  68.4375048  38.2120633
  73.4213871  49.4106054  13.7538266  73.4766048  48.4557009  13.7172484
  74.3272668  49.6987820  13.8659406  85.1237377  79.2925262  23.5114765
  84.8698014  78.3704758  23.4718633  85.8868647  79.3556738  22.9371238
  81.2886670  35.2880764  60.9665585  80.6656957  35.3697205  61.6886854
  82.0886245  35.7004046  61.2925720  12.7443254  60.5932426  38.7076235
  12.3758113  61.4512062  38.4970927  13.6823809  60.6884623  38.5426521
  75.6558031  61.4652491  28.4775591  75.5887109  61.6040325  29.4222641
  74.9661106  62.0146942  28.1051803  74.3046909  66.2000322  24.5308375
  74.2794973  66.9855690  23.9844561  74.6424586  65.5164862  23.9521265
  78.5781413  56.7354202  45.6415653  79.0424406  57.0232630  46.4275694
  78.8113397  55.8115435  45.5504656   2.3090194  48.2630396  46.3353109
   2.7836317  48.2051086  47.1645403   2.9948196  48.3324909  45.6711674
  28.9305631   4.9817520  53.6805677  29.4706070   5.6179863  54.1493750
  28.3573291   4.6128421  54.3525314  77.1446156  70.5488634  18.3734596
  77.4924606  69.6829557  18.1602788  77.5254172  71.1289263  17.7141070
  59.2167993  75.3985751  61.7284775  59.3014413  74.6204645  62.2794867
  58.2922700  75.6380767  61.7926359  13.6426437  72.1114922  56.6623020
  13.9148009  71.2221813  56.4358234  14.4603908  72.5709343  56.8531704
  67.8726011  68.8424730  52.5180626  68.7010747  68.4860420  52.1974039
  68.1231099  69.6221828  53.0135727  79.2560634   1.8444877  65.0679588
  79.7452220   1.2823444  65.6687498  79.6945580   2.6935154  65.1237488
  83.8121191  59.1978121  67.9334641  83.4469965  58.3742428  67.6099682
  83.9104964  59.7400045  67.1507883  49.4126156  16.6532188  53.4752560
  49.9119094  16.4000087  54.2516708  49.9494245  16.3598018  52.7390671
  82.1562514  43.5282326  58.6557674  81.7276913  43.4960985  59.5110655
  82.1636411  44.4574976  58.4263325  28.7706470  79.2409754  48.8716269
  29.0449905  78.3276796  48.7888098  29.1102505  79.6654606  48.0837727
   6.7858243  52.8846264  68.0969143   7.6756829  53.0977201  68.3779383
   6.4311904  52.3514175  68.8083601   8.8207710  71.1229038  59.2773008
   9.6903467  71.5198326  59.2271280   8.2181394  71.8411732  59.0845442
  82.9986795   4.7135597  33.4082270  82.1176228   4.7130829  33.0341029
  83.5683402   4.9588924  32.6791668  27.2095151  15.8826118  40.2526808
  27.5816092  15.3867012  40.9819603  26.4823900  16.3695961  40.6404591
  27.7317667  49.9783707  68.4394407  27.2811866  50.8174372  68.5352325
  28.5053587  50.1806307  67.9132462  16.4749136  12.8081279  25.6488252
  17.0872095  12.4568229  25.0023603  16.9911638  13.4403091  26.1488867
   4.3381497  39.7721338  52.8425884   4.1095582  40.3074074  52.0826817
   3.5385522  39.2850876  53.0417395  23.6765695  76.3885832  34.7275519
  24.5619154  76.0560513  34.5798445  23.4382463  76.0586643  35.5939174
  65.7001143  16.0187317  31.6052464  65.8356070  16.8913056  31.2358120
  64.9295157  15.6820609  31.1480168  47.2369614  29.8187214  51.3162518
  47.5463178  30.0598293  52.1894026  46.4135125  30.2958351  51.2136793
  70.9193402  36.0525846   6.7743438  71.5308469  36.4261293   6.1397129
  71.4706963  35.7861614   7.5100446  84.6937504  53.2094479  55.3676224
  84.3012467  52.3695564  55.1293945  84.5272419  53.2939386  56.3064337
  17.9422081  52.0022964  16.7269814  17.4948907  52.2657394  17.5311816
  18.5204637  52.7372503  16.5227854  70.8292645   4.4458128   7.2177532
  69.9236315   4.7474696   7.1465948  71.2221938   4.6662356   6.3732126
  77.5497502  64.8339081  58.0861139  76.6418666  64.5635271  58.2234907
  77.7660113  65.3501892  58.8625956  80.6900370  80.2059364  28.0478477
  81.1796415  80.4610538  28.8297892  80.8391285  80.9201622  27.4282718
  10.1915718  79.9802898  67.3642188  10.6433893  80.6680511  67.8531717
   9.6814776  80.4507683  66.7049128  26.3851762  65.1973820  44.6791983
  25.6732273  64.9231100  45.2572441  26.2453032  66.1362267  44.5557690
  50.6015640  66.3006353  10.7287145  49.9048906  66.4143133  10.0822186
  50.9783465  67.1745968  10.8309829   8.2282495  55.1834774  45.3862333
   7.9629570  55.9607363  45.8778858   8.5386795  54.5720339  46.0540676
  22.4312377  71.2944078  39.9335146  21.7806625  70.8029079  40.4349232
  22.9704547  70.6221437  39.5169330  53.0116036   0.5473953  49.9813986
  52.6171019   1.1409145  50.6204033  53.7663296   1.0283523  49.6418381
  76.5131479  38.4187365  53.5406160  75.7495123  38.2266498  54.0848589
  76.1531156  38.5651708  52.6658821  70.8676833  54.4362211  26.0385084
  70.4082817  54.9977160  25.4140854  71.0765916  55.0145864  26.7720485
  15.0098228  58.8572121  21.1304498  15.1885676  57.9171085  21.1524653
  14.0563917  58.9184284  21.0716844  18.0474758  33.1247568  62.1674395
  17.2565413  32.8939223  61.6802311  18.7443662  32.6232553  61.7442703
  23.4417370   8.4227424  51.9580936  23.9762675   9.1198688  51.5779257
  23.0366298   8.8238197  52.7270222  10.5289304  42.0272064  32.4539995
  11.2166798  41.3618422  32.4768019   9.7198766  41.5312147  32.3288870
   4.8795122  51.5826511   4.0453148   4.0227690  51.8370056   3.7024927
   5.5038977  52.1030045   3.5397390  21.9714141  59.8245573  52.3567247
  22.2501254  60.6462383  51.9525051  21.0230660  59.8041248  52.2284698
   1.4558461  55.5013704  43.8467932   2.0950490  55.8824921  44.4487858
   1.7475393  55.7811403  42.9791117  13.0852497  30.6372428  55.0127745
  12.6640308  30.2734852  54.2339993  14.0227675  30.5443907  54.8434496
  85.8317284  19.6605146  42.0934391  86.2763454  20.2183962  42.7316523
  85.3064118  19.0614188  42.6238680  12.6701808  69.2525101  30.0386524
  11.9975543  68.6883020  29.6572375  12.2334325  70.0950432  30.1636243
   4.6355850  70.6214094  62.5906944   4.9173594  71.5034246  62.8333616
   5.2282661  70.3667021  61.8835306  62.6930999  26.4397694  20.8836773
  63.0201816  25.6433894  21.3020447  63.0563014  27.1527745  21.4089897
  57.1357110  75.5052443  19.4238785  57.1210554  76.1609598  18.7267044
  56.2225225  75.4294129  19.7005966   7.6780510  55.5318499   7.4457538
   7.3078382  54.7468901   7.8495026   8.6081743  55.5003834   7.6696098
  30.5298924  71.6471577  52.9314995  30.7272077  71.2266016  53.7684155
  30.9455919  72.5072718  52.9917717  10.9884918  68.1954908  19.9658096
  10.1791823  67.8425312  19.5961213  11.6821003  67.8293467  19.4171059
  20.7252666  62.3207565   7.7961901  21.0866263  62.5997277   6.9548634
  19.8291000  62.6570841   7.7952936   5.7051659  41.8022299  14.0034151
   6.5585011  42.1161747  13.7042689   5.1005638  42.5134087  13.7914944
   9.8636949  42.5212145  67.7430582  10.0122392  42.3591757  66.8114424
  10.1466322  41.7149639  68.1744957  83.9659434  10.7811381   4.3098858
  84.6593528  10.7984806   3.6502531  84.4308692  10.7934166   5.1465014
   6.5239811  55.4897738   4.7465506   6.8225807  56.3373852   4.4169635
   6.9253922  55.4145050   5.6122506  70.0923794  43.8495111  35.7480192
  70.2988440  44.7727251  35.6021571  70.9363574  43.4024048  35.6845307
  84.5964159  54.4987249  31.1108732  84.6671931  53.5910845  30.8152151
  83.6595836  54.6911240  31.0713840  73.9759761  78.8125277  41.9425964
  73.0718762  79.1194773  42.0105267  74.2635912  78.7119579  42.8500080
   3.9400363  80.3732300  41.5700674   4.1017985  81.0458755  40.9085464
   3.3163822  79.7760677  41.1569262  66.6538170   5.9076267  65.3511763
  66.7881635   5.9758621  64.4059134  66.0162976   6.5926510  65.5525494
  14.8202896  70.2570581  24.7110319  15.6171906  69.9644375  25.1532435
  15.1326585  70.8161402  23.9996314  37.8077575   2.6695209  20.4831958
  37.8670916   3.6063629  20.2960181  38.6123588   2.3009830  20.1184726
   2.5570694  65.9835958  49.9268723   3.0307752  65.4966640  49.2525339
   1.7763688  66.3122702  49.4811010  72.5252979  20.7011248  19.8528507
  72.7165681  20.7123448  20.7906845  71.6418462  20.3375937  19.7929218
  74.0359834   5.2840095  40.7939291  74.3616631   5.9562355  40.1953697
  73.2344678   5.6575542  41.1603594  49.5692834  72.4495629  66.1972412
  50.3852955  72.0047502  66.4263749  48.9469859  72.1690206  66.8682662
  86.2276396  58.9575768   7.0429289  85.6829018  58.5892534   6.3473493
  85.6024779  59.3281364   7.6658982  68.0793756  39.8358345  65.4819822
  67.9363722  39.4103956  64.6365309  67.5813931  40.6514454  65.4269600
   4.5075390  57.0651340  14.0248322   4.8485744  56.3810778  13.4486401
   4.5351246  56.6772842  14.8995006  14.0510702  66.2044764  42.4923086
  13.6034203  66.8451452  41.9396925  13.9386487  66.5363979  43.3830500
  18.5259810   7.7915149  51.3777065  19.0184888   8.4228664  51.9021797
  18.4436622   8.2060581  50.5188656  33.1883135   7.5906234  58.9267349
  33.4717399   6.7462307  59.2773056  33.3547377   7.5275093  57.9862261
   0.5793504  45.7224321  45.9637594  -0.1120799  46.3795662  46.0433197
   1.3570818  46.2219763  45.7151222  81.0177100  51.8605804  23.0097437
  80.1644689  52.2659206  23.1643748  81.0252178  51.6685009  22.0720434
   1.7619526  56.4851809  54.5576286   2.2151019  55.6787539  54.3115330
   1.0583781  56.1966991  55.1390028  52.4747613   1.0554244  34.5223168
  51.7737334   1.2571598  35.1420716  52.3304137   0.1387717  34.2874935
  85.2119274  68.3345652  25.3637314  84.4670373  68.9172554  25.5115390
  85.5203908  68.1125927  26.2422585  61.3077762   1.7318206  38.7844872
  62.1573665   2.1599918  38.8898540  61.5181878   0.8033615  38.6849308
  17.8448820  74.4502974  41.8221378  17.8501415  74.3503189  42.7740860
  18.3253384  75.2629375  41.6639996   2.7255606  12.1866681  20.0540856
   2.5623393  11.3019396  19.7272137   3.6573219  12.1929480  20.2732018
  19.0897810  24.5191932  24.3533063  19.1537583  24.3678236  25.2962923
  18.1494737  24.5734644  24.1826916  21.5135813  46.5790606  12.2628891
  21.9889760  45.9780979  11.6892362  21.7010760  46.2646341  13.1473172
  10.1399493  80.0502300  36.4008379   9.5938432  79.6553469  37.0805931
  10.4548025  80.8659267  36.7903709  31.9435620  28.4622073  59.6562290
  31.7066073  28.8501740  58.8138723  31.4466381  27.6448727  59.6917391
  76.0905468  50.7154846  12.3967254  76.5984672  51.4977694  12.1815896
  76.7458111  50.0695038  12.6604843   2.3596780  38.9616513  36.2028933
   2.2226152  38.2507133  35.5767846   1.4892957  39.3386364  36.3315344
  66.2817115  64.2747068  40.4617500  67.0118779  64.3544340  39.8479605
  66.0799283  63.3390951  40.4736948  67.3157054   5.6501748  31.9232205
  67.7612096   5.0996424  31.2792710  67.8714173   5.6061388  32.7013424
  25.6830174  80.1408814  46.3422105  25.3108949  79.6216248  47.0550439
  24.9709923  80.7202362  46.0709163  67.6862687  37.9066205  63.5326672
  68.2717520  37.8847218  62.7757263  68.0372506  37.2427464  64.1262341
  73.4518021  45.1665783  20.2435374  72.9379696  45.0632715  19.4425774
  73.9894944  45.9424067  20.0847626  27.5844026  64.4605827  59.9389887
  27.8469849  63.5622549  59.7382641  28.3789039  64.8720169  60.2791691
   2.8621480  73.5009241  60.9069872   3.6514682  74.0174198  60.7443857
   2.1641923  73.9846134  60.4652452  48.1019365  41.5275122   3.3194760
  47.7002507  40.7816245   3.7650564  48.0109631  42.2529437   3.9372948
  26.8405628  38.6266088  33.4598255  26.0078382  38.8839006  33.0640960
  26.6024828  38.2989264  34.3271041  29.9012923  78.7194490  22.1325231
  30.8467674  78.7775135  22.2701240  29.5844340  78.1923532  22.8660107
  10.3494251  48.3033514  30.9844542  10.4824340  48.2604170  30.0375128
  10.4030240  49.2362881  31.1917877  42.5330248   9.7873932  33.0212259
  42.4633231  10.6954628  33.3158135  42.0433095   9.2858749  33.6730623
  32.7630978  17.0788933  16.7925957  32.5051504  16.8640830  15.8961895
  32.5285750  18.0012728  16.8948105  63.7319618  73.0297565  26.0368586
  64.1472012  73.5073423  25.3187251  64.2994362  72.2724247  26.1805749
   0.5258407  63.9598799  48.3903503   1.0877205  63.2004118  48.5444021
  -0.2517571  63.7946033  48.9235067   5.8080989  46.8716955  60.1227522
   6.0352135  46.9722605  59.1983414   5.1755977  47.5700855  60.2913380
  55.6735399   1.3480430  26.4770365  55.3771355   0.4865699  26.7706871
  55.1522520   1.5267425  25.6943774  63.7033617  19.3583991   7.3923233
  63.6687141  19.0263487   8.2894161  62.8994691  19.8687340   7.2946099
  84.0294208  59.6487522  33.4658194  83.5604718  58.8143969  33.4787369
  84.7494086  59.5284462  34.0849924  -0.0568661  73.6553955  62.3181915
   0.7732767  73.9928675  61.9817257  -0.0258877  73.8364506  63.2576036
  83.1708627  34.4103457   9.0089491  82.3072963  34.6672703   8.6857203
  83.7521272  34.5261456   8.2573155  17.7345872  46.2360287  22.7959251
  17.6704037  45.3413153  22.4618626  18.6467528  46.4834309  22.6443362
  74.4224170   3.7393814  13.8320708  73.8577178   3.9440208  13.0867708
  75.2056077   3.3530288  13.4401894  18.8857484  72.3871279  53.3873653
  19.4219756  73.0342722  52.9292202  18.0908620  72.8625441  53.6289549
  55.8670428  14.3039852  44.1673803  56.2938717  14.4917732  45.0033092
  56.3030866  14.8814254  43.5407543  27.2468841   9.2293602  62.9911661
  27.6774002   9.6053939  63.7589455  26.6219267   9.8996120  62.7147245
  15.8376458  19.6903091  28.0685186  16.4767089  19.0619140  27.7324271
  15.7832589  19.4990497  29.0048385  62.8212410  79.1325617  21.4384031
  63.2639462  79.3233633  20.6114578  62.5327688  78.2240057  21.3515735
  72.7999860  50.6278706  29.6339059  73.1153923  51.3332796  29.0689778
  72.9103821  50.9653759  30.5228019  79.3620342  25.3508425  39.8494601
  80.0627726  24.7016907  39.7878098  78.7091190  24.9450469  40.4197788
  70.8713153  14.4308334  27.3517108  70.3434279  14.0381103  28.0469298
  70.2390197  14.6570068  26.6695929  56.6007233  76.4465618  27.7050090
  56.4388037  76.1766148  28.6089683  56.7879486  75.6304312  27.2412062
   6.0429066  57.5926590  65.2625370   6.5405810  58.3874846  65.0706863
   6.5375412  56.8919420  64.8376083  84.5384955  55.1429558  65.8662844
  84.7224151  54.8166227  66.7471457  84.3384173  54.3576622  65.3568602
  58.1487038   1.0471683  37.5197363  57.6005819   0.3035598  37.7704239
  59.0170791   0.8296257  37.8586078  67.7110007  11.3591629  35.4980063
  68.5246613  11.7843395  35.2270675  67.7678945  11.3194328  36.4526868
  15.5208409  61.9159126  50.8021688  15.9604383  61.8102026  51.6458559
  15.9625256  62.6603508  50.3935671  21.8750501  72.9889250  20.8104539
  21.6305208  73.8689232  20.5240250  22.1847558  72.5555944  20.0151300
   1.8725666  75.1871920  11.1794496   1.1724709  75.5981493  10.6722879
   2.5728285  75.0381899  10.5441034  63.7454698  19.9069719  67.2302329
  63.8618592  19.6610812  66.3125053  64.2661593  20.7036046  67.3326379
  37.2775265   0.4019504  59.6014261  37.6902619  -0.4154057  59.8803759
  36.3380828   0.2289444  59.6626282  46.6602325  72.9198217  63.0432701
  46.5178061  72.1507740  62.4914455  47.6087093  73.0484676  63.0346394
  80.4852610  10.7747914  10.8475712  79.7737008  10.1348950  10.8264378
  81.0484486  10.4831339  11.5644959   0.3741695  51.1856461  64.7284460
   1.2830998  50.9176016  64.5934343  -0.1245783  50.3696060  64.6889877
  58.9283231   3.8597160  41.0492373  59.1637423   4.1006046  40.1532555
  59.5415571   3.1614166  41.2785006   2.3288135  53.0627060  30.7976007
   2.0607591  52.8393078  31.6889334   2.6375154  53.9666224  30.8597803
  15.4818523  64.0246058  38.4125161  15.0258946  63.7380171  37.6211858
  16.4076030  64.0236473  38.1691670  24.7277451  58.2214928  19.9674714
  24.5731544  58.7680960  20.7378983  25.3564239  58.7181330  19.4436908
  35.3311133  78.3789873  63.7618637  36.2532234  78.5877228  63.9114380
  35.2727723  77.4346066  63.9066696  31.1214944   8.8106495  20.8850861
  31.4035165   8.5515171  21.7623234  30.8156204   7.9980999  20.4820538
  54.2314556  15.2238613  10.1397884  53.8236287  16.0898357  10.1423681
  53.6667707  14.6948581   9.5762998  65.7636433   7.9655386   1.3036230
  66.5017515   8.1061818   1.8966225  66.1469685   7.5274159   0.5437926
   7.7573532  78.6730480  35.0469828   8.2129133  77.8383636  34.9374437
   8.4461045  79.3335009  34.9717641  70.2144626  -0.2788205  32.3545003
  70.2292016   0.3499275  31.6329098  70.8766463   0.0430351  32.9661846
  21.0657477  16.5505482  17.5722435  21.4419102  15.7041575  17.8138092
  20.3358197  16.6704012  18.1797531  76.0738105  80.5510044  41.4073706
  75.1866287  80.2260876  41.5608931  76.2771696  81.0692406  42.1860266
  66.6599100  21.7195584   5.2585104  67.3254328  21.8747593   5.9287527
  65.8477437  22.0436360   5.6478623  22.7444243  38.0882406  47.4419928
  22.6647162  38.0624342  46.4884663  22.5795531  37.1874428  47.7205849
  16.4762202   3.1763225  49.7887707  16.2683108   4.1042572  49.6794176
  15.7852140   2.7180725  49.3104935  44.6148043  11.8081643   3.4514979
  44.5637172  12.6401879   3.9219835  43.8437133  11.8059708   2.8843620
  41.3610029  79.8295546  28.5392690  41.9475079  79.0770769  28.6168432
  41.5988636  80.2335930  27.7047563  84.8727699  26.1546779  46.5888214
  84.4794840  26.6665292  45.8820248  84.3541247  25.3507566  46.6195917
  75.4164654  39.6819258  32.0471716  76.3346982  39.9405050  31.9683242
  75.4472238  38.7447977  32.2397208  51.3330221  63.1197500  42.9744816
  50.7798815  63.0225277  43.7496042  50.7376862  63.4318256  42.2930050
   6.5927428  67.8290701  44.9212074   7.3590899  67.3191404  44.6586943
   6.4455444  68.4324217  44.1928339  52.7252003  51.9524504   4.8009852
  53.3850604  51.6776110   4.1643694  51.9930106  51.3518931   4.6614531
  14.7547510  18.0974346  44.8746395  14.0621975  18.1316047  45.5345154
  14.3670562  17.6136070  44.1453695  57.6624239  59.4143130  15.4583863
  58.2462973  58.7299658  15.1313046  57.8815111  59.4924666  16.3868931
  34.5641732  78.8866186  46.4429951  34.8984432  78.8840961  45.5460596
  34.6732497  79.7910881  46.7367077  30.0939775  63.4910583  28.4919572
  29.3991947  63.6103725  29.1394711  29.6372414  63.2070446  27.7001500
  58.3915665   2.1467262  64.4409418  59.0470317   1.4960628  64.6923923
  58.3853796   2.7726799  65.1650763  37.3770881  72.6566076  50.0857067
  36.6499400  72.1327019  49.7495461  37.2700930  73.5109854  49.6675920
  18.8047481  62.7247572  29.9418116  19.1722751  63.6070347  29.8894477
  17.9661608  62.8407478  30.3885221  60.4980451  48.7383652  58.5098839
  60.0415426  49.4337749  58.9834261  60.6400996  49.0981579  57.6343250
  51.3962462  24.0258556  39.3090749  52.1203759  24.3619590  39.8371887
  51.8097523  23.4215980  38.6925340  12.5874543  78.3543444  39.7477174
  13.4190941  78.0663776  40.1241255  12.7159131  79.2855549  39.5672321
  80.4137134  75.6201553  37.4454856  79.6583211  75.5700350  38.0312347
  80.4347902  74.7688246  37.0084214  21.1675477  57.3886347  21.9842696
  20.9956264  56.4473009  22.0081902  20.8618975  57.6660585  21.1206460
   3.5883793  63.4355927  33.1876445   3.5160986  63.5916805  34.1292620
   2.7172691  63.6344385  32.8443384  19.3199706  77.6720428  40.7784367
  20.0035810  77.7759647  40.1165438  18.8323116  78.4952307  40.7503939
  25.0358286   3.4949356  41.5764618  25.0417256   2.6246696  41.1779451
  25.6836357   3.9916568  41.0766125  77.7688342  68.6942482  31.5474820
  77.0638215  68.0472755  31.5226126  77.4474269  69.3761778  32.1373129
  33.7780929  73.8427925   7.6948357  33.3920503  73.0826855   7.2595948
  34.1796899  74.3460274   6.9865233  25.3644013  76.5662098  21.7047071
  25.8803129  76.2164021  22.4311376  25.6042337  77.4920082  21.6645908
  15.7011047   8.8142543  50.5823183  15.6584421   9.3517547  49.7914314
  16.0014310   9.4150310  51.2643003  20.6062960  52.8295447   1.7749813
  19.9010682  53.4587218   1.6232231  21.0211968  52.7237345   0.9188917
  46.0247567  25.9475380   4.1542760  45.9666362  25.0208526   4.3869048
  46.9545462  26.1581569   4.2400697  85.9712439   8.2799889   5.7502297
  85.7153302   9.1181160   6.1353090  85.5734306   7.6226832   6.3211230
  49.8034647   8.9933830  31.6096401  49.0838244   8.4452682  31.9225621
  49.3743804   9.7701126  31.2507272  74.3915182  47.0820045  58.2937908
  74.3606681  46.5227938  57.5175381  73.5002154  47.0578432  58.6419630
  56.1294817  30.1789359  54.6510169  56.7729665  30.6130532  55.2111074
  56.3662662  29.2522172  54.6879324  53.1790736  24.5333057  49.0060997
  53.8603475  23.8636165  48.9459753  53.5004618  25.2515369  48.4610415
  27.2816467  68.8630056  42.7379847  27.2073412  69.6855354  42.2540855
  28.2160234  68.6562967  42.7169228  17.9376876  42.3565388  21.3093996
  17.4057686  43.1165695  21.5452933  17.3026681  41.6545153  21.1674809
  13.0456328  70.1781464  42.8337002  12.3355126  70.8113718  42.7288914
  12.6080465  69.3268728  42.8427601  31.4360970   3.3203178  31.5343714
  31.7394572   4.2269664  31.5811014  32.2165504   2.8184276  31.2993503
  49.1294506  17.0422226  63.5223961  48.3752194  17.3366695  63.0118418
  49.7605660  16.7442947  62.8672886  67.1691897   3.7741619  18.8080096
  66.3730219   3.2428222  18.8131523  67.1512392   4.2243629  17.9634809
  18.3176291  74.2527723  44.4472027  18.1955636  73.9715767  45.3539848
  19.1158175  74.7807789  44.4655561  17.1045446  74.1463804  22.1012259
  17.4527347  74.5837545  21.3242435  16.2934351  74.6154833  22.2968698
  78.7854412  31.1529283  62.8311571  78.4757355  32.0441274  62.6696715
  78.0204275  30.6922750  63.1758043  34.0944910  78.3931589  51.9982815
  34.4411874  77.5441217  51.7241096  33.1881857  78.2125473  52.2477341
   3.7058758  32.9408289  13.5259464   3.9458632  32.2737004  12.8828457
   4.4952869  33.4730603  13.6249092  72.0245650  75.9117862   1.8561199
  72.6432660  75.3308435   2.2987822  71.2004187  75.7873436   2.3267868
  80.9453419  45.5151872  66.4625606  79.9899557  45.5249433  66.4044672
  81.2312892  45.1184491  65.6397214  44.9776867  10.1001030  31.8019676
  45.5014184  10.3208213  32.5721741  44.0766826  10.0750976  32.1241450
  26.4706874  63.3673859  47.6198721  26.1151767  63.8840294  48.3430052
  27.4200535  63.4461832  47.7132702   9.3083721  77.2246265  46.9109154
  10.2408946  77.0620632  46.7687654   8.8822359  76.4025593  46.6683340
  54.0868070   6.4883571  24.0636015  55.0382092   6.5045219  23.9596677
  53.9196947   7.0425850  24.8259234   8.2366616  26.4932656  32.7664399
   7.5984770  25.9094858  32.3563719   7.7063608  27.1688461  33.1890535
  35.1007232  18.4887367  65.7682753  35.6224635  17.7203518  65.9997797
  34.8790171  18.8897567  66.6086674   1.5451558  71.9204807  67.6428032
   1.2042280  72.2015238  66.7936754   0.9309031  71.2477970  67.9367828
  50.7252004   6.5603786   4.7847977  50.9769752   7.4432617   5.0556463
  51.5530398   6.1305290   4.5699790  56.2822253  52.4855260  60.0602803
  56.5401001  51.8188123  60.6968525  56.1017236  51.9943265  59.2587969
  40.4906597   3.3941036  64.8895550  41.1765197   4.0476375  65.0263834
  39.7072902   3.7842327  65.2773237  27.8064865  19.6962028  31.4752913
  27.9679683  18.9751869  32.0838022  27.2480480  20.3011661  31.9635510
  31.4011705  12.0279842  43.0408001  30.8502182  11.4728408  43.5926151
  32.1814894  12.1926933  43.5701418  79.6458614  67.5503588  63.5553217
  78.8933963  67.9622936  63.9799833  79.4895291  67.6734686  62.6190329
  49.6444252  24.0667778  23.4624243  50.3042415  23.4369999  23.7526989
  48.8842895  23.8898521  24.0166116  16.8966138  54.4404411  12.7822566
  17.6323116  54.9257374  13.1557095  16.9766915  53.5615015  13.1527793
  51.4293578   3.0287891  25.3463197  50.9703591   3.8662487  25.2814031
  50.9784057   2.5624233  26.0501552  37.2300601  79.6238756  11.4372277
  38.0551910  79.1541290  11.5585876  37.0310402  79.5218945  10.5065167
  41.5406513  58.2911682  13.6727309  41.3775682  58.5103130  12.7553368
  40.6794834  58.0591965  14.0203071  65.3828218  16.8910080  36.0302734
  64.9313834  16.0512596  35.9450126  66.0888245  16.7211586  36.6539264
  19.1246223  73.0463839  49.4579268  18.3817375  72.5668955  49.8245955
  19.5344937  72.4274206  48.8536739  19.7829282  60.7910156  45.5302572
  20.7305193  60.8463907  45.6536865  19.6561301  60.9168005  44.5898676
  81.3563969   0.4582363  48.0302954  80.8431628  -0.3462166  47.9548740
  81.3431361   0.8342033  47.1501207  11.8165543   2.2854763  38.1480289
  12.4529436   2.9905277  38.0291152  11.4612820   2.1332889  37.2723293
  78.6588269  17.7576901  12.7367333  78.1276136  16.9625880  12.6936558
  78.4158235  18.2508351  11.9531563  12.7522301  43.8277365   7.7609137
  12.2421669  43.3885409   8.4414890  12.4147152  44.7233797   7.7490833
  35.1974726  77.2593069  48.7275171  35.2064729  76.4765501  48.1766558
  34.3821669  77.7048397  48.4972858  15.2840614  44.7314262  11.5878272
  15.7514381  45.5663204  11.6151977  14.4090247  44.9570274  11.2721562
  56.1916151  35.3843857   2.7759007  55.7400342  36.1412693   3.1493118
  56.0042017  34.6695353   3.3842543  47.2405782  19.1137081  33.2024240
  46.4720145  18.9024311  32.6724243  47.5518086  18.2665783  33.5213757
  22.9613185  74.7977638  49.0661383  23.0188966  75.6134462  48.5685730
  23.1471038  74.1121817  48.4245014   6.2194437  64.6077013  38.9557552
   7.0970875  64.9895859  38.9674711   6.2736923  63.8642645  39.5562458
  48.1192901   8.6024051  52.8243303  47.2871068   8.9197593  53.1750298
  48.1834820   7.7006584  53.1389236  11.2337708  53.7575102  16.8413436
  10.8774030  53.8191175  17.7275932  12.1785498  53.8605452  16.9553983
  28.3414537  56.1480575  68.3995771  28.1246115  55.6329685  67.6224661
  27.5736250  56.7015892  68.5419559  24.8401022  69.6744108  53.3080626
  24.2746139  70.4300213  53.4677839  25.6153083  69.8375845  53.8453341
  17.5943375  59.7676039  41.7498255  17.8873813  60.6448174  41.5031338
  17.6035416  59.2727709  40.9305048  68.9752763  17.8480363  22.6059389
  68.1780392  17.8035104  22.0780540  68.6991543  18.2650578  23.4220767
  21.7939305  31.5278651  14.1774586  22.7101683  31.4646698  14.4471672
  21.6671872  30.7872464  13.5844544  30.4806898  28.4919983  43.3986521
  29.8544174  27.9070144  42.9722595  30.0200790  29.3284279  43.4653234
  41.3669443  68.0487871  23.6576581  40.6995583  68.7297964  23.7416410
  41.4617109  67.9214144  22.7137136  47.6238122   7.8361469  24.4200659
  48.2272795   8.0971008  23.7243891  47.7834204   6.8995910  24.5367670
  61.1748221  79.8305126  12.5338295  60.3481462  80.0477000  12.1029404
  61.0362032  80.0668641  13.4509686  67.8616240  27.2742324  29.6412826
  67.5673702  26.3770919  29.7987127  67.7633074  27.3963314  28.6970043
  20.2585316  57.6042652  16.8795991  20.4811192  56.8544197  17.4313426
  19.3433642  57.4609137  16.6384566  33.5564995  75.7380486  59.3232107
  34.0024233  75.3132582  58.5904503  32.8682327  76.2620831  58.9134455
  24.8019052  74.0503168  42.3250675  25.3235745  74.7937250  42.6274586
  24.1407967  74.4388723  41.7521906   7.1053290  69.9755716  65.8987188
   6.5255141  70.7148027  66.0819817   7.9772353  70.3652763  65.8343506
  64.0951014  72.2118807  18.8300061  64.3001556  72.4458170  17.9247653
  63.6908150  71.3464642  18.7680459  77.4087083  62.8419638  44.1724920
  77.9290849  63.1781816  44.9021482  76.5018678  63.0151796  44.4252110
  32.9670286  74.6153116  32.8295445  32.9629588  73.6588907  32.7911639
  33.8802624  74.8573112  32.6756811  14.1607678  78.5007048  57.8817034
  14.7504246  78.6499596  57.1426105  14.0380025  77.5516319  57.9022932
  32.8438505   5.4037529  62.3400974  33.4203773   5.3268486  61.5798807
  32.1088376   4.8231083  62.1429968  79.0565032  34.5770955  52.4796295
  79.3213367  35.0124574  53.2899094  79.1589957  35.2467418  51.8033886
  25.2732468  39.0843368  13.9581513  24.4393253  39.5214057  14.1307044
  25.3170705  38.3856773  14.6109819  17.4292338  70.9122372  43.3432198
  18.3557236  71.1501360  43.3786011  17.1709418  70.8180952  44.2600918
  25.7878995  66.2821770  41.8699646  26.4572024  66.8553829  42.2437334
  25.7697368  66.5095949  40.9403515  45.8173695  13.1154400  22.4525976
  45.5026284  12.2120529  22.4200463  45.0268724  13.6478286  22.3636842
  17.4938250  68.2689333  47.7337790  17.2816849  67.5910425  47.0921421
  17.8783512  67.7911758  48.4687042   8.3021468  71.9708586  30.3413224
   8.8725013  71.2494516  30.6068301   8.8416922  72.7543354  30.4475784
  68.4967023  38.6592032   0.4032305  68.5504192  38.4741999  -0.5343839
  69.3096679  38.3055283   0.7641056  67.1812942   5.2387195  60.2176666
  67.3083833   4.5684963  59.5461941  66.9858148   4.7455173  61.0143900
  65.5896786   7.6039272  39.2842746  64.8516562   7.6344543  39.8930621
  66.3206532   7.2792774  39.8101187  12.2214868  16.9908291  11.1526632
  11.5421143  17.2876983  11.7580974  11.7444041  16.5190845  10.4699659
  32.5118923  76.3135290  64.5435810  33.0628896  76.0731030  63.7987089
  31.6409874  76.4388561  64.1666889  23.3498526  70.5585718  31.7465329
  22.4284506  70.8031130  31.6602087  23.5385394  70.6612825  32.6793122
  46.0308483   8.8010269  56.6002417  46.0967436   9.7506862  56.7004633
  45.8023312   8.4832817  57.4737740  28.3067012  70.2359200  67.1276903
  28.1407666  69.5221519  67.7435064  27.4571300  70.4022694  66.7192984
   5.2188355  58.2646418  17.5951254   5.2486116  58.0775833  18.5333967
   4.7678593  57.5108433  17.2148120  61.6308948  30.7226588   3.0971029
  61.8059292  29.8114993   2.8617790  60.8254229  30.9406640   2.6281431
  76.0009083   8.6335617  30.7025719  75.3611454   8.3373504  31.3500214
  75.5293044   9.2812305  30.1787806  21.5521193  73.2198668  38.2953286
  20.6569791  73.0174398  38.0233407  21.8535519  72.4259758  38.7370420
  39.3196538  15.4080730  64.9714088  39.3119815  16.2854534  64.5888090
  38.9075437  14.8540836  64.3084669  20.2352562  16.7317634  30.2323484
  20.1113948  17.3150211  29.4835472  20.6850776  17.2701889  30.8834982
  36.8663051   7.7767139  29.7648501  36.2632438   7.1946006  30.2271223
  37.1080425   8.4363800  30.4149508  60.9367242  24.3863036   4.7637490
  60.8727809  25.1255871   4.1591004  61.3168182  24.7595192   5.5590323
  85.2080220  37.0349884  15.2767241  85.1792870  37.6654148  15.9964252
  86.1189347  37.0482063  14.9829638   6.0368496  63.7075615  60.7232189
   6.0022873  64.6640968  60.7318163   5.1427561  63.4374571  60.5137587
  51.4663389  10.2539497  26.9438410  50.5788043   9.9052005  27.0268393
  51.3897827  10.9511238  26.2924433   2.0081414  68.6339664  34.9481034
   2.4893457  69.0229893  34.2178059   1.7104304  67.7874470  34.6149325
  35.6392249  25.1776367  51.2865448  36.3576486  25.7576137  51.0341072
  35.5332306  25.3228431  52.2267103  18.7372577  66.3923025  21.1884165
  19.5142937  66.0629320  20.7367945  18.9157724  67.3227978  21.3245797
  73.5453993  74.6367455  38.1599736  73.8135880  75.2641106  38.8313341
  74.1132325  73.8789511  38.2997870  52.8022244  20.7850891  59.6227503
  52.4350360  20.0526958  59.1277742  53.6747983  20.9123092  59.2503834
  28.5527682  72.6233864  13.4100378  27.7276158  72.4389410  13.8587415
  28.4023643  72.3430157  12.5072622   8.4798759  71.9531536  36.7405128
   7.7305537  72.3636818  37.1720386   8.1315297  71.1376619  36.3801575
  36.6876650  74.8970461  30.7289147  35.8695841  75.3187418  30.4659557
  36.9799018  74.4316196  29.9452019  17.2299254  72.3181486  40.0754642
  16.5668380  71.8635464  40.5949688  17.6130533  72.9540730  40.6796503
  31.8156537   4.6212726  38.1193852  32.2486070   5.3478485  38.5675788
  32.1922710   4.6241432  37.2393966  39.1883993  67.7943802  43.7385845
  38.5728884  68.3988667  43.3238888  40.0260878  68.2572603  43.7228107
   6.8184927   2.3072010  29.7709942   6.6188147   1.9595771  30.6401992
   7.6715949   1.9317680  29.5530653  48.0026713  12.0896297  26.3209009
  48.6996510  12.6267486  25.9441304  48.4630063  11.3824802  26.7728519
   2.0292638  79.3047094  59.8126078   2.3317912  79.4543552  60.7083321
   1.9450217  80.1817703  59.4385815  45.9058943  16.8410545  48.8466835
  45.9864858  15.9111839  49.0589714  46.6937664  17.0404392  48.3409786
  16.1427343  58.7824249  56.6448879  16.1108291  57.8390121  56.8035984
  17.0769525  58.9882421  56.6116047  13.0722535  59.8640966  11.9662988
  13.1046963  60.8163977  12.0574236  13.8981104  59.5592499  12.3421478
  66.9668668  12.4419905   9.1600350  67.6996713  12.9473092   8.8080624
  66.1968767  12.9830290   8.9850357  54.3629434  18.3526092  42.9997253
  54.9338820  18.0328136  43.6982918  53.5485366  18.5872894  43.4445810
  48.2638543  27.9206587   2.9580858  49.1893297  28.1621863   2.9207876
  48.2154208  27.0852686   2.4933174  59.0865591  41.2260299  13.7788177
  59.8099139  41.1348491  13.1585944  58.3257249  41.4225059  13.2322276
   5.5589315   4.3672615  55.6748295   6.5149519   4.3724018  55.7220507
   5.2986976   5.2311664  55.9944963  24.6165872  80.0032902  52.2794104
  24.5234942  80.4531288  51.4396381  23.7544417  80.0786972  52.6883745
  67.6215458  74.5345020  51.0026836  68.4074688  74.2904139  50.5138302
  67.1824455  75.1767349  50.4450464  26.0427165  78.0404997  53.6399031
  26.1716366  78.2390261  54.5673704  25.5825996  78.8048506  53.2930660
   6.8575859  70.6563997  50.0508642   6.4314246  71.0754061  50.7985592
   7.7796710  70.5999041  50.3014565  68.5169458  60.9978628  52.4088049
  68.0052137  61.6424465  51.9200611  69.1285324  60.6398487  51.7653608
  55.3234771   9.9964386  67.6160717  55.1988986  10.8443599  67.1897697
  55.1911452   9.3554550  66.9175959  55.7315731  76.2173414  49.8761845
  56.4249659  76.5799618  50.4274940  56.1877298  75.6319046  49.2716837
  22.4078765   4.1471058  14.8714566  23.0847206   3.5496193  14.5534587
  21.8659445   4.3259102  14.1029704  -0.2061296  65.1278807   4.5452717
   0.2666783  65.1171042   3.7130621   0.4802203  65.1858546   5.2099446
  44.3181276  73.0505896  36.5014338  45.1484203  73.0294991  36.9772553
  43.6558008  72.8650999  37.1671271  37.3290315   1.0743194  45.5379581
  37.3560199   0.1178032  45.5137825  38.1272378   1.3247638  46.0031176
  29.8626372  31.0794120  44.1128254  28.9155362  31.0084873  43.9936495
  29.9655920  31.5179783  44.9573851  48.6385205   4.3889671  39.6454692
  48.6088195   3.6857658  38.9967322  48.9547470   3.9654213  40.4434919
  66.1472729  23.5081821  44.5362091  65.9648373  23.0718952  45.3684378
  66.4215186  24.3912082  44.7837687  54.5933392  14.7230678  29.0746045
  55.5012968  14.5273643  28.8432002  54.1816190  13.8648658  29.1756654
  19.8222530  71.1940813  34.6068859  18.8688111  71.2759781  34.6286178
  19.9803042  70.2523565  34.5405006  14.4067419  70.3258848  39.0340233
  14.8021877  70.3774834  39.9041915  15.0204086  69.7981882  38.5229659
  66.5613082  43.9105945  36.3061500  65.8822420  44.5004707  35.9788132
  67.3484447  44.4533497  36.3516593  19.2211485  77.8328514  49.4510984
  19.9113095  77.5484562  50.0502872  19.0716660  77.0776796  48.8822317
  33.4408098  28.9841991  31.5700173  33.2840427  28.4051853  30.8240938
  32.7073759  29.5990616  31.5542340  51.9068768  31.6631179  44.0816975
  52.4462560  31.3231617  43.3677435  51.1067298  31.1388450  44.0479517
  18.4926954  27.4157386  29.1774487  18.0659726  26.7039638  29.6544337
  19.3050423  27.5732570  29.6586061  50.7105541  68.4621334  56.4069557
  51.3649178  68.8321161  55.8143711  50.0989819  69.1808271  56.5672255
  70.2725940  56.2112833   8.4977129  69.5573276  56.8318583   8.6374167
  69.8618000  55.3504015   8.5775021  50.8230498   9.3100505  38.6746621
  51.6520431   9.6685367  38.3576679  50.4121664   8.9328342  37.8967690
  35.4419851  67.5828791  64.6943521  34.9995255  66.7581272  64.8949718
  35.4011178  68.0813074  65.5105162  75.9971982  39.6021105   1.8320778
  75.0458711  39.4983365   1.8111256  76.2063556  40.0584628   1.0170773
  56.4884737   8.4574276  59.8937607  55.9381965   7.6852565  60.0248432
  55.9186032   9.1965347  60.1063538  64.2993977  11.6572815  23.3662605
  63.7462786  12.0482593  22.6899266  64.8352578  11.0176616  22.8972435
  47.8033331   2.4204021  43.4898949  47.8383890   2.8304821  44.3540955
  47.0195701   2.7883773  43.0817938  58.2979062   6.9646698  38.2264066
  58.7558415   6.3335090  38.7815332  58.5927680   7.8190475  38.5415769
  17.2510374  67.6605082  38.5585070  17.4770737  67.0136213  39.2268467
  17.8323364  68.4002495  38.7348747  60.0673774  17.4132972  58.7914848
  60.7943132  17.4514824  59.4130468  60.4871705  17.3014694  57.9385519
  58.0098751   3.2572990  18.4138966  57.9013851   4.2058902  18.4820271
  57.5364902   3.0187183  17.6168919  71.6676238  24.5073753  63.1766653
  72.5904086  24.2541843  63.1523514  71.5105203  24.9217563  62.3282290
  52.6004794   7.6108223  59.1618252  52.3142078   7.7416759  58.2578564
  51.8791344   7.1364837  59.5752192   1.0901090  12.3411804  63.1195593
   0.9917471  11.5063244  62.6617718   0.1932928  12.6201397  63.3043098
  15.6059802  70.5934763  10.1017499  16.4792430  70.2175236   9.9908376
  15.0143588  69.9381971   9.7318482   3.3421347  27.8188304  60.2447548
   3.9185140  27.5240545  60.9498271   2.5411508  27.3077420  60.3607091
  21.9406557  67.8432846  34.6141481  21.0232449  67.5820780  34.6938944
  22.3351240  67.1673059  34.0630794  38.8119114  65.3911398  69.7504020
  39.5317781  64.8174141  69.4879857  38.9057267  65.4744123  70.6993468
  82.7218270  32.4649477   0.5775160  82.9981363  32.3254752  -0.3282613
  82.8400826  33.4037399   0.7221434  84.5158920  53.3174801  27.1824265
  85.1978810  53.0955791  26.5484834  83.7448870  53.5077477  26.6480303
  43.4865171  22.1613669  36.2649751  43.2498914  22.0593238  37.1868348
  44.1674215  21.5047765  36.1183786   1.3212441  24.2447567   9.3880463
   1.8088318  24.4537306   8.5912907   1.9966885  24.0624094  10.0413120
   3.7726390  38.6308503  29.5991325   3.9729932  38.4754109  28.6761332
   3.0321258  38.0532050  29.7840571  19.5627880   0.5470404  37.1638989
  20.0134349   0.1044917  37.8831339  18.9635849  -0.1126712  36.8146586
  31.7876887  18.9927757  33.1887960  31.6672492  18.1339920  32.7835608
  32.0425105  18.7983942  34.0907478  32.1200275  11.4095819  21.0725188
  32.4448586  11.0290086  21.8885326  31.6710329  10.6872177  20.6333995
  59.0614277  28.7790084  20.6719351  58.4199649  29.4839668  20.5836725
  59.8779350  29.2249489  20.8970666  19.3297434  24.2151594  43.9905548
  19.3551528  23.6667180  43.2064676  18.4028494  24.4238615  44.1069317
  81.9146281  37.5572181  30.0278616  81.6439474  37.4034882  30.9330320
  81.3415062  36.9941401  29.5075679  69.2824167  41.0777235  25.1166725
  69.9240512  40.3691149  25.1657534  69.7750801  41.8236542  24.7744703
  69.1919643  29.6735620  34.8175907  68.3535117  29.2785215  34.5784879
  69.8273426  28.9643097  34.7201920  38.8302985  57.0196744   6.2300232
  39.3568733  57.8049238   6.3794640  38.1390097  57.3049851   5.6325701
   0.7314375  26.0319209  16.3971090   0.0118648  26.1915255  15.7863939
   1.2152384  25.3014874  16.0115767  10.7633245  43.8945532  63.5351467
  11.0409176  43.3994293  64.3058777  11.5763152  44.2411757  63.1675434
  76.1708120  66.7897612  56.1789799  76.6862741  66.9715638  55.3931808
  76.7418757  66.2433273  56.7189121  23.1185651  25.9128690  21.8961906
  22.5266814  26.5413380  21.4827538  23.7527180  26.4544272  22.3660779
  37.6699901  44.7498894  18.4982479  38.2861352  45.4703140  18.6308658
  37.6812887  44.2695904  19.3261480  25.0194383  32.2081757  12.1717513
  25.8691311  32.2100019  12.6124907  25.2012300  32.5583577  11.2996531
  59.5413572  18.5381103   7.1489584  60.1541692  18.1156862   6.5470862
  58.6767965  18.2695746   6.8380678  49.3640906  15.2488959  10.0752485
  48.9035422  14.4853163  10.4232037  49.0482742  15.9809840  10.6049085
  71.9429332   2.6253894  52.6685429  72.1753246   2.9517365  51.7992163
  72.7821177   2.4116498  53.0763626  23.1108069  33.7113261  18.2837594
  22.3492885  33.1321073  18.2549393  23.8137841  33.1653857  18.6359000
   3.3310863   4.7632593  39.6890068   4.1505489   5.1453835  40.0031614
   2.7688584   5.5167919  39.5092273  74.2105106  81.0192029  13.7855506
  73.7398580  80.9106716  12.9591489  74.2754784  80.1333507  14.1423094
  83.2159644  18.9875102  26.9172263  83.6591926  19.6901095  26.4416885
  82.4130595  19.3909633  27.2470760  68.4430710  70.6170446  47.6674271
  68.2109574  70.6141264  46.7388010  69.3999365  70.5929942  47.6752138
  53.7714964  25.7668734  17.2016537  53.2639819  26.5602708  17.0308256
  53.1343061  25.0557756  17.1341074  79.0203959  30.2544594  24.1637635
  78.8548851  31.1346889  23.8260722  79.5501161  29.8337889  23.4865141
  63.4357968  38.7846560  49.2102432  63.0481032  38.4480709  50.0181007
  64.3505922  38.5056204  49.2492104   6.7829907  20.9771872  39.1439795
   7.4374527  21.6677356  39.0388489   6.4591533  20.8171511  38.2575560
  23.9324546  54.6921635  24.3498755  24.1675639  55.5200577  23.9308977
  23.3466911  54.9430561  25.0641346  39.3039209  25.9397984   1.7898601
  39.1808826  25.4690337   0.9655582  40.2537662  26.0000062   1.8918265
  47.6041243  79.1027184  17.1135807  48.3424506  79.0486837  17.7203643
  47.7888504  79.8754941  16.5797949  10.8251286  10.6175888  36.0925245
  10.4170358   9.7596824  36.2095261  10.8737588  10.7322550  35.1434612
  58.9518887  23.5067320  43.3462858  59.1642481  23.2749033  42.4421883
  58.0318457  23.2623506  43.4464264   5.7446816  77.9032083   6.3388041
   5.7515266  78.6216470   6.9712856   5.7396534  78.3358308   5.4849652
  80.7544833  36.2744689   5.5953944  81.6559985  35.9674835   5.4991573
  80.7909614  37.2018433   5.3611314  30.1381254  30.9273577  29.0791559
  30.9547639  31.2217736  28.6758542  30.2523255  31.1095834  30.0118852
  82.9736227  35.6664705  20.8279347  83.8659424  35.4564691  21.1034298
  82.8899890  35.2669740  19.9621177  20.2476311  14.5727575  42.7625036
  20.8913159  14.9115181  42.1402979  20.6609845  14.6832609  43.6187506
  21.0068631  47.0868731  27.9083085  21.2420511  47.5293922  28.7238407
  20.7365489  47.7933788  27.3217821   0.8308157  55.4495955  21.2337089
   0.9599984  55.3891325  22.1802235   0.0405460  55.9802675  21.1332488
  19.8842585  22.4459577   0.4463245  19.2418754  22.6469111  -0.2342582
  19.5736659  21.6281581   0.8348729   9.0514779  45.5886507  40.0152779
   8.8590121  46.4885330  40.2787209   9.0936726  45.1019335  40.8384180
  59.2916471  52.8322458  45.5975866  58.5879403  53.4729671  45.7000637
  58.9299399  52.1716595  45.0067997  69.5662278  22.4497890   6.3387686
  70.0816148  21.8610024   5.7874638  69.3552548  21.9289422   7.1136504
  82.6337641  37.1752715  35.5112576  82.4293342  36.3499308  35.9508657
  82.0486316  37.8144979  35.9177566  47.1486965  19.6101528  10.0887215
  47.6660588  19.2106300  10.7879710  47.7844789  19.7996383   9.3987167
  70.2318817   7.5867093  33.0315304  69.3630403   7.8289068  33.3519769
  70.7440036   8.3928692  33.0953217   9.8627245  50.4546452  21.2679124
  10.5023444  50.8379889  20.6677747   9.0415996  50.9001732  21.0593629
  83.6361781  29.8044300  10.3117907  82.6865473  29.9082708  10.3722119
  83.7801337  29.4149208   9.4493580  33.7846088  26.0418200  43.3339977
  34.3752885  26.3142228  44.0362263  33.3178091  25.2871609  43.6929178
  44.9919462  28.2611609   0.5067139  44.1519976  27.8376579   0.6838164
  44.9758482  29.0568399   1.0385670  47.9431492  28.5564828  70.3528357
  47.2090655  27.9422116  70.3483486  47.8403264  29.0584898  69.5443487
   6.8069041  39.2868471  54.1092825   6.5267408  39.3781757  55.0199938
   6.0477185  39.5637035  53.5962296  29.8224425  32.1741700  36.8280530
  30.3086329  32.2727680  37.6466680  29.2032313  32.9041052  36.8278384
  34.5888853  69.9187279  19.9821508  34.5102644  70.5029392  19.2279994
  34.5987487  69.0394545  19.6039784  58.7208992  30.6960154  16.4356434
  58.3454019  30.1144600  15.7745636  58.2028061  31.4982796  16.3709676
  35.4586908  80.1723238   6.1141470  34.5308509  80.4026099   6.1622360
  35.9184447  81.0009309   6.2493256  26.1791277  14.8550117  26.3017607
  26.6870070  15.1560843  25.5483389  26.2967563  15.5405939  26.9593096
  67.7961010  17.0323288  13.0524731  66.9991571  17.5546205  13.1437004
  67.7910918  16.7452228  12.1393585  43.8878280  70.8440971  52.4071217
  43.0243903  70.4474354  52.5227499  43.8191730  71.3323545  51.5866804
  41.4202288  80.1290532   0.7587412  41.9892469  80.2803012   1.5134409
  42.0230439  79.9905082   0.0282267  13.0335343   7.7215171  67.4846125
  12.3022556   7.6288831  66.8739748  13.4139955   8.5744876  67.2750330
  24.2441082  20.3653717  37.5517702  23.8823462  20.7699275  36.7632937
  24.0114856  20.9677601  38.2583427  16.0000217  49.6114492  13.7620664
  15.2793062  49.5632315  14.3901396  16.3945711  48.7395954  13.7828577
  83.4348535  37.3846030  40.0850344  83.9586899  37.6882410  39.3436670
  83.4225628  36.4316964  39.9953127  27.1970081  80.7379818  32.9750609
  27.9917884  81.0106468  33.4335470  26.8246269  80.0516510  33.5287023
  74.8195690  19.1037071  51.7463541  74.0377706  18.5515118  51.7361736
  75.0307089  19.2028451  52.6746988  73.0041093  33.8347149  29.7706985
  72.1180218  34.1896963  29.6995139  72.8947133  32.8915262  29.6496177
  64.3105704  33.4270191  38.5938096  64.9142176  34.1420531  38.3923864
  64.4919807  32.7652454  37.9264426  13.1408691  39.1541004  24.9521732
  12.2277665  39.4408607  24.9677801  13.3529377  38.9799738  25.8692002
  35.5161715   5.7942581  48.5824776  35.3974771   5.0497675  49.1722918
  35.8665681   6.4884943  49.1405916  13.6361575  43.6939335  33.1145740
  14.2792332  43.5670996  32.4170089  14.1191459  43.5141182  33.9211845
  73.5789710   7.4448156  34.1356802  73.5883123   6.5061986  34.3231463
  74.4224065   7.7619570  34.4585896  21.8928123  42.4338198  28.2203293
  22.2429633  43.2740402  28.5163927  21.6151810  42.5944424  27.3184681
  58.2024842  47.2795773  19.7783351  58.7093145  46.4723539  19.6903336
  57.4099165  47.0150518  20.2453399  48.7459412  77.3880163  58.4820557
  49.0310231  78.2183189  58.8635778  49.4552306  76.7768747  58.6811733
  50.3813514   3.7951926  66.5896946  50.5080810   3.4761838  65.6961599
  50.9941212   4.5258931  66.6723064  84.1593495   7.7715439  55.7968044
  83.5126413   7.5597358  56.4699602  84.9354990   8.0424732  56.2871313
  70.8977204  11.6936922  59.9000740  70.4382723  11.7350876  59.0613699
  70.3759187  11.0906529  60.4295063  79.3013102  73.5133074  63.0008575
  78.4545452  73.5255097  63.4470341  79.1229040  73.8877677  62.1381971
  61.9572645  12.0473886  56.2289524  61.6780883  12.2510004  57.1216106
  61.1601740  11.7491198  55.7908678  61.0554892  56.7549610  52.8099346
  61.3830477  57.1397400  51.9969893  61.7785650  56.2139130  53.1272078
  63.2756582  78.1827966  30.1851845  63.3526358  78.5981505  31.0441303
  62.4338952  78.4875295  29.8463559  75.9018999  40.5981445  25.2074242
  75.8872139  39.6445203  25.1260853  76.3532883  40.8988762  24.4187284
  70.0995258  72.4367393  29.0939689  70.6558922  72.0245469  28.4330726
  70.5614463  73.2419104  29.3275499  41.3065100  34.4413519  12.7989388
  40.9783077  34.6837568  11.9330561  41.6384840  35.2601767  13.1671107
  59.8165017  26.0619473  20.7604933  60.7735592  26.0456491  20.7626700
  59.5927006  26.9918180  20.7989979  22.7550149  45.2371645  35.9062815
  21.9684601  44.8474550  35.5245924  23.2702518  45.5240059  35.1523018
  83.4227005  40.8669662  27.3383975  83.9782955  40.8838844  28.1176662
  82.5516966  40.6486416  27.6699352  26.5571885  80.2679084  67.3840034
  25.9342492  80.9187769  67.7073400  27.1405140  80.1056646  68.1253809
   3.1040144  20.4515505  54.8474693   2.2010455  20.1790690  54.6842718
   3.6137891  20.0107002  54.1677570  12.3792362  30.4185057  30.6516886
  13.2867622  30.4562211  30.9536910  12.0319998  29.6137834  31.0365033
   4.8194909  32.1806669  45.2799511   3.9916629  32.3737645  45.7200050
   5.1676732  31.4212704  45.7471943  84.1869892  41.8253994  12.9961216
  84.5973846  42.2208691  13.7651551  83.2626951  41.7461824  13.2319951
  53.0818707  48.7993145  28.6509728  53.2433420  48.7110996  29.5903206
  53.6588937  48.1512642  28.2468605  84.3804383  43.0064821  42.5472975
  84.3265417  42.0548534  42.6351976  83.6303784  43.2393360  42.0001030
  76.0845005  36.8035412  32.5955200  75.3726643  36.7634797  33.2342029
  75.7991916  36.2319231  31.8827200  18.9304113  68.4890032  34.1359973
  18.9465272  67.7424479  33.5371423  18.0107176  68.5748577  34.3870449
  34.8616815  40.3779984  11.5104759  35.7830834  40.6373167  11.5123928
  34.8133373  39.6610117  12.1427953   4.4354460  76.3689852  10.0546014
   5.0765729  76.2132883  10.7481050   4.8421621  76.0078573   9.2669451
  78.0777574  17.1020877  35.6034493  77.4393785  17.1912098  34.8958039
  78.8329476  17.6120174  35.3103781  54.8637396  51.2300920  26.3917971
  55.6255251  50.8128500  26.7940712  55.2257210  51.7455435  25.6710267
  83.7626393  59.5270300   8.4471238  83.4776471  59.8092365   7.5780028
  83.3860248  60.1734018   9.0442824  12.8293538  35.4442525  43.0528402
  12.4939775  34.6467113  43.4623337  12.0501637  35.9759331  42.8903341
  84.7184377  37.1380734  29.9388075  85.3548058  37.7609706  30.2899003
  83.9159322  37.6491189  29.8337007   8.5206527  19.6086049  20.7095528
   7.9153764  19.8325813  21.4164519   8.1256711  18.8448048  20.2890396
  20.5757490  67.9195948  10.7705525  20.0925925  68.7249656  10.5857018
  19.9376413  67.3510571  11.2016228   5.6954241  35.5189967  10.9515500
   5.6346285  36.4121628  10.6127453   5.8415329  34.9779153  10.1755905
  -0.0005058  30.3189278  56.9273186   0.6961561  29.6849179  57.0973921
  -0.6425798  29.8355436  56.4074039   1.8876809  27.9757404  24.0507078
   1.7365740  27.0562553  23.8317442   1.3339879  28.1339884  24.8153090
  83.8622929  25.6426740  29.1278148  83.1846100  26.0065508  29.6975255
  84.0032116  24.7558761  29.4594240  63.1107598  17.5000572  29.9036551
  63.9115888  18.0141985  29.8008871  63.1937152  16.7963088  29.2601585
   5.2145457  60.8145285  20.0497770   4.8037252  61.0040283  20.8933091
   4.6631545  61.2630844  19.4086838  83.3570507  21.7230539  69.2445458
  83.1892422  22.2905378  68.4921916  84.3110088  21.7015008  69.3202364
  51.6099030  18.5822105  49.9112844  52.4513322  18.2005107  50.1613474
  51.8342239  19.4381142  49.5461273  49.5625732  69.2481596  64.6493340
  48.8013360  69.2831272  64.0700865  49.9318764  70.1305038  64.6130562
  64.8131138  40.2193213  27.8262830  65.0055963  40.8805943  28.4910393
  64.5432907  40.7230902  27.0584011  14.5017254  68.1682062  21.5748429
  13.7489843  68.3783674  22.1275139  14.3651235  67.2554255  21.3210678
  65.3188330  41.9422674  50.8009672  64.8911840  41.3525581  51.4219284
  65.8505016  41.3666201  50.2512455  19.2788572  65.8115409  64.3859383
  19.0149862  66.7182087  64.2292306  19.9835366  65.6551097  63.7572983
  51.4598590  71.8198490  56.9173241  51.6628128  72.7368355  56.7324448
  52.1522838  71.5370131  57.5146341  16.2260878   1.7629406  37.0400548
  15.6045055   1.6938524  37.7646899  16.2318230   0.8908826  36.6454506
  25.2504546  76.0114811  57.8408000  25.4638952  76.9120167  58.0851576
  25.8321065  75.8185648  57.1054789  13.7511420  53.6285019  14.6870291
  13.1193221  54.3174076  14.4810033  13.9224660  53.2017708  13.8475168
  14.1370273  43.7771606  15.6182396  14.9401951  44.2972183  15.5918729
  14.4399285  42.8724527  15.6955898   8.1078589  33.0013418  48.6011267
   8.4559292  32.2872162  48.0671740   8.8732398  33.3589101  49.0512037
  27.1822548  53.8146639  29.4172287  27.6233029  53.3413982  28.7117267
  26.3484621  54.0900517  29.0362024   3.3875081  80.4834662  10.0304604
   3.9798257  80.9868169  10.5890548   2.8637407  81.1453470   9.5790029
  13.6642468  21.3694739  43.6305904  14.0398872  22.2329450  43.4587097
  14.3148518  20.9299064  44.1780615   8.9252317  12.6521933  36.4644051
   9.5313072  12.0419288  36.8845010   9.4205356  13.0138707  35.7294917
  10.5228436  12.0418346  15.2909219   9.5905769  11.8354511  15.3581238
  10.9526527  11.3923800  15.8474326  22.4816513  24.2014861  40.7990694
  22.5559306  23.4584022  41.3978529  21.9125557  24.8210621  41.2556744
  80.7435977  20.3074932  12.4548876  81.1580884  20.9342551  11.8619287
  81.4682496  19.7793663  12.7898395  73.8034803  49.0868425  32.2684312
  74.3840176  48.3303595  32.3517203  73.0465788  48.7558174  31.7849517
  78.4446877  37.6868725  31.1492610  78.0227798  37.7723408  30.2943230
  77.7854645  37.2653580  31.7006063  71.0965768  79.1134668  31.7013597
  71.9941095  79.2568827  31.4011931  70.7165507  79.9907574  31.7479730
   1.6523284  26.6849113  47.2308064   0.6960668  26.7174053  47.2036028
   1.9297665  27.1187067  46.4239073  13.0635750  48.0601931  20.6036782
  12.6387846  47.2192049  20.7725716  13.9826202  47.8385019  20.4538798
  79.4344115  47.2331524  23.9401078  79.5087677  46.3967943  24.3996787
  78.5175961  47.2764826  23.6684370  78.9264697   7.4111372  36.4886355
  79.5296007   7.7072001  37.1704078  79.4497937   6.8219984  35.9452415
  22.3816606   1.3748508  47.1657658  21.9885871   1.9323593  47.8372717
  22.7113071   0.6160885  47.6472664   2.9127187  80.9814262  22.2899485
   3.2326189  80.5671406  23.0913639   2.5192460  80.2656174  21.7909122
  28.2363296  18.9410806  64.6065617  27.9017377  18.0813730  64.8618698
  27.6152396  19.5623612  64.9866819  71.1898142  64.4559097  24.0122366
  71.6774148  65.1407576  23.5545659  71.6528207  63.6466599  23.7955070
  71.0418290  57.1397924  43.1210852  70.5788523  57.7754450  43.6668253
  71.7815679  56.8565369  43.6584711  54.6334368  26.6820192  47.8429461
  54.3688065  27.4695754  47.3675966  55.3627092  26.3285279  47.3335981
   1.2084150  53.2386589  25.9568572   1.2918897  52.3212528  26.2169147
   1.9138363  53.6854124  26.4248610  79.8517531  48.9278221  25.9670782
  79.6459293  48.3164644  25.2598929  79.3306625  48.6202908  26.7087817
  12.8668296  50.2412605  22.4521399  12.7604795  49.5541954  21.7942190
  12.0025551  50.3225183  22.8554511  24.8851275   0.2646065  46.0377932
  24.9359679   0.3007743  45.0826311  23.9701629   0.0513146  46.2210417
  73.8530379  24.1457176  37.8648520  74.7307545  23.7849045  37.7397108
  73.9340264  25.0655651  37.6127505  20.3243136  47.2445965  33.0753875
  21.0310316  47.1952915  32.4316883  19.5226347  47.1809387  32.5562620
  85.2323107  62.3695850  46.3493538  84.3787482  62.8019047  46.3769388
  85.5808702  62.4709511  47.2350502  53.8976866  29.9011159  42.3145247
  54.5459658  29.9603510  41.6127729  54.3678790  29.4921017  43.0410624
  25.4098153  22.0826912  58.8390493  25.2228904  21.4153123  58.1788254
  26.3256049  22.3176432  58.6895227  15.8205426  37.0658731  24.2848039
  15.6821918  37.1749449  25.2256513  16.5183425  37.6855350  24.0719008
  48.0793434  46.2205553  14.7484314  48.1374460  45.2680779  14.6732783
  48.2324964  46.3973618  15.6766105  14.6068025  15.0880480  16.9904876
  15.1304078  15.0490057  17.7908278  14.6519279  14.2019498  16.6312861
   3.3697778  42.3325872  26.8570757   4.1616386  42.8584194  26.7444301
   3.3725578  41.7326260  26.1112404   0.6845965  40.3661728  44.3960619
   1.5590400  40.7547760  44.3722677   0.2437663  40.7208920  43.6240053
  64.3393514  26.9994525  66.9134369  63.8408110  26.2561588  67.2528511
  64.1670594  27.7070789  67.5345716  36.1794645  20.2953529  31.1987638
  35.4305011  20.8913636  31.2062883  35.9459478  19.6093583  31.8241525
  12.6039982  28.5044503  42.2428656  12.8640771  27.8902173  42.9293871
  12.1162820  27.9703879  41.6158581   4.0822160  54.3133926   5.9897095
   4.9218094  54.4593573   5.5538082   4.2952099  53.7587070   6.7401689
  51.8349743  67.2979498  15.0699794  51.4788008  67.5053072  15.9339094
  51.9638157  68.1499767  14.6532273  21.2004995  36.6737151  37.5062799
  21.0546613  37.6133156  37.3962283  22.0748401  36.6104484  37.8906751
  84.2517045  75.5752325  33.3017826  84.7561671  74.8514175  32.9305172
  84.7501574  76.3586330  33.0692673  10.9887147  63.0856991  37.9954982
  11.6234910  63.7176609  38.3330059  11.0760403  63.1433487  37.0440340
  61.5274006  31.8380308  42.6963472  62.2628218  32.0453405  42.1197987
  61.8740112  31.9604874  43.5801458  38.4111643  25.4887843  44.8185444
  37.6442027  24.9163008  44.8022509  38.8151336  25.3725266  43.9585876
  10.8499050  46.1918211  20.5685544  10.6863844  45.3126717  20.9100127
  10.4220259  46.1996317  19.7123480  36.9952917  49.9438524  17.5151944
  37.8944683  49.7055864  17.7408993  37.0048261  50.0399256  16.5628755
  50.3577137  24.4471860  43.4587812  50.9516001  23.7032628  43.5593224
  50.6763315  25.0947070  44.0876102  20.3156614  26.6727257  26.5523219
  20.3351951  27.2591853  25.7960725  21.1945796  26.7348099  26.9263268
   2.6062983  12.6753950  50.3444576   2.9586604  12.4783826  51.2123632
   1.7321713  12.2853577  50.3466558  17.5392092  72.1266101  67.2115448
  16.9323612  72.5359438  67.8283209  18.3031500  72.7033399  67.2087237
  80.8917475  10.7760215  39.8533463  79.9394983  10.8170998  39.7652245
  81.0780945  11.2514818  40.6629419   3.4544453  53.3703804  27.7818060
   2.8265974  53.3790684  28.5042763   4.2903581  53.5992002  28.1881571
  76.1053222  22.5637054  24.2330074  76.3034695  21.8138099  23.6720943
  76.7475361  23.2273722  23.9813328   5.4828304  26.3878942  24.2279887
   5.4430211  26.9812274  24.9780583   4.6535951  26.5249300  23.7699246
  40.3858805  18.8285577  26.4768314  40.8296490  18.1183064  26.0133195
  39.5100093  18.8554609  26.0916543  50.1581556  69.4536924   4.3108988
  49.5649677  69.8117161   4.9713370  50.4137188  68.5985756   4.6568668
  70.1427990  12.4636745   7.4822295  69.2422885  12.5704789   7.1757877
  70.6317240  13.1539190   7.0341825  63.7819725  31.2547541  13.3284318
  63.6769396  32.0606422  13.8341427  64.0902001  31.5484262  12.4711192
  82.5907648  55.1844692  39.5486069  82.3906639  55.1709175  38.6126518
  83.5436104  55.2663994  39.5886564  17.3094845  16.6333687  36.3270807
  17.4874222  17.5085545  35.9826660  16.3543844  16.5723598  36.3442636
  27.8419065  24.9257255  67.8876305  27.4074793  24.9763894  68.7390661
  28.7692022  25.0598168  68.0835199   3.7132183  20.7660699   8.4575200
   4.2787135  20.0329494   8.7003845   3.4045756  20.5492759   7.5777638
  55.1745492  32.3751187  13.2381976  54.4846564  31.7143989  13.2992804
  55.2959567  32.5084281  12.2981334  49.5836025  29.3388176  64.0563488
  50.1902610  30.0249267  64.3346500  48.7587982  29.7980928  63.8982487
   3.3156499  19.3774819  23.6878729   2.9874876  20.2457070  23.4539413
   3.2791594  19.3572927  24.6441650   0.3859681  11.7678511  27.2607136
   0.1620913  11.8716085  28.1855607   0.4466228  12.6629734  26.9270825
  14.7177196  49.2599535  16.9464529  14.3856406  50.1530838  17.0374405
  15.6666648  49.3468809  17.0368934  45.1691532  30.2420521  47.5939798
  45.2755117  29.3124580  47.7959156  45.7378149  30.3895783  46.8382740
  78.8385802  29.2036939  31.6569519  78.3077937  29.3000507  32.4476552
  79.1966098  28.3178926  31.7152929  57.6991417  65.2927715   5.9824467
  58.2928627  65.5406148   5.2737147  56.8325119  65.2819878   5.5761606
  42.6245880  33.8161874  41.2552691  43.0467367  33.5221672  42.0624733
  42.9020786  33.1812835  40.5948687  73.2512134   9.3604970  45.8794832
  72.9932970   9.3328673  46.8008661  73.6991662   8.5277027  45.7310772
   0.3749669  31.7716455  42.5138760   0.0757104  30.8627844  42.5393677
   1.2848186  31.7325807  42.8086233   6.4093989  18.4815133  40.6097794
   6.4975512  19.2585349  40.0577831   5.9769744  17.8372991  40.0492191
  14.0475509   5.4818277  63.6935285  13.8917920   5.3378658  62.7601221
  13.1982705   5.7576398  64.0383241  57.2145415  72.7701734  51.8652257
  57.7816225  73.5386084  51.9296846  56.3364745  73.1302737  51.7405006
   3.3096877  70.3576422  21.0987353   4.0932021  70.0932217  21.5808344
   3.0969849  71.2245512  21.4443564  22.5283239  66.9413037   9.2406774
  21.6366622  67.1650237   9.5073694  22.4151990  66.2830991   8.5549647
  24.8053336  36.5413690  24.6983886  24.4152498  36.0299253  23.9895225
  25.4967880  37.0497489  24.2745113  33.0566096   7.1490663  36.4130116
  33.6077881   6.4377296  36.7392540  32.4481583   6.7230111  35.8092761
   3.2365662  46.6530561  25.7804751   4.0294695  47.0505810  26.1403561
   2.5763094  46.7758036  26.4625502  10.6695926  19.9209166  19.2701244
  10.9313917  20.6588554  19.8207057   9.9981904  19.4678545  19.7802091
  69.0590647  10.2492980  61.1053929  68.3162263  10.7802657  60.8181760
  68.7303856   9.3503980  61.0919061   4.7599530  44.5306873  62.2394991
   4.1139564  43.9120388  62.5803709   5.4337895  43.9788628  61.8424273
  55.7722408  11.8690467  64.3866253  55.3654891  12.1361160  65.2109146
  56.7055708  11.8059909  64.5894814  31.3420939  36.0709572  49.0810442
  32.1768641  36.5314245  49.1668415  30.9199810  36.4791536  48.3251143
   6.4412373  50.8922338   7.7535421   7.3784369  50.8255529   7.9364145
   6.2597853  50.1609659   7.1631581  69.2386797  73.1617785  40.8030558
  68.4898821  72.8447307  41.3080454  69.0299431  74.0765894  40.6138945
  14.9762142  51.2347078   9.9558204  15.1851249  50.3245306  10.1659751
  14.8846996  51.6622019  10.8073521  47.3462582  80.5697346  21.1756158
  47.6442146  79.6604729  21.2021518  48.1404448  81.0772419  21.0084844
  33.6496162  52.0606375   2.5014392  34.1519904  52.8751564   2.4811633
  32.7542925  52.3362780   2.6980314  85.0144424  48.7127924  19.7145653
  85.3633262  47.8352833  19.8710644  84.8253956  48.7315750  18.7764072
   7.0443296  52.7704906  39.0719914   6.8911755  53.4839249  38.4524822
   7.9945356  52.7521467  39.1860247   6.4929473  51.5704918  36.0397220
   6.1071390  51.7368507  36.8997836   7.1198601  52.2832584  35.9165144
  70.7730895  43.1048250  40.3965139  71.1332458  42.3567104  39.9202347
  70.2565855  43.5779572  39.7441339   1.6721331  20.1014781  32.7105761
   2.2272329  19.3247831  32.7801442   0.9307133  19.9184537  33.2876635
  18.4519923  70.4361439  29.3644261  19.0964317  70.5425787  28.6647129
  17.9758775  71.2663889  29.3798637  17.9195237  40.3505135   4.4238427
  17.1448660  40.6981707   3.9819443  18.6365044  40.5077553   3.8094759
   7.3245317  65.1020145  11.8516982   7.5977707  65.6519794  11.1174548
   7.2866178  65.7002783  12.5979388   6.3748944  51.6540051  14.1157794
   5.4185563  51.6764164  14.1496396   6.6513336  52.3844814  14.6691453
   1.9278097  50.6429338  59.7161865   2.2247986  51.4711618  59.3392754
   1.1457187  50.4173613  59.2125177   5.3799218  55.1965046  52.2393084
   6.0256302  55.5524874  52.8496933   5.8818799  54.9969387  51.4490891
  19.5222056  39.2421746  31.6748786  19.9438822  38.4751248  32.0622492
  19.1999245  38.9358139  30.8272290  44.6855211  52.6488543  10.7579756
  44.4404840  52.4614000  11.6640925  43.8521242  52.7898979  10.3087664
  25.3441143  54.6780396  27.5005841  24.5126748  55.1508331  27.4630809
  25.7833123  54.9003792  26.6796684  75.9963763  57.3947954  58.6167812
  76.1457699  56.8308210  59.3756294  76.7464298  57.9894304  58.6089325
  34.6956778  42.1030712  32.0010638  35.6050801  42.2968531  32.2283745
  34.6606898  42.2004318  31.0494709   3.7119260  54.0658569  53.9802361
   4.2694426  54.4972515  53.3326960   3.9241439  53.1361437  53.8976192
  14.5850241  49.6382666  40.2183390  14.7436225  48.6943483  40.2283812
  15.3854859  50.0194836  40.5791283  11.3230717  56.0244036  42.1547699
  12.1382523  55.5319309  42.2506046  11.2505317  56.5276766  42.9657459
  27.1678209  50.8260632  18.5952497  26.7872095  49.9477959  18.5917211
  27.1835303  51.0765839  19.5189524  81.2556529  34.0783429  25.1594067
  80.8510435  34.6280599  24.4883370  82.0115143  34.5834279  25.4590607
  13.4848022  34.2596459  18.9602280  13.8499379  33.8471389  19.7430086
  14.2279088  34.3379593  18.3619869  61.1615133  68.8572788   9.4981366
  60.5817556  68.1182861   9.6825504  61.9274664  68.4625769   9.0812927
   3.0082166  25.0562215   7.2759241   2.7857625  25.9553099   7.0342922
   2.7389789  24.5319152   6.5217054  80.3313303  61.2735748  28.3749223
  80.2785319  62.0357561  27.7982736  79.5484406  60.7627678  28.1690264
  30.4824138  69.7585726  44.5980501  30.2976036  69.1564226  45.3188086
  30.3191662  69.2435884  43.8078737  35.5602909  79.5145892  69.1568596
  35.6140805  80.4027890  69.5096218  35.2418197  79.6312593  68.2617640
  66.6557407  55.7971191  18.8496363  67.5198174  55.9470701  19.2331862
  66.1904335  55.2759314  19.5039201   1.9348809  16.6534452  38.6555764
   1.4181301  17.0748738  37.9688474   2.2859285  17.3796729  39.1709301
  70.9697384  77.6062822  40.8120346  71.2331778  78.0691671  41.6073751
  70.8340675  78.2990170  40.1655483  10.9916353  55.6705141  37.2611237
  10.6803787  55.5633545  38.1599402  11.9132149  55.4139948  37.2946119
  18.5011017  63.6725187  19.3874025  17.7591443  64.2772627  19.3835330
  18.2931519  63.0427027  20.0775599   6.7515117  77.3194981  39.5966101
   7.1640688  78.1756878  39.4827342   7.4812353  76.7217159  39.7590780
  23.1577516  74.5400095  11.8300593  24.0605068  74.4142771  11.5377307
  23.2397175  74.9503231  12.6909626   3.7549606  58.7935448  48.4460497
   3.0301654  59.0563869  47.8787613   4.3094289  58.2474566  47.8887463
  65.9935242  73.2725000  41.2975693  65.2988893  73.5798550  41.8800211
  65.5301171  72.9110527  40.5420303  78.4911710  55.8275175   7.0283639
  79.0703988  55.4298925   6.3782704  77.6968205  55.2942228   6.9994491
   5.3926718  65.5627918  68.4703255   5.9185135  66.3348675  68.6791945
   4.5514116  65.9168339  68.1819391  11.7820394  39.7054768  28.0315852
  11.7225206  38.7911797  28.3086252  10.9599435  40.0985432  28.3246469
  80.8577573  25.1171970  20.1579571  80.1514494  24.4754529  20.0836253
  80.6500870  25.6111336  20.9511352  24.0167356  71.4015198   1.7890763
  24.5889831  70.9133244   2.3810488  23.5727215  70.7271957   1.2749073
  83.3212185  38.6615014  13.7916052  83.9178851  37.9480577  14.0179181
  83.1794748  39.1259623  14.6164799   6.4029831  79.8277496  37.3681208
   6.8437237  79.2485689  36.7464039   6.9129319  79.7464894  38.1740853
   4.3722135  73.9454746  19.6417010   4.6318936  74.8601055  19.7523725
   3.4194550  73.9542246  19.7333896  17.1443450  30.9496903  20.3863883
  17.9230106  30.4995656  20.0588226  17.4234116  31.3385272  21.2153387
  22.7575397  69.4024181  37.9101348  22.9049349  69.2404222  36.9783282
  21.8189812  69.2597246  38.0325198   9.9118578  48.5765886  64.9441814
   8.9715558  48.6561441  64.7837591  10.1879728  47.8450394  64.3920708
  71.9666329   4.1626243  62.8545716  72.0206419   3.2732515  63.2043329
  72.2421602   4.0781621  61.9417831  67.2235066  60.9877491  20.7767129
  66.8298262  61.8139029  20.4961538  68.0286890  61.2462234  21.2251592
  18.6453712  36.4543223  42.1446562  18.0546081  35.9170771  41.6168308
  19.4913900  36.0107493  42.0835972  58.1997108  62.2751284   7.5993240
  57.6857710  61.4867210   7.7739954  57.7464676  62.7000427   6.8711388
  79.5557189  57.2602654  47.9953337  79.0468442  57.8173733  48.5843277
  80.4461592  57.2923374  48.3450747  31.9249129  59.8004341  33.3831406
  32.5943255  59.8263073  32.6994371  31.3374829  60.5257320  33.1707573
  58.6066818  10.4199874  11.5063751  57.7053308  10.2001882  11.7419183
  58.9907837  10.7558119  12.3162651  74.8074821  27.8139714  69.6891751
  73.9667550  27.8385953  69.2322250  75.1927689  28.6753349  69.5284367
  82.3534176  56.5789938  43.6792040  81.6947690  56.3118172  43.0380917
  82.4960309  57.5089169  43.5027504  56.4542272  21.1590534  66.8320322
  57.0662334  20.9533172  66.1253834  55.5992725  21.2014347  66.4036798
  74.2753029  41.1706018  19.2953670  73.5155487  40.8472490  19.7795665
  75.0288343  40.8682108  19.8023033  74.5198947  67.7428675  16.0179591
  74.6771938  67.7326584  15.0738275  73.5803610  67.9052353  16.1024964
   1.3411760  56.1868095  33.9821792   0.5518905  56.3715124  33.4731174
   1.2327333  56.6959906  34.7854257  15.3504181  43.1708145  31.1277723
  14.5585001  43.4143543  30.6484127  16.0251629  43.7602091  30.7907748
  28.2080531  64.4513941   7.2631276  28.2855988  63.5619450   7.6082402
  27.4211669  64.4292498   6.7185599   0.7759682  44.9671841  15.8524585
   0.8710045  45.5260849  16.6237092   0.9970092  45.5364990  15.1153994
  32.7562737  67.1167374  63.1051254  33.4625340  66.5064669  63.3172560
  33.0180001  67.9391766  63.5190344  24.0589356  34.8564410  44.7646332
  24.1590071  34.5195842  45.6549931  23.5877347  35.6825948  44.8726654
  24.2042160  21.6406536  18.3630574  24.5074463  20.8922815  18.8770831
  23.9815593  22.3048329  19.0153766  50.3587037  66.8705130   5.2411431
  50.6224066  66.4193583   4.4391751  50.8693486  66.4487219   5.9322065
  30.7475019  68.8637781  30.2644730  29.8872542  68.7822580  30.6762481
  30.5888534  69.3892908  29.4803190  28.4722018  77.5205612  16.1889529
  27.8466201  78.1081581  16.6127622  29.3276072  77.9093027  16.3716865
  21.5986800  66.1672401  24.5135546  22.1405315  65.3803349  24.5719433
  21.1077666  66.1815166  25.3351569  24.4531202  51.9411707  53.1247902
  25.1544905  52.5739050  53.2795811  23.9814663  51.8981600  53.9566088
  43.1407083  68.7434386  49.8319670  43.0813289  68.1175254  50.5537280
  42.2403777  68.8357972  49.5203492  17.0706093  68.7540197  30.7762671
  16.2482595  69.2115116  30.9514022  17.6071584  69.3955708  30.3106999
  36.5526795  17.4238348  19.4470799  36.5952897  16.7561746  20.1316571
  37.3543596  17.9344499  19.5602858   0.4242797  33.9430928  25.3070450
  -0.4300648  33.5220027  25.4019713   0.7867275  33.5709333  24.5030808
  26.6010165  44.1082573  16.2192833  26.8893027  44.3035746  15.3276718
  27.3659611  43.7126017  16.6370714  23.9440393  65.0209475  21.8266106
  24.3236685  64.2794323  22.2980666  22.9983544  64.8907661  21.8970680
  50.2966264  36.7984539  66.5750647  51.1464718  36.7937904  66.1346436
  49.7628668  37.4028354  66.0592651  10.8619940  32.7637815  31.5886545
  11.7342186  32.4147606  31.4052391  10.5910385  33.1748867  30.7677984
   7.0340419  55.0313711  37.5443649   6.7543888  55.8421755  37.9693604
   7.0950532  55.2562904  36.6159678  53.9306310  13.5279804  19.5547092
  53.5111859  12.8117901  20.0315356  53.8705781  14.2775684  20.1469517
  45.9499836  60.0899792  12.4507272  45.9372091  61.0447741  12.3841286
  45.9623051  59.7867060  11.5429235  10.5597150  54.7503090  28.7782598
  10.9114265  54.4663286  29.6219921  11.1646390  55.4310560  28.4834981
  15.6822062  27.3311353  31.8242216  15.7177484  26.6069102  31.1993456
  16.5030169  27.2667336  32.3124385  44.4417000  66.5400432  54.1687831
  44.8491741  66.1428617  53.3990797  43.6346210  66.0415314  54.2966196
   8.4177929  40.5652475  26.3899398   8.7343884  40.9845972  27.1900296
   9.1766775  40.5585718  25.8066034  23.1937838  58.1865072  15.4688489
  22.3172522  58.4476376  15.1864803  23.0745792  57.8807402  16.3680315
  27.7751137   4.7756820  15.7416356  28.1781132   4.6448570  14.8833179
  26.9920645   5.2959877  15.5617762  62.5550991  65.6001949  45.5664206
  62.0733362  66.2966013  46.0126925  62.1803909  65.5760002  44.6859455
   2.5395161  57.2423744  19.3295026   2.0277075  56.7687130  19.9851918
   3.3527866  57.4707890  19.7796690  10.1885176  67.5361156  49.5530701
   9.2962658  67.1960449  49.6199274  10.6225848  66.9495964  48.9335442
  82.6655281  69.0051413  13.0733538  82.9392296  69.3048716  13.9402342
  81.7198554  69.1522932  13.0565870   2.4871998  55.7131910  41.1743784
   3.1592190  55.0869322  40.9052706   2.5519294  56.4231873  40.5356646
  26.1992192  50.1416349  33.9316940  25.6349015  49.5404100  33.4455824
  25.9486961  50.0178814  34.8472023   1.2884653  79.3727446  41.0530281
   0.6339060  79.0842009  41.6890526   1.4443590  80.2919006  41.2699938
   5.1204485  43.6607647  58.7829685   5.8535552  43.6336184  58.1681108
   5.3696793  44.3268824  59.4235945  15.2577066  72.5534058  27.9462361
  14.8022747  71.7142248  28.0139637  16.0346127  72.3625517  27.4206686
  84.9821065  75.8686781  11.2267578  84.8412078  76.7201138  10.8127069
  84.6122995  75.9649992  12.1043670   9.1764241  32.1223235  19.8307884
   8.2552576  32.3624372  19.7306406   9.2641640  31.3018107  19.3457198
   7.2984308  55.8527756  31.1506367   6.8633664  56.4022875  31.8025470
   7.3677498  54.9944925  31.5686965  15.3825498  58.8296700  12.9908121
  16.3015044  59.0878677  13.0621397  15.3737807  57.9048204  13.2374156
  32.7491879   9.0215093  27.9718590  32.0463920   8.3728689  27.9321647
  32.2958636   9.8631185  28.0210733  32.6363230  30.9183884  23.8940811
  32.4995255  31.6951704  23.3517456  33.5571766  30.6930733  23.7618184
  28.6948347  43.3003664  30.9484267  29.0798545  42.8830147  31.7190170
  29.0542817  42.8128147  30.2072620  23.6074996  67.7941990  24.3228745
  22.9473138  67.1611214  24.0407395  23.2337809  68.1966877  25.1068187
   7.7977890  80.1773167  39.8919249   7.8283006  81.1205769  40.0518084
   8.6547875  79.8585510  40.1750755   0.0871364   5.5671459  17.7628648
   0.2559401   5.1402831  16.9229090   0.0954002   6.5029722  17.5618851
  38.6750412  53.6241531  25.3766918  38.3947897  54.1006660  24.5952678
  37.9998469  53.8140821  26.0280538  35.3675842  43.9081144  36.9147325
  34.9816775  44.2027187  37.7396655  36.2542510  43.6342812  37.1493983
  13.3187139  29.6735168   5.5041552  12.5751185  29.4465661   6.0625380
  13.8818538  28.8998985   5.5290735  14.8396683  28.4509683  28.4941268
  15.4580760  29.1707468  28.6195183  14.4873750  28.5883212  27.6147771
  31.7676973  57.3247099  36.4603782  30.8466458  57.5074577  36.2746382
  32.0675802  58.0861855  36.9568300  20.5374146  50.7105970  17.2509468
  19.8173320  51.3412285  17.2553432  20.6949615  50.5205011  18.1757569
  28.1066442  47.4302864  34.4018483  28.5406566  48.2745361  34.5247555
  28.2843924  46.9496536  35.2103186  72.7516776  63.2625580  30.4706597
  72.8821522  64.1241360  30.8667612  72.9460496  62.6434994  31.1743760
  37.6900911  73.7793732  55.8934069  38.1909823  73.5294533  56.6698599
  38.2305932  74.4415617  55.4626036  10.3101134  66.0586309  46.9674492
  11.0250270  66.0380602  46.3312817   9.6549046  66.6341877  46.5728998
  66.2790686  53.7321615  21.8708467  66.9719380  53.4114027  21.2935448
  66.5095037  54.6462965  22.0366287  25.2048969  13.5248673  37.8173661
  26.1102009  13.7221634  38.0576468  24.9237776  12.8720236  38.4584594
  80.2047348  34.0119743  32.6919532  79.8836893  34.6401501  33.3389115
  81.0004067  33.6510158  33.0829072  27.8567362  48.1542110  31.5132451
  28.5054564  47.4934721  31.2707233  27.8139353  48.1085777  32.4684000
  72.7320174  22.3122005  66.1819115  73.5443405  21.9046859  66.4824015
  72.3600856  21.6799478  65.5669668   3.6959401  76.1164904   5.5609697
   2.8228843  76.4822292   5.7032377   4.2937940  76.8297529   5.7847124
  41.3822556  52.1008539   7.0007104  40.8203030  51.3437223   6.8357915
  42.1103430  51.9966936   6.3881195   4.2130801  52.9625511  49.7999048
   3.5636532  53.5890579  50.1192236   3.7611803  52.4815464  49.1066122
   4.9110815  22.0244340  47.9808161   4.2794368  22.7421884  47.9351827
   5.0294134  21.7513160  47.0710727  20.3649330  33.9722157  37.8344774
  21.2929201  33.7661481  37.9467511  20.3455663  34.9180222  37.6885080
  74.5465892  42.9963970  36.5566635  74.5487398  42.1617842  37.0253325
  73.8787240  43.5187912  37.0008373  42.9950323  71.3250562   9.9049786
  43.8394287  71.5960904  10.2652100  42.6790622  70.6561919  10.5124405
  61.1269480  30.1993561  45.5909729  61.9912821  30.3166533  45.9851837
  61.1850625  29.3618250  45.1311970  33.1597185  71.7125797   6.2259811
  33.8168383  71.3874149   5.6106019  32.3365140  71.6757822   5.7389361
  18.7206006  36.0495353  57.1802807  19.4235909  36.3267756  56.5927649
  19.0903676  35.3113317  57.6645947   4.3573886  38.9244843  45.9558725
   4.6885964  39.3021679  45.1410818   3.7995887  38.1993318  45.6743717
  32.9741526  32.6561761  16.4601445  33.2095170  31.8341208  16.8903327
  32.1139860  32.4875283  16.0755587  24.1598845  20.8160520  24.0802240
  23.7723708  20.1459098  24.6432257  23.9853764  21.6404772  24.5342088
  24.8118285  77.4397801  66.8128252  25.6750954  77.3235391  67.2096759
  24.3297026  77.9771851  67.4413016  35.9829283  76.5171528  13.1234217
  35.2520776  76.1170483  12.6522493  36.0090113  76.0555220  13.9615428
  50.1012781  18.3282524  40.7919407  50.1785257  19.2799907  40.8587456
  50.2525070  18.1401115  39.8656750  48.8682890  44.4728184  11.4052427
  49.4029140  44.4779110  12.1992075  49.1696119  45.2336693  10.9087098
  46.8827105  32.0632005  45.4528952  47.6895618  31.6678071  45.7828760
  47.1247292  32.4256444  44.6006632  17.2894764  55.7211494  28.2067156
  18.0835640  55.6252861  27.6809144  17.5085926  55.3185844  29.0470505
  45.5756202   1.6278511   3.7649748  45.0393739   2.1920448   3.2078752
  45.5574134   2.0515400   4.6231064  30.9651971  43.3267593  15.2051687
  30.8415508  44.2649174  15.3494072  31.7075634  43.0944633  15.7629871
  13.8601780  52.7168179  11.9645298  12.9654086  52.4657536  11.7352104
  13.9734483  53.5832357  11.5737367   7.4791735  43.6296129  17.7748394
   6.8890470  44.1783619  18.2914209   7.4106443  43.9757586  16.8850529
   5.6844270  57.1770763  24.1722107   5.0100803  57.0826244  24.8449421
   6.4086986  56.6327333  24.4810057  58.4040692   4.1173797  51.8601656
  57.6526692   4.6718841  52.0702887  58.7490037   4.4804531  51.0444260
   6.9754672  70.5796719  11.3677013   7.5282449  71.2536526  10.9722042
   6.4527220  71.0495377  12.0174658  74.3271404  67.2494268  48.8493252
  74.0071303  67.1650696  47.9511595  75.2285629  67.5571299  48.7545109
  13.3966887  24.5804620  49.8016453  14.1035903  24.0253997  50.1309252
  13.7993991  25.0886631  49.0975237  53.8627651  12.5470787  54.9342060
  53.1807711  12.1588855  55.4823112  54.6799543  12.3458343  55.3901958
  18.1343773  18.1801754  40.5286217  17.7734902  18.8295799  39.9250817
  19.0808883  18.3176094  40.4903936  37.9980326  55.9497738  28.0772543
  37.6360345  55.0647497  28.0334377  38.9143944  55.8467150  27.8205633
  32.1114945   1.7848068  13.5844564  31.5623629   1.0108810  13.4590590
  32.9696136   1.4336448  13.8222480  13.8840556  57.7326488  42.2701216
  14.6372640  58.2835102  42.4833393  13.2426286  58.3376789  41.8976402
  24.9670625  46.8224096   6.2726188  24.0491223  46.5512276   6.2637556
  25.0233221  47.4994135   5.5982798  18.6415288  42.3035840  64.0317616
  17.8184983  42.2856645  63.5433653  19.2564819  41.8171434  63.4827271
  26.2191391  73.2458639  48.5823441  26.2864351  73.8957691  47.8828287
  26.9917178  73.3986855  49.1264009  66.9164398  29.8584705  24.3251562
  66.2590483  29.4888359  24.9145937  66.7034462  29.4901806  23.4677029
  18.7173605  62.5580168  58.8243103  19.4458544  63.1517649  58.6426687
  18.2033658  62.5555086  58.0168247  25.1166344  70.6250477  38.6868191
  24.6693039  71.4623404  38.8095903  24.5356965  70.1249170  38.1135726
  35.3376722  48.5092211  25.2438641  34.7470403  49.2235565  25.0048828
  34.7817540  47.7300119  25.2479863  32.0055962  74.8767090  45.1952124
  31.6085863  75.7438707  45.2767229  32.8018212  75.0248194  44.6849966
  18.0376387  76.6040897  24.0058827  17.6739693  75.7218552  23.9308167
  18.8500357  76.5720606  23.5006905  51.4089203  79.5891428  56.6928196
  51.9081593  79.7583723  57.4917889  52.0741177  79.4113398  56.0278845
   9.0065402  71.7396164  14.4151604   8.0835718  71.9511890  14.2751670
   9.3270713  71.4823103  13.5507035  43.1437972   6.0859447  38.8107133
  42.6070419   6.5238052  39.4713235  42.8944376   6.5018135  37.9854202
  26.3164282  56.0108280  18.1763422  25.9861994  56.2316799  17.3054779
  26.3361192  55.0539207  18.1894600  27.6331012  14.5587021   4.4661343
  27.1186019  14.1846233   5.1813883  28.4772322  14.1104370   4.5183611
  50.2885559   4.2990070  48.3556271  49.5442703   3.7960964  48.6863089
  49.9152091   5.1451355  48.1088257  49.3475392   8.5349327  35.3332925
  48.8232282   8.6928230  34.5481801  48.7369421   8.6640983  36.0590458
  25.8054352  74.4084501  11.0451186  26.4057684  75.1280689  10.8502293
  26.3650727  73.6327314  11.0810661  13.1235635  73.6488104  22.4600482
  13.8740253  73.0702400  22.3247910  12.3768997  73.1562233  22.1193409
  57.5761392  14.0908771  60.6452608  56.6886237  13.9407116  60.3196812
  57.5923517  13.6642700  61.5019846  60.0371816   4.1556507  38.7384963
  60.3710511   3.2772022  38.5566092  60.8029487   4.7243171  38.6581349
  34.3379736  71.2151003  36.5747881  33.8054132  70.7523537  35.9278870
  34.7019577  71.9601345  36.0965967  66.2379601   6.2695842   9.7652650
  65.6058958   5.5668502   9.9165559  66.1874893   6.8108326  10.5531275
  22.4517512  70.1844168  43.7447929  23.2378840  70.5477285  43.3370733
  22.4730992  69.2543554  43.5194969  57.7036458  74.7880554  48.4860802
  57.9549366  73.8726473  48.6090040  58.4498960  75.1827765  48.0349302
  39.6312308  71.5394592   1.2439759  39.4119239  72.4659967   1.1456328
  39.1180325  71.0986757   0.5668008  82.3316276  61.3369036  29.9818802
  82.9837751  61.8111134  29.4660664  81.6221046  61.1579800  29.3647933
  27.0627270   5.2463585  65.2842760  26.3509445   5.3738170  65.9114504
  27.4186050   4.3838363  65.4978991  65.0720074  13.8651424  41.0992622
  65.3622439  13.7743908  40.1916504  65.8343795  14.2145305  41.5607214
  48.5642591  22.9244285  41.9727850  49.1905525  23.4565597  42.4635220
  47.7356437  23.0399471  42.4378490  62.2000172   5.8484035  67.6557827
  62.8940609   5.7192188  67.0093727  62.2515180   5.0768428  68.2199430
  26.4457846  64.5935106  26.7256618  26.2952209  65.5222511  26.9017339
  25.8369637  64.3821335  26.0179281  19.5802855  51.2804317  12.8948081
  18.7921226  51.6731930  13.2700062  19.4385040  50.3370667  12.9734540
  27.9368710  58.7865092   2.5773504  27.2939372  58.3251120   3.1158522
  27.9626011  59.6716715   2.9407623  65.9365225  79.8960257  16.8634653
  66.5825510  80.3118896  16.2925565  65.1161623  79.9454689  16.3727534
  24.5580244  50.0831985   5.5479783  23.7420344  49.5913553   5.4558820
  24.9762797  50.0161505   4.6896085  74.2385817  64.9777985  21.0376358
  73.5617876  65.6257915  20.8419633  74.5753384  64.7168827  20.1804614
  26.3648152  44.6917248  30.7500577  26.7602682  45.0109911  29.9389362
  27.0662284  44.2052698  31.1831951  29.5459962  55.2004480   9.1918039
  30.3914022  54.7647142   9.0838343  29.4405174  55.2871895  10.1392126
  19.9710333  16.4835405  34.0434265  20.6524563  15.9484577  33.6365104
  19.6335042  15.9404707  34.7557330  33.1108999  69.6136761  31.7394662
  33.9167595  69.3764353  31.2806225  32.4153280  69.1900396  31.2365294
  19.4087529  54.1930723  16.0140646  19.3808281  54.8007011  15.2749825
  20.2473617  53.7410736  15.9209716  82.9059490  67.3238850  43.9666271
  82.4859270  66.8901491  43.2238722  83.7502681  67.6188946  43.6255646
  28.8322973  72.5103521  44.7930670  28.6122036  72.4344969  43.8646078
  29.3731952  71.7417717  44.9745655  34.5006153  13.5861641  36.8249822
  34.5840612  14.1977363  37.5565934  33.9117834  12.9044395  37.1486425
  41.9563246  66.9149160  51.6537523  41.1151743  67.0486116  51.2169123
  41.8111467  67.2166729  52.5504684  79.5435238  51.3958502  29.5272303
  80.4917931  51.3025999  29.4360089  79.2493510  51.7021036  28.6693811
  43.2464981  43.9908981  25.0445580  43.0715227  44.2008972  24.1272163
  42.5869417  43.3348894  25.2701068  12.8467059  74.2453241  26.4336157
  13.6845458  74.5938396  26.1290002  12.8414690  73.3367825  26.1323524
  16.1895621  54.6936321  15.8426094  15.7675183  55.0465202  16.6259217
  15.5098462  54.1683626  15.4203415  67.4108425  29.0255431  67.6524112
  67.0514778  29.9048452  67.7703716  67.4377814  28.9031247  66.7034534
  28.7682581  53.3079720  26.6086769  28.2720184  53.6547899  25.8672619
  29.5999980  53.7809992  26.5824699  26.1441493  60.3967905  16.0369647
  26.0805678  59.9700165  15.1825333  25.2638650  60.7345152  16.2021005
  81.3167238  64.1089392  42.3122263  81.4655858  63.8595819  43.2243109
  80.4077983  64.4083357  42.2910690  83.0899858  62.5575686  12.2544312
  83.9035049  62.4920273  12.7545547  82.4533921  62.0584106  12.7661157
  72.0164490  69.2116356  26.1312604  71.1903524  69.0857792  26.5981197
  72.5593328  68.4709072  26.4011240  11.0996962  53.5014248  22.0149589
  10.1685011  53.3094025  22.1255660  11.2680614  53.3437681  21.0859656
  76.7028337  22.6874329   4.3806580  77.2056156  23.3201434   3.8677099
  77.3044615  22.4056984   5.0697926  52.5328997  20.3678089  32.0464993
  52.0198062  19.7498661  31.5258169  53.3438614  20.4828220  31.5511727
  10.0402734  64.1629438  68.8321270  10.7596848  63.7534742  69.3127623
   9.3353603  63.5159520  68.8590358  27.5112963  66.7994738   2.7621701
  28.3401155  67.0065451   2.3304158  27.3938870  65.8605862   2.6174924
  34.6303758   3.1219631  56.7861700  33.8703409   3.6691814  56.9839716
  34.2575219   2.2825485  56.5167332  62.6721123   6.6132408  27.6679659
  62.1386817   7.2708088  27.2215438  63.2589462   7.1210628  28.2283044
  36.2394238  74.3688679   3.1312999  35.7367659  73.9528561   2.4309418
  36.9956756  74.7529793   2.6877108  84.5891318  67.1562481  30.4500508
  83.9147039  67.6394129  29.9726248  84.1031754  66.6343546  31.0885668
  35.5572891  70.4173183  39.0742946  35.1839256  70.5627251  39.9435973
  34.9455619  70.8464193  38.4760523  61.1393359  16.2718921  44.6957207
  60.6523254  16.2101608  43.8739872  61.2765100  17.2106319  44.8229027
  35.9802291  11.9513374   7.3488742  35.2785822  12.4156910   7.8052747
  35.5870238  11.6781192   6.5200365  73.4294560   0.8621364  21.2574244
  73.7894633   1.3930851  20.5469847  74.1413358   0.2690368  21.4976001
  55.5185175  70.9656954  36.7174959  54.9624586  71.6179705  37.1436071
  56.2513113  70.8444881  37.3212719  33.3273220  62.6651382  45.2877712
  34.0150666  63.2335663  45.6343699  32.6400614  63.2672596  45.0025415
  53.8137197  71.2372065  23.6904144  54.6391153  71.1293077  24.1629791
  53.6736584  72.1837902  23.6660337  72.4916556  23.1945282  22.4423122
  72.9126790  23.6348301  21.7039990  73.0906346  22.4836021  22.6704264
   0.8689045  63.9346170  32.1036458   0.2419984  63.6085320  32.7493143
   0.6360005  63.4812117  31.2934518  80.1505148  71.0671616  29.4820452
  80.0188744  71.7859936  30.1002598  79.9151510  71.4369535  28.6311102
  57.1786213  74.2348766  35.1864648  56.6183853  74.8771906  35.6221247
  56.8576956  74.2094517  34.2850256  14.3313122  70.1096582  45.4604578
  13.9472401  70.2982187  44.6042109  13.6752880  70.4112291  46.0888815
  52.5470927   8.2610565   0.5141890  52.8762343   8.9623218  -0.0480517
  52.8138426   7.4548298   0.0725177  72.0005149  56.6528797  13.9759958
  71.8569344  55.7468462  13.7026489  71.4090007  57.1657991  13.4253061
  39.9164057  70.0554323  24.6515512  39.0054107  70.3267288  24.7643256
  40.3581572  70.3650570  25.4422593  33.1215572  56.3189459  24.1207457
  33.6764550  55.9997797  23.4090900  32.2358131  56.0567713  23.8698387
  55.3906133   7.1038967  19.3116391  55.2802852   7.6101261  20.1164937
  55.3630259   6.1907440  19.5973527  47.5235238   2.3743873  13.8564825
  47.5155559   2.3238712  14.8123157  47.0774415   3.1973129  13.6563957
  57.1601107  24.5630890  18.7446237  56.9279960  25.4286342  19.0810347
  57.0105460  23.9714771  19.4820917  53.0320049  68.6013888  63.9461806
  52.6433611  67.8008531  63.5935774  53.9761687  68.4558366  63.8861599
  50.2851799  16.7039447  33.2568455  50.5437377  15.9348732  32.7490020
  49.4325855  16.4722210  33.6251163  35.0871351   1.0599857  14.0151644
  34.7038433   0.3116470  14.4726717  35.7404586   1.4040905  14.6242535
  83.0155852   0.9762912  22.0139575  82.1863225   0.7172256  22.4157572
  83.6744740   0.7892089  22.6826119  11.0822892  77.1132946  14.5901370
  10.9636915  76.1638069  14.6153450  10.6586921  77.4288559  15.3883970
  53.4874084   1.0937935  31.9615078  53.0111554   1.4069515  32.7304983
  54.3568280   0.8694511  32.2931886  12.2379172  39.8293638  33.0156088
  12.5082219  38.9275622  33.1885767  12.4284279  39.9625993  32.0870686
  84.2493155   8.2363849   0.9891687  84.8916915   8.1836086   0.2814934
  84.7752431   8.2641750   1.7884558  64.8342350  22.9809623  60.6521511
  65.4125908  23.3337837  61.3283539  64.2636373  23.7132888  60.4190302
  33.6547756  59.8801422  18.8113666  33.9109445  59.5466471  17.9514885
  33.3638358  60.7765007  18.6436665  12.4097812  73.6255074  33.5942364
  12.7062058  74.1164398  34.3606281  11.5088367  73.3779192  33.8021588
  14.2819583  46.5540171  32.9779720  14.0300715  45.6525135  33.1781626
  15.0834620  46.4696980  32.4615288  79.2497307  58.0413723  37.2295618
  79.4040066  57.4663496  36.4800406  78.9418054  58.8611746  36.8431163
  53.0850792  77.0297050  28.7436438  52.2643423  77.4588823  28.5019183
  53.0994844  77.0618248  29.7001958  17.2596836  66.6925192  28.2938170
  16.8846631  65.9118128  28.7013578  17.1214974  67.3881340  28.9366674
  36.1068976  74.2107032  66.6298616  37.0464600  74.2295049  66.4479250
  35.9290898  75.0480126  67.0582643  63.1324151  44.4073539  23.3623958
  62.8014186  43.5129982  23.4449244  64.0847686  44.3129497  23.3809948
   1.0524625  52.7314711   6.5776020   0.6775622  52.8864050   7.4445957
   1.8241133  52.1899700   6.7436099   1.1697629   3.2939582  52.2803879
   2.0196131   2.8726154  52.1521235   1.3186314   3.9235931  52.9858208
  55.7052231  76.4757681  36.2926173  55.1094437  77.1861553  36.5305877
  56.4062214  76.9051981  35.8022857  83.3161494  67.1136570  36.0294104
  82.7140385  67.3487663  35.3234220  83.8368080  67.9038811  36.1732578
  20.9549665  78.8113070  47.5639439  20.6401825  78.5106087  46.7114639
  20.2885103  78.5145760  48.1836367  30.4671621  66.6164923  12.3307765
  29.7378659  65.9979153  12.3722029  30.0756836  67.4630737  12.5459015
  19.5971167  79.8742294  24.5126343  18.6692929  79.8555613  24.2780566
  19.7298503  79.0787888  25.0282741  25.3371596  64.1079998  15.2224874
  25.7849574  64.5705318  14.5141268  25.9222078  64.1979599  15.9747231
  78.2016945  80.3665733  26.5524626  78.1600618  81.2365437  26.9495130
  79.0921021  80.0641155  26.7311335  69.0534643  53.3613710  63.4408435
  69.1069320  54.1497544  63.9810416  68.1323913  53.3076982  63.1859395
  55.6508970  80.6331444  13.6127770  55.3222132  80.4031944  12.7436841
  55.0636244  80.1807976  14.2183554  34.9099588  76.6867876  39.5303726
  35.1370931  77.5915623  39.3158388  35.0239587  76.2098598  38.7083173
  30.8474016  60.9766674  17.1019256  30.9565902  61.7560816  16.5571117
  31.1099815  60.2504158  16.5363777  75.4338423  15.5908088  22.3414585
  74.6107844  15.2598504  21.9819137  75.9935251  14.8173074  22.4098942
  19.7995007  62.8864336  16.8470740  19.2228675  63.1128407  17.5767767
  20.6826067  63.0385685  17.1835423  23.1219673  27.9712677  10.7968783
  22.6538682  27.3030162  10.2963221  23.7650347  28.3244061  10.1820719
  48.3986616  58.6528730  19.7158539  49.1873360  58.4973764  19.1961944
  47.7843046  57.9782867  19.4264877  81.4102840  47.3465109  28.0738354
  80.5071610  47.3687410  27.7574396  81.9217199  47.7387381  27.3661447
   6.1242372  64.4063854  43.4744072   6.0417658  65.1001263  42.8200722
   7.0662475  64.3318462  43.6270237  43.9810419  59.4841623  23.4461522
  44.4583988  60.3133345  23.4750223  43.5984230  59.3975401  24.3192673
  45.1817658   6.8312221  61.4282846  46.0578456   7.1538883  61.6394901
  45.1510671   6.8302684  60.4715776  53.3918097   3.0142456  56.3242626
  52.6648071   2.9079967  55.7107401  54.1643217   3.1062751  55.7666016
  30.9954092   4.9527603  23.9023471  31.4561203   4.1451221  23.6749744
  30.6194699   4.7792106  24.7653556  19.8407567  40.7692575  10.7866502
  20.0674343  39.8449135  10.6844938  20.4916477  41.2349319  10.2615571
  33.2276082  34.4677234  10.1338255  34.0095878  34.7243404   9.6450639
  33.3707261  34.8150539  11.0142291   2.3293896  62.9512787  16.6060770
   1.8343864  63.2858372  17.3539233   2.8776988  62.2576380  16.9727528
  30.7230997  75.5468464  31.6672421  30.2528214  76.2164259  32.1639633
  31.5099597  75.3737020  32.1840668  46.4397159   9.9462944   0.0360575
  46.9890478  10.7246738  -0.0566806  46.4560643   9.7518688   0.9731612
  19.6005523  61.8984413  10.9252274  19.1263545  62.6798868  11.2093210
  20.1736403  61.6851044  11.6616309  55.4287913  28.1355434  38.0287719
  54.9512675  28.8850742  37.6732349  55.6862476  28.4110313  38.9085770
  18.6436176  70.0422430  39.3038511  19.2970002  69.7690821  39.9478292
  18.1986618  70.7839346  39.7139072  56.4917135  54.4218731   9.8506111
  55.7582521  54.6666193   9.2863703  56.9226980  55.2513885  10.0565016
   2.3164968  29.5795846  46.8097258   2.1762763  29.7534871  47.7404928
   1.4383736  29.5912480  46.4289474  81.4015645  77.2027206   2.0465098
  80.6706959  77.4750900   1.4916427  80.9869480  76.7762899   2.7964985
  45.8607521  12.8136497  15.1812744  45.2437928  13.4490829  15.5443549
  46.5877500  12.8029972  15.8038437   3.9243376  64.2912292  22.6083779
   3.8470191  65.2449560  22.6339507   3.0710039  63.9737415  22.9037714
  22.6221848  36.6744685  26.2643647  23.3979845  36.7737460  25.7125378
  22.9374075  36.2093687  27.0393157  50.1390794  10.2982765  45.7563972
  50.0063875   9.4879013  45.2645493  50.4156139  10.9355693  45.0978947
   5.3856486  75.0388145  56.5394831   4.6597117  75.6478548  56.4040995
   4.9745673  74.2519617  56.8973923  40.0367394  11.3682800   4.9327239
  39.2559102  11.7972141   5.2828079  40.2473250  10.6918102   5.5763644
  54.4770241  74.4494534  28.5559726  54.4745636  75.3595400  28.8525653
  55.2847338  74.0825701  28.9154625  23.3494377  57.5879383  30.0872278
  23.0488586  56.6960192  29.9129701  22.6246262  57.9968405  30.5601764
  79.8288777  20.8437305  53.6656141  80.7529309  20.8439117  53.9153290
  79.3737510  21.1939102  54.4314289  16.6433355  16.3814407   8.5518688
  16.9462606  15.7504612   9.2048085  15.7138368  16.1823326   8.4395623
  75.9509471  38.6892658  50.9446239  76.6775277  38.7482982  50.3242731
  75.6318047  37.7912956  50.8549452  69.5455792  39.2762523  53.7747049
  70.1536897  39.6282154  54.4247437  69.2383387  38.4533268  54.1550112
  51.7095425  46.2376266  13.8544548  52.4353841  46.7987877  14.1273832
  51.0148194  46.4199405  14.4871902  42.4844980  75.3068686  28.8877416
  41.9057989  74.5471764  28.9525986  43.3643770  74.9483013  29.0038276
  13.0085847  38.2940988  68.1153691  12.3751495  38.0827312  67.4295711
  13.3117053  39.1756324  67.8979945  34.9304256   6.7992836  19.4576538
  34.2215773   7.3991542  19.2254376  35.5260661   6.8311554  18.7090361
  20.4746601  12.3177009  22.0853090  21.0829660  12.9549938  22.4595380
  20.8153793  11.4682060  22.3654890  69.2410424  12.7963215  32.4469280
  69.3794253  13.0291229  33.3650160  68.4330180  12.2831684  32.4491286
  44.8373607   3.1144004  19.0949297  44.8301294   2.7966457  18.1920409
  44.1100779   3.7353664  19.1361332  12.7796695  51.9743947  66.1560219
  12.7514550  51.6018132  67.0372811  13.1214616  52.8597001  66.2811071
  57.4343565   3.0859619  27.0864725  56.7659595   3.7383419  27.2959352
  56.9411853   2.3360973  26.7537260  61.1989310   1.1555248  53.1348705
  60.7406619   0.7475429  52.4001789  61.4167097   0.4266410  53.7158394
  83.7442162   8.9945942  41.7721367  82.9613784   8.6046272  42.1611357
  84.4525006   8.7579876  42.3709536  56.4391520  23.6505371   9.8207468
  56.5666082  24.3616443   9.1928095  56.6456869  24.0409809  10.6699371
  42.5639906   4.5180088  47.2762775  42.4428203   5.4514843  47.4500132
  43.3726087   4.4723278  46.7660952  68.1733563  15.0561100  17.4669719
  68.6614945  15.3298145  16.6904163  67.3767498  15.5864959  17.4483919
  73.5365489   7.2640377  17.0326865  73.1183341   7.1997123  16.1740875
  72.8586438   7.6270252  17.6027071  20.6213236  75.3080225  19.3237400
  19.8030186  75.1284885  18.8607311  20.4586220  76.1290836  19.7880828
  56.8668556  79.9763155  31.0300446  56.4365625  80.5127144  30.3641963
  57.2512388  80.6096458  31.6361594  63.9852741  25.9844356  62.3203230
  63.9711359  26.7438465  62.9028511  63.9223125  25.2310329  62.9073954
  66.6076565  75.2795553  22.0348597  66.5554190  74.9306250  21.1450553
  66.4207792  76.2132549  21.9373417  35.3440401   0.9653335   7.1324682
  34.6524927   0.3811985   7.4435711  35.9772989   0.9901577   7.8498209
  64.6543455  68.5802603  45.1719856  65.4965734  68.5233545  44.7207165
  64.8773575  68.8537836  46.0617542  73.3346703   2.5679069  41.0940123
  73.7160304   3.4344631  41.2350464  74.0625289   2.0351654  40.7736444
  51.2356043  76.2234354   2.8171185  50.4611588  75.8198309   2.4252304
  51.7026854  75.4960632   3.2282138  60.3273678  80.1233387  48.8822603
  60.9059715  79.5254040  49.3554592  59.4533634  79.7493076  48.9938307
  46.8055537   0.7451969  37.4366426  46.5960195   1.6132217  37.0918751
  46.0636881   0.5258995  38.0003572   6.5843984  15.4001289  55.8355761
   6.2311765  16.0535293  55.2318096   6.7490980  14.6324115  55.2881098
  42.5864935  73.0083179  38.7852931  41.6681290  73.0622768  38.5208440
  42.8963661  73.9136457  38.7608528  24.2156565   3.1045204  34.6944332
  24.1598671   2.1745353  34.4747901  25.1443234   3.3171993  34.6018267
  77.2220390  59.4786860  21.0628823  77.2579532  58.6302496  21.5045765
  77.3613554  59.2735030  20.1383713  32.3236275  65.2688408  19.6156311
  32.7700806  65.2911663  20.4620433  33.0263543  65.3574467  18.9717698
  57.9452350  11.1827140   7.4703461  57.8404453  10.3529030   7.9358178
  58.3554128  11.7655998   8.1092781   7.1398079  44.2320681  33.6006188
   7.7530777  44.2967367  34.3327045   6.8424290  45.1305246  33.4572053
  59.9615526  59.8641443  26.8402553  59.3036842  59.7220421  27.5208783
  59.7980404  60.7552719  26.5314174  45.9640124  16.6513782  36.9370842
  46.7181161  17.1518665  36.6255307  45.7421496  17.0510917  37.7780581
  42.0094249  64.2803792  62.2701570  41.6173360  64.7444753  63.0098292
  42.4075458  63.5019139  62.6596787  80.6663087  15.1036125  48.5689449
  80.1866963  15.1462131  49.3962240  81.4747622  15.5882507  48.7355566
  34.2939329  68.9452600  23.2713747  33.8363171  69.7361231  22.9861355
  33.7054777  68.5459614  23.9120865  14.1216108  16.8322616  54.3728971
  13.8827726  17.2720867  55.1888275  13.3438846  16.9129711  53.8207579
  59.0731075  24.3658119  36.2958646  58.5469582  23.5691028  36.3640881
  58.9755824  24.7909408  37.1479130  60.5018332  14.4157463  65.9510136
  60.9553912  13.6619621  66.3282776  60.8000663  15.1606041  66.4730072
   7.9513049  61.6042089  34.7767949   8.1621712  62.5366259  34.7281384
   7.2220099  61.4914513  34.1671681  79.1145897  49.8642874   5.4500329
  79.0461731  50.2795410   6.3097501  79.8691082  49.2801380   5.5255598
  82.9501059   7.9369598  15.3942871  83.8041642   8.3158451  15.1862824
  83.0973866   6.9912868  15.3786421  16.6797084  68.5703468  35.7083297
  16.4990348  68.4623051  36.6420913  17.0923251  67.7470064  35.4473805
  46.3270226  10.3952556  25.2499676  46.9219604  11.0703903  25.5762696
  46.7278340   9.5702129  25.5236316  52.9777908  61.5986252  29.2979336
  52.8462696  62.4992609  29.5942187  52.8058052  61.6285658  28.3567882
  16.3933107   3.4617668  23.3259630  17.0542785   2.7719455  23.3850837
  16.8915579   4.2544609  23.1269073  74.4463351   2.5189644  60.4112148
  74.7613671   2.0011573  59.6703625  75.2383283   2.8976303  60.7927847
  64.9557209  74.5139313  36.6237116  65.5149317  73.7371254  36.6145849
  64.7031069  74.6379566  35.7088137   6.5702364   6.0915619  11.9548035
   6.8383333   6.3771778  11.0814297   7.3883983   6.0274654  12.4474895
  24.8489332  80.7829189  37.9768491  25.3454828  81.1747456  37.2584176
  23.9861870  80.6047344  37.6024866  11.0887787  11.9520240   6.8511891
  11.4074966  12.5080352   7.5621748  10.6501505  12.5565868   6.2525755
  54.5116046   0.5711227  15.3742826  53.5794762   0.6043296  15.1591861
  54.8929551   0.0081306  14.7006047  27.5427553  30.8361965  23.6370945
  28.4437772  30.8667427  23.9587355  27.5016138  30.0345379  23.1156778
  30.4660722  17.2671085  10.8022988  30.2293321  17.6643234  11.6403961
  30.2425691  17.9316669  10.1506519   0.2819225  65.5928665  20.7723308
   0.5300018  65.0703674  20.0096464   0.6957742  66.4432960  20.6249332
  40.5524683  55.5205250  27.1144795  40.3819609  54.8717976  26.4316082
  41.4982653  55.6633472  27.0783734  22.7920625  19.0562467  58.9032826
  23.7187907  18.9052991  59.0893337  22.3563764  18.9410762  59.7477612
  75.9889728  52.2849703  34.7326255  75.9170401  51.4625072  35.2169991
  75.1957649  52.7687216  34.9629211  76.1077121  27.8712040   6.8012464
  76.6863587  27.7337127   6.0512489  75.7612374  27.0011192   6.9991177
  29.5210290  78.0830431  25.5053592  30.4002237  77.9063654  25.8400774
  29.4020391  77.4489355  24.7982645  24.2321801  68.9816236   7.9061681
  23.5596061  68.4648466   8.3498102  24.9035239  68.3437109   7.6641005
  60.9294558  75.2255249  40.7178020  61.5509272  75.4475975  40.0244808
  60.6628418  76.0704374  41.0801125  77.1816519   3.1756477  61.8373194
  76.9789079   3.6268787  62.6567808  77.6000217   2.3592452  62.1106061
  40.5758858  75.9476805  67.6090097  40.6030512  75.7292652  68.5405588
  39.9638820  76.6815281  67.5528145  26.4288187  75.6815004   3.7323421
  27.2177887  76.1809397   3.5218257  25.8177090  75.8899975   3.0257294
  29.1582489  74.7733545  41.8521404  28.8963079  73.9010954  42.1467257
  28.4004784  75.3271914  42.0399761  33.9992952  79.6706247  14.6658683
  33.6600256  78.8051414  14.4376779  33.2488966  80.1304150  15.0423336
  40.3275871  76.3579559  27.7891946  40.6647635  76.7164230  26.9681907
  41.1072588  76.0639763  28.2602811  55.2869511  78.5279179  33.6796355
  56.1990881  78.3334875  33.8951445  55.2199173  79.4795370  33.7580872
  55.5319336  11.6237789  57.2575092  56.3016155  11.7928463  57.8008699
  54.9270919  11.1600834  57.8366327  31.9803596  64.0746546  12.9426718
  32.9105711  63.9910030  12.7330494  31.7334628  64.9329281  12.5982344
  53.6311677   0.2978473  43.1401777  53.0277660   0.7731205  43.7113667
  54.1174963  -0.2771611  43.7310076  83.8556578   5.0953918  15.9518623
  83.8191464   4.1458183  16.0667980  84.5124820   5.3880458  16.5836632
  46.8770742  66.7850685  58.2466125  46.9045925  67.7081680  58.4983397
  46.0054922  66.4906120  58.5109377  84.4593811  48.3858728  14.5071149
  84.8597145  47.5853109  14.1679072  84.4182968  48.9719057  13.7513959
  78.7950211  22.5604321   6.7116097  79.5946246  22.2266556   6.3048390
  78.7750822  22.1474387   7.5749043  36.2014031  76.8295908  16.2745726
  35.9354186  77.4931383  16.9111133  35.5621743  76.1251974  16.3815820
  66.0055592   9.5862632  30.9818554  66.8015745   9.0749984  30.8362675
  66.3005450  10.4968219  30.9717822  31.1309218  76.5771437  58.1540775
  30.9469295  77.4291277  58.5496902  30.2678585  76.1914015  58.0039024
  56.9669869  45.3705459  52.4262047  56.3865784  44.7452789  52.8602552
  56.3752868  45.9912162  52.0008945  25.6064356  73.7246440  67.8080118
  26.3714111  73.2254766  67.5218701  25.8326677  74.6362804  67.6237109
   1.4341119  77.1784878   7.1536940   0.4902415  77.0694494   7.2696739
   1.6906624  77.7923107   7.8419060  75.1929953  12.4652057  31.1768627
  75.5635312  12.2881179  32.0414901  74.3314269  12.0485740  31.1956024
  33.5216665  68.1277561   1.0324937  33.0111265  68.6046219   1.6868475
  34.4062352  68.4847260   1.1121448  54.7632265  68.7014198  18.6443913
  54.8325777  67.7861977  18.3727443  53.9148617  68.7571001  19.0841687
  67.7059081  22.4390751  11.8571198  67.0822671  22.1816688  11.1781156
  68.0010584  23.3105713  11.5933013   5.2074644  12.3848491  20.9473968
   5.8853838  11.7223888  20.8139300   4.9887392  12.3198085  21.8769979
  84.0109375  71.6295079  62.1647629  84.6029929  72.3767404  62.0791081
  83.6487249  71.7108182  63.0470452  44.7839975  62.5001764   5.6675339
  44.1983128  61.7796373   5.8999652  44.7507238  62.5370502   4.7116232
  77.2379639  10.4022556  17.8678298  76.3847449  10.1435905  17.5194812
  77.6982835  10.7796817  17.1182394  48.8490438  61.9701242  22.7543592
  49.5618010  62.1929789  23.3531475  48.8121367  62.7048683  22.1419668
   3.2498619   9.4773822  48.7545729   3.5699674   9.5014053  49.6563435
   3.6559459   8.6971717  48.3769655  80.1679665  62.5073957  68.4368229
  80.1186526  61.6324615  68.8219118  79.5469969  62.4839783  67.7087593
  14.5434773  67.2713518  45.2601147  14.4509423  68.1983376  45.0401735
  15.4607594  67.1764708  45.5166721  38.8021329   3.0101257  10.8077955
  38.1332805   2.5090652  10.3410935  39.6119860   2.8319984  10.3296280
  32.5025415  76.3897610  42.8495312  32.2567630  75.6056452  42.3586226
  31.8095255  77.0208693  42.6554537  73.4155753  30.0158649  66.7132998
  72.5556996  30.4274135  66.7996979  73.7463811  30.3268676  65.8706379
  50.8724117  64.6856594  21.7323375  51.4616537  64.0493727  21.3271642
  50.5910206  65.2459478  21.0090590  65.8442548  26.9100242  20.5986214
  65.5248072  26.1141544  21.0238051  66.0915544  26.6282993  19.7178793
  64.3532422  22.5773197  23.3658862  63.7308147  22.5123459  24.0901732
  64.9708011  21.8615204  23.5158563  64.0447673  52.2165994  59.9381229
  64.4899747  52.5744943  59.1700479  63.9136610  52.9712133  60.5122313
  65.8793023   1.4978748   5.7960379  65.5851868   1.8379837   4.9510196
  65.4981020   2.0945411   6.4401728  57.4548483  62.2350788  49.9967861
  57.8343487  63.0993080  50.1559305  56.8663263  62.0917511  50.7379532
  19.8816037  73.1617403   0.9689476  19.8647535  73.6503601   0.1460253
  20.4857159  72.4375486   0.8051743  76.9429305   4.7410923  30.4379749
  76.1852172   5.3188377  30.3468466  77.6986745   5.3177696  30.3260636
  55.8507967  72.1153402  39.6625137  55.8302164  72.7589369  38.9542818
  56.6578770  71.6223621  39.5147777  73.9778137  78.1552935  13.8726687
  74.1484833  78.4454823  12.9766250  73.4356785  77.3728848  13.7718773
  30.9510136  54.2462492  13.6051714  30.0347590  54.1330051  13.3524144
  30.9638548  55.0666809  14.0980804  84.2671206  21.6313606  38.7666559
  84.6898415  22.4891334  38.7247992  83.3602288  21.7984920  38.5100484
  27.2107387  70.5081415  56.9604111  28.0754805  70.5821180  57.3641205
  26.7941475  69.7782564  57.4186134  79.2445376  27.9163890  13.9394486
  79.0862134  27.9751354  14.8816335  79.2481139  28.8255458  13.6400318
  16.8747497  79.0197897  24.6238637  15.9835494  78.8562727  24.9324989
  17.3270845  78.1849337  24.7448683   7.4342710  59.2025280   2.2188036
   7.2818917  59.9095964   1.5918499   8.0134493  58.5950613   1.7586213
  52.4974442  76.1107302  11.2704802  52.5969696  76.3529634  10.3498030
  52.7067614  76.9107151  11.7526019  71.3871434  32.0845085   5.7170308
  70.7368234  31.6203457   6.2441576  72.2256425  31.8647342   6.1230475
  70.8804798  77.0798206  19.9891567  71.2438536  76.8919945  20.8545518
  70.1385307  76.4808273  19.9057734  62.5859192   4.1338115  35.7507730
  61.8787029   4.7768741  35.7002997  63.3380249   4.5732933  35.3540063
  82.5032931  22.7529742   0.6577709  82.1274572  21.8977333   0.8664492
  82.0612341  23.0185391  -0.1486370  37.9488966  12.1816593  59.4252110
  37.2248998  12.7500015  59.1624355  38.5909751  12.7758270  59.8137140
  33.4288263  69.7027254  64.0359735  33.3228946  70.6470537  63.9208508
  33.5873342  69.5920134  64.9734449  44.2394829  71.3381290  55.9664774
  44.6338701  71.0732937  56.7974758  43.9358091  70.5196667  55.5738735
  18.5843456  59.3170547  31.8494868  18.9101005  58.9193392  32.6569128
  19.3702435  59.6350813  31.4051270  42.5158501  55.9348726  21.5180182
  43.2575369  56.5297222  21.4071631  42.8740883  55.0675821  21.3290668
  16.7346737   5.2460437  69.9768353  16.2156364   5.7093197  70.6342649
  17.3501083   5.9028583  69.6511602  74.6735859  57.6749372  34.7330070
  75.1932621  57.8220272  35.5232811  75.0360250  58.2853746  34.0909505
   6.3937110  79.1811752  42.2080803   6.9085997  79.3003178  41.4099979
   5.6022948  79.6994305  42.0621300   4.4157099  26.5328576   1.4524439
   5.1689362  26.3009430   0.9092119   3.6713075  26.5123965   0.8510473
  62.0298961  18.5895973  34.6892715  62.8988674  18.8615947  34.3940830
  62.1868542  17.7895504  35.1907897  34.2635608  65.2079678  64.7840214
  34.0136075  64.5771170  64.1089010  33.6420441  65.0557852  65.4959154
   3.4745619  48.9764553  20.2041578   3.4690544  48.2009273  20.7651925
   3.9620086  48.7057644  19.4261158  72.3050359  20.9962993  52.2415733
  71.4339640  21.0754924  51.8527317  72.3183396  20.1182895  52.6225519
  60.8750916  81.0181332  21.3974595  60.4521132  80.6946373  20.6020546
  61.4007139  80.2801895  21.7063046  67.6326397  19.8592525  37.3440981
  67.8866675  20.1209980  36.4591193  66.8823841  20.4159694  37.5524592
  53.1785440  76.3569546  49.0710592  54.1336870  76.3207436  49.0198851
  52.9015636  76.6218472  48.1939363  25.2469373  40.8370638  22.9839325
  25.4927015  41.6022110  22.4639463  24.8199677  40.2503443  22.3596835
   8.3266660   1.2606483   1.5094538   8.4965345   1.7732673   0.7191341
   7.3882744   1.0746055   1.4771694  39.8470664  53.9879824   2.1148375
  38.9379477  53.9992644   1.8155029  39.7920537  53.7432505   3.0385855
  73.0761865  24.4073825  13.7276816  73.4395507  24.4790512  14.6103263
  72.1428874  24.2453914  13.8653111  55.5079868   2.4919181  34.6434140
  55.3558042   3.3588367  35.0195909  54.7374776   2.3281818  34.0995955
  45.5312469  20.0618320  35.8532047  44.9643603  19.2916637  35.8117890
  45.9339848  20.1096969  34.9861717   6.1685151  68.3219051   6.3659626
   6.0167867  67.5197077   6.8656516   6.9286871  68.1233406   5.8192062
  18.7247288  73.0422544  24.1355920  18.1456220  73.2943487  23.4163451
  19.5691013  72.8763962  23.7163568  62.3400166  75.1525446   1.6289023
  62.2212174  74.2951294   2.0375088  62.3760131  74.9676963   0.6904057
  25.2229238  70.6950188  12.6760519  24.2765069  70.5531597  12.6961327
  25.4728174  70.5156517  11.7696226  44.2181638  19.8806720  28.9539313
  43.9409640  20.7902198  29.0640259  44.8803845  19.7483211  29.6322966
  31.1004281  68.6387777  52.6877546  31.7540526  68.0382013  53.0459690
  30.8383417  69.1796303  53.4327555  36.0845661  75.1203299  63.6611176
  36.1580181  74.2016840  63.9198208  35.9835029  75.5942774  64.4865847
  37.6450133  78.1654739  47.2224569  37.2650957  79.0416861  47.2868299
  36.8894529  77.5796032  47.1764421  27.8224157  46.4053779  37.0233083
  27.9798563  46.4766079  37.9647803  26.8715512  46.4694458  36.9339585
  44.8507872   7.6617199  23.9265037  45.6962576   8.0594211  24.1344666
  45.0501314   6.7366081  23.7827992   6.2067672  34.0598636  13.5602868
   6.0380336  34.3112236  12.6522231   7.1179792  33.7667328  13.5623014
  59.8752880  73.5854435  35.2055144  58.9191484  73.5914707  35.1609492
  60.1560259  73.4236097  34.3048334  76.3167384   0.1527839  15.3080237
  75.6302312  -0.2891201  14.8083591  76.7179253   0.7558685  14.6822751
  44.0364504   9.6601853  65.7315323  44.4663000   9.0570912  65.1251128
  44.4623852  10.5027184  65.5735993  82.3266557  13.5982853  21.1401105
  82.9783109  13.8530021  20.4868889  81.4921191  13.6346393  20.6727195
  31.7040801  74.1718388  38.1259012  31.0016489  74.0287590  37.4915910
  32.1203709  74.9859238  37.8427100  81.2356472  74.1120863  28.8164115
  81.5991879  73.6692142  28.0496430  81.4109802  75.0403976  28.6623549
  14.0045854  15.7211166   7.8540337  13.2780048  15.1165825   8.0052197
  14.2468425  15.5802971   6.9387668  19.7799873  70.8269596  17.2708952
  19.4242728  69.9395609  17.3180425  20.0121784  71.0402536  18.1746781
  17.3785555  62.1823311  27.3883748  17.7898467  61.9496012  28.2207847
  18.0476272  62.6839828  26.9226241  63.8037634  75.4650640  46.2664747
  64.6818209  75.2804279  46.5998793  63.4899378  74.6222973  45.9386110
  26.5189862  71.7296553  45.8216906  26.5695858  71.6231871  46.7716026
  27.1205020  72.4488544  45.6289053  58.6466074  61.8340778   3.2659787
  59.2611504  61.2727785   3.7387505  57.7871895  61.5924263   3.6112800
  48.2543757  17.4850803  25.3685069  48.0675545  16.5721946  25.1494765
  47.6302650  17.6974254  26.0624981  16.7312738  38.0388027  39.4915366
  15.9375784  38.3077198  39.9541020  16.9689390  37.2017246  39.8903465
  16.3678932  72.9806376   9.4193035  15.8017874  72.2335434   9.6132237
  15.9157956  73.4476995   8.7166721  60.3559234   0.5100494   3.7549132
  60.4461530   1.2659698   4.3351460  59.5993975   0.0340992   4.0975076
  81.8843415  39.5337539  16.3215649  80.9685042  39.7973781  16.2322950
  81.8442395  38.6402469  16.6625476  80.5259421  26.9112545  11.7405903
  80.6818345  25.9901100  11.9489753  80.2022174  27.2902256  12.5577903
  60.9757259  20.4192596  52.5669050  61.7732647  20.3050953  52.0500565
  61.2835648  20.7396370  53.4147358  55.4374101   3.5166984  65.2944994
  56.2158921   3.1533771  64.8723698  55.7494810   4.3094879  65.7307720
   9.8974001  74.4613647  29.9953151   9.9780601  74.0920115  29.1159368
  10.5096543  75.1971054  30.0031590   9.3575451  20.3904205  36.4185309
   8.8229677  20.6316143  35.6620359   9.5504877  21.2225109  36.8505430
  47.1574142   8.4459835  21.4408922  46.9806590   7.6842266  20.8888769
  48.1118229   8.4778743  21.5065956  69.3644240  16.2546116  15.1805675
  68.9814570  16.6494804  14.3972111  69.7977307  16.9815498  15.6278276
  73.8589003   4.8939281  37.5419974  73.9505818   5.7503086  37.9596567
  73.9133599   5.0777488  36.6041946   5.8938739  39.9126081  67.2293961
   5.6194589  39.7474889  66.3273629   5.1165483  40.2761296  67.6534907
  70.9188557  71.8003607  19.4002020  70.1436710  72.3116159  19.1679692
  70.8981562  71.0504818  18.8056564  85.5592587  21.2713104  58.3136988
  84.8356154  21.0540634  57.7260160  86.1786416  21.7510849  57.7637768
   1.1066648  44.3387561  48.1946230   1.2468025  44.9953991  47.5124121
   1.5500614  43.5557895  47.8681326  13.5740492   3.3162456  22.3532319
  14.4790336   3.1454998  22.6141596  13.4292909   4.2353302  22.5780940
  74.2006638   6.9288402  48.7402248  73.8495114   7.8096538  48.6094332
  74.9731114   6.8927436  48.1760883  16.5329098  34.2361666   9.4199827
  16.9248986  34.5938708   8.6233500  16.9285082  34.7422291  10.1296547
  67.8530767  31.0555893  48.8292837  68.3484319  31.6827827  48.3025074
  68.4489754  30.8153396  49.5387983  63.3402517  28.6882358  22.8975677
  63.1063798  29.5992714  23.0752182  64.2279890  28.7337165  22.5424862
  28.2731533  57.2456598  22.9452372  28.6002493  58.0614424  22.5661087
  27.3845553  57.1603584  22.5997663  44.5611286  72.9113388  25.0035357
  45.2685881  72.3050594  24.7840953  44.3190432  73.3096075  24.1674685
  49.4029858   1.0995918  23.5109711  49.1739633   0.3119331  24.0042973
  50.0641873   1.5352493  24.0487885  40.1936531  40.8259010  13.8316691
  41.0653114  41.1036396  13.5500598  40.2454042  40.8069611  14.7872818
   7.2949239  36.6635948  45.9562874   7.7032396  35.8173233  45.7737064
   7.1604225  36.6651397  46.9039917  41.3092780  53.4924056  -0.0222179
  40.5988526  53.6010481   0.6100157  41.8811917  54.2450358   0.1284769
  69.7117951  11.7329651  19.9986875  68.8540175  12.1316772  20.1452494
  70.2209857  12.4146133  19.5601547   9.5030662   2.8717857  57.2503042
   9.2093107   2.3021465  56.5393543   8.7881157   3.4974819  57.3668623
  10.7891482  72.4716759  21.2906265  11.1157912  71.5976572  21.0770226
  10.4203147  72.7968502  20.4693723  30.9331891  23.1232671  54.6758136
  31.1249873  22.8557710  55.5746421  30.3216979  22.4608449  54.3540880
  22.1818849  18.9388233  46.7386866  21.3311168  18.9153629  47.1767282
  22.5724193  19.7668415  47.0181417  65.8698943   7.5848632  27.8368068
  65.2009704   7.6579052  28.5175681  65.4567936   7.9510456  27.0548296
  66.6823342   7.7572971   5.7523733  67.3082640   7.9878955   6.4388633
  65.9405473   8.3446079   5.8974767  24.8847291  21.1554984  52.0830902
  25.1640556  20.2432565  52.0055136  25.2103564  21.4337234  52.9391202
  84.3186477   0.2746158  28.8766313  83.9588311  -0.4786248  28.4082437
  84.6612599   0.8438163  28.1875300  70.6230309  32.9905182  39.5909309
  70.2755215  32.1120887  39.4365478  71.4670804  32.8426319  40.0174856
  30.0302622  15.5928188  20.7116199  30.4779264  16.1030822  21.3865018
  30.7054063  15.0093609  20.3652215  77.2671035   8.5074478  28.1348038
  77.6735452   9.2097526  27.6270485  76.5168336   8.9227062  28.5601115
   3.6246034  26.3610893  17.0913708   3.3729765  26.2470203  16.1749077
   4.0722391  27.2068840  17.1133578  65.4230717   3.9027553  30.6830263
  65.8854177   4.7360187  30.7732701  66.0989359   3.2381778  30.8163261
  76.0921815  35.6578880  40.0087166  76.4351895  36.1919456  39.2922282
  75.9125235  34.8071151  39.6085382   9.0738022  23.5950232  11.6198218
   8.5343701  24.2525578  11.1806262   9.2629647  23.9746904  12.4779022
  83.5250217  35.0340724  68.7060833  83.6461902  35.9164000  69.0568733
  83.5444915  34.4655132  69.4758844  20.5088329  21.9842386  17.5892007
  20.6796575  21.3266492  18.2634604  19.5729005  21.9020557  17.4061501
  35.0004506  19.3825388  37.1902514  34.3310857  18.8352561  36.7795658
  34.5065212  20.0683784  37.6395774  78.2592374  22.4800062  52.1333361
  78.8519686  23.1543684  52.4652052  78.6043721  21.6613555  52.4896002
  85.4773262   1.9149713  69.2618678  86.4266566   1.7953901  69.2353741
  85.2789286   2.4303416  68.4800327  30.2468966  27.6108109  63.6110142
  29.7223993  27.7532624  64.3989494  29.8135315  26.8844377  63.1628987
  59.7594184  61.5733678  23.9571023  59.2859481  62.2867197  24.3851066
  59.2106967  60.8021540  24.0998173  33.4647632   1.5504839  40.0911999
  33.3068562   2.3455402  40.6002998  33.8420963   1.8634962  39.2690849
  52.3250467  18.6541665  23.9553189  52.4306828  19.5801795  24.1734266
  53.1916124  18.3780122  23.6569357  65.1184493  21.4042664  28.5273480
  65.5500323  21.3271666  29.3782449  64.1949969  21.5413308  28.7387180
  29.2308133  61.1288069  61.9544074  28.7264051  61.7915557  61.4826348
  29.5564403  61.5836333  62.7311525  14.9699557   5.1601088  40.2959824
  15.3011346   5.0492483  41.1871958  15.5477917   5.8157909  39.9055743
   7.1754849   2.6125383  26.8355918   6.4882594   2.0454603  26.4857697
   6.9008553   2.7953339  27.7341437  74.7112483   9.6534050   5.5708909
  74.1497606   9.6071333   4.7970542  75.5999547   9.5595312   5.2279341
  12.0016932  35.0595284  27.7157068  11.7215800  35.3985143  26.8654966
  12.6800239  34.4175839  27.5059271  62.4160728  72.8088892  23.1715488
  62.4658731  73.1372750  22.2738218  63.2459220  72.3510188  23.3054757
  75.3705352  25.6106305  35.1391768  74.7992772  26.1087322  35.7238078
  74.8197168  24.8974013  34.8164773  19.1574979  36.0056090   6.6132224
  19.5936680  35.2376008   6.2442333  19.5464516  36.1076808   7.4818581
  42.4803687  66.9694637  69.2155231  42.9586244  67.6509498  68.7432097
  41.5804601  67.0446037  68.8981090  82.2366655  42.5387812  36.3448930
  82.2850120  43.4416437  36.0306692  82.0703939  42.0198727  35.5579257
   4.0765774  29.8830867  13.9553809   3.3708519  29.6222973  13.3636284
   3.7301093  30.6446409  14.4203830  79.7496513  68.4821779  28.4404588
  79.1444019  68.4820980  27.6989031  79.8550180  69.4070417  28.6635232
  55.3463679  43.1533623  19.6737933  54.9266225  43.9240551  19.2915928
  55.3190213  42.4961424  18.9784181   1.4059432  24.2491698  37.2673726
   1.3563339  23.7171912  36.4731622   0.5857840  24.0700459  37.7272487
  30.7297700  72.6953958  62.3613021  29.8502756  72.3231624  62.4258205
  30.5873807  73.5987114  62.0784947  66.4316732  47.2087193  45.7282400
  67.1672267  46.6851616  46.0461760  65.8592158  47.3045635  46.4893866
  62.8804136  78.9110468  59.4532201  62.7951813  79.8631738  59.5023867
  63.8142682  78.7470697  59.5846018  80.2122644  80.2946611  70.0516415
  79.3607095  80.5827772  70.3803873  80.0884226  80.2117681  69.1061115
   2.1410903  50.0050449  12.6298225   1.4385271  49.8599672  13.2635331
   1.7097506  49.9494886  11.7771256  45.2381018  74.1911251  28.7048626
  45.1541046  74.8778344  29.3663812  46.1538533  74.2344267  28.4296227
  78.4851602  32.8830618  40.9668970  79.2595843  33.2609410  40.5501175
  77.7497414  33.2168240  40.4530907  27.6876974  16.9015050  20.4719877
  28.5925579  16.5943074  20.5275607  27.5045347  17.2650087  21.3383293
   8.6892617  29.0053630  25.9339786   9.1907150  29.4411087  26.6231108
   9.3402755  28.7822032  25.2686882  44.5845977  68.0090052   1.8201540
  45.3843191  68.0048818   1.2941678  44.4296912  68.9336402   2.0132490
  46.5524114  19.6927808  66.3737112  46.3738537  19.9967311  65.4837882
  46.5891076  18.7392615  66.2982955   0.0893878  17.4808848  55.9233522
   0.6298213  18.1564033  56.3330317  -0.2975692  17.0052874  56.6584063
  49.4804937   3.8076529  36.6111016  50.2714139   4.1514665  37.0263934
  48.7923890   4.4255415  36.8580031  22.0338130  19.7525001  54.6826982
  21.8486428  19.8617339  55.6154442  21.6672921  20.5358005  54.2724133
  83.2771996  79.7199596  35.0233459  82.4628523  80.0555765  35.3980827
  83.0041436  78.9802647  34.4806457  21.8443847  31.4221311   6.9580632
  21.8214273  30.5875397   7.4262089  20.9304333  31.7049861   6.9277859
  29.2317772  35.1834869  12.8903782  30.0964022  35.4993796  12.6279581
  28.6182165  35.7212186  12.3897564  77.1252552  72.7663893  20.2551603
  76.2887112  73.2071603  20.4039812  77.0938161  71.9953609  20.8215165
  20.8742762  21.5292883  14.0143979  21.3960624  21.8286276  14.7589576
  20.9881043  22.2113276  13.3525085  20.6544447  28.9445210  28.4593987
  21.0188293  28.5296822  29.2412972  19.9459505  28.3613801  28.1869793
  57.6336533  54.1063356  34.8587513  57.6383191  54.6145105  35.6699061
  56.8009502  54.3280554  34.4420028   9.0354002  55.6000710  10.8808708
   9.5663840  55.9058619  10.1454937   8.9395088  54.6593571  10.7322145
  59.9995571  43.2816410  17.9905891  59.4959050  43.5402298  17.2187734
  59.6143943  43.7852621  18.7076998   0.9469442  66.4271736  47.6481819
   0.9738707  65.4869461  47.8256035   0.1022830  66.5659857  47.2197962
  22.7717042  34.7000885  54.7680950  23.5285807  34.7528958  54.1844988
  22.8160501  33.8186574  55.1386929  37.4590362  67.4570321  55.4004034
  37.1165199  67.1859382  54.5486864  38.4023327  67.5434493  55.2627274
  55.2857280  60.0699197  52.6896378  55.5769778  60.4016017  53.5389849
  55.7260228  59.2248689  52.5987336   7.9945347  68.0918629  12.2090876
   7.6665661  67.9647631  13.0993211   7.6433942  68.9418156  11.9435453
  48.0022952  74.7097535  28.0229306  48.9591423  74.7325445  28.0354285
  47.7429351  75.6194813  27.8767848   7.0133263  10.2164316  43.1073952
   7.8634572  10.6391740  43.2290363   7.0727569   9.8023355  42.2464514
  18.8577187  35.0320864  28.0823326  19.1825843  34.1466761  28.2458639
  17.9831469  35.0419617  28.4712529  26.4472103  21.8705583  32.1923995
  27.0269442  22.4476480  31.6952991  25.8964276  22.4652004  32.7015829
  46.5692902  49.1540623   0.4000844  47.0932961  48.4861660   0.8423094
  46.0194969  49.5234966   1.0910829  68.8990027  33.9800882   9.4971317
  68.6477190  33.0586815   9.5611590  68.6603755  34.2319918   8.6050373
  45.1263869  80.7374929  57.3419520  45.3652299  79.8181389  57.2237393
  45.5674506  80.9974598  58.1507239  21.6691232  37.8205156   6.8237776
  21.8028355  38.7494230   6.6354084  22.1175289  37.6782084   7.6573920
  57.3089886  22.5050712  68.9697838  58.0961180  23.0277371  68.8165522
  57.2277784  21.9594073  68.1875467  10.6553981  28.9101056  53.5923430
  11.3445542  28.3357791  53.2585069  10.6060979  29.6213702  52.9536685
  37.8314567   2.3202363  67.6366425  38.6723208   2.0466436  68.0031490
  38.0563903   2.7316153  66.8021345  25.0511551  27.9974055  22.5463748
  25.4358935  27.9664564  23.4223032  25.7939363  28.1566572  21.9640112
   4.8770595  30.4605198  26.6622543   5.4195094  29.9041367  27.2211981
   5.4781419  31.1296105  26.3347673  51.9211080   0.5718094  45.2836132
  51.0881427   0.4598671  44.8255014  51.6794303   0.9397274  46.1335850
  11.9495976  55.5213356  19.0886390  11.3644171  56.2628937  18.9341044
  12.1106541  55.5358744  20.0320816  36.9648149  58.9980813   4.6286991
  36.1735019  59.3864079   5.0018719  37.6419767  59.6618267   4.7595719
  11.6185403  13.8059711  22.3657274  12.2208309  13.3900201  21.7489100
  11.7177570  14.7438073  22.2018600  21.0975862  61.7548513  26.8804264
  20.6628442  62.6050425  26.8140864  21.4724851  61.6091204  26.0118389
  18.3982146  77.6126909  13.6999881  18.9457023  76.8656683  13.4582305
  19.0212774  78.2984591  13.9403021  72.7717382  21.0176349  41.6973114
  73.5518747  21.1107779  42.2440672  72.8242546  20.1252460  41.3550901
  21.3529372  38.4570074  28.8050747  20.4228950  38.3480644  29.0035295
  21.5347767  37.7946472  28.1384063  18.1013453  19.0066409  51.7333651
  18.9630949  18.7270665  51.4244032  17.9029930  18.4140229  52.4584103
  47.2963691  66.8021010  68.0084595  46.8344522  66.9195174  68.8385662
  46.8218589  66.0970996  67.5679549  24.4033718  18.0048466  54.7497940
  24.2127180  17.3533726  55.4246759  23.5932875  18.5079610  54.6669054
  13.2414734  10.9112108  49.4163036  13.3838928  11.8261349  49.1736937
  13.3079171  10.9034920  50.3711653  33.5535312  44.1259480  12.6090944
  33.1554270  44.2455912  13.4713185  33.0021024  44.6380234  12.0175409
  40.4397726  34.8605990   0.3800233  40.7432508  35.7067919   0.0512509
  41.1860561  34.5112658   0.8671094   3.3460173   8.5145962   5.7117516
   2.5230712   8.0258024   5.7202494   3.6773786   8.4413010   6.6067708
  35.4514384  14.8667288  52.6107550  35.6503868  14.7289348  53.5368586
  36.3016844  14.8199046  52.1735811  72.2241467  40.8553076  50.4539490
  72.8625327  40.9200430  49.7436619  71.3740402  40.8746433  50.0144291
  82.5301123  40.7389450  44.5897293  82.1665743  40.7553291  43.7044048
  83.2036132  40.0594473  44.5595551  23.0622530  36.6817904  33.5316968
  23.6302423  36.4538622  32.7957129  23.3938026  36.1582303  34.2612123
   7.0920599  33.6405945   9.1128904   6.8608308  33.4213662   8.2102805
   7.8167778  34.2604780   9.0306723  61.2150103  27.2416997  23.9843822
  61.8430334  27.8374290  23.5758162  61.5630871  27.0928621  24.8635411
  69.5557076  28.8271976  23.8417697  68.7841624  29.3921638  23.7997961
  69.2002791  27.9403901  23.9007330  16.9925320  47.0239592  28.1099892
  16.9111347  46.9590855  27.1584654  17.1510565  47.9535818  28.2739925
  67.5853136  37.9016380  67.8433746  67.9245690  38.6277465  67.3200190
  66.6446063  38.0682735  67.9028316  38.5095906   6.0481203  27.5280118
  38.9334440   6.1977434  26.6829109  37.7696228   5.4752564  27.3267436
  53.9974600   0.4080991  57.5760481  53.9663297   1.3159827  57.2743770
  54.6435353   0.4124049  58.2823059   1.5972707  30.0184822   6.5135086
   1.4422645  29.4237947   7.2473681   1.7519045  30.8695340   6.9234228
  35.6301570  24.3853474   9.1841257  35.3845549  24.4341183   8.2602572
  36.5625525  24.1691303   9.1729957  15.7238877   0.2981709  11.1903608
  15.7477164   0.4855150  10.2519763  14.9094319   0.6990258  11.4940214
   9.3700188  13.9359999  31.7117405  10.0909913  14.3422544  31.2307119
   8.6093700  14.0460002  31.1411738   4.7666380   0.4679755  41.7673823
   5.1480958   1.3276748  41.5895006   5.1021573   0.2313403  42.6320550
   4.4319588  23.5899806  40.0952721   4.8553067  22.8147030  40.4639959
   3.9945456  24.0013671  40.8407021  32.5603870  73.3469618  30.1479888
  32.3351696  72.8810758  30.9532595  32.3135403  74.2556537  30.3199720
  29.0525413  36.7409992  36.5129471  28.9230776  35.9455609  37.0294285
  28.1698751  37.0028687  36.2511158  20.0927827  80.3630606   7.0532608
  19.3949887  81.0084924   7.1660799  20.4292962  80.2171279   7.9373956
  27.1481872  46.1195564   3.9060244  27.2440410  46.6886902   3.1423962
  26.4269090  45.5328703   3.6784506   5.0821066  47.2106743  12.8086627
   4.6318409  47.1350813  13.6499572   5.3067333  48.1385899  12.7397501
  28.7237527  72.8273197   7.9657868  29.4626084  73.4206076   7.8303889
  27.9825525  73.2694860   7.5518492  53.6011029  66.5909527  61.7784217
  53.9386082  67.4202679  61.4399555  53.5265422  66.0298227  61.0065374
  80.6971505   9.7924737  68.5228774  80.6739453  10.7463817  68.5987106
  79.7767738   9.5332555  68.4787530  18.1603122  34.2824078  46.3837194
  18.6462831  35.0019336  45.9807968  17.7752995  34.6652532  47.1720266
  27.8403616  26.5505195  15.3287971  28.2548785  25.7796645  15.7163441
  28.5459852  27.1938562  15.2621317  18.9646888  22.5459433   4.0379405
  19.2959666  23.3911133   3.7343395  18.0456710  22.5387931   3.7703818
  69.6947187  13.7670374  29.7017431  70.0504523  13.4461856  30.5304408
  69.0810758  13.0865192  29.4250298  50.1224521  69.7380645  30.2809429
  49.4527313  70.4219169  30.2736616  49.9391112  69.2149550  29.5005751
  18.1425405  35.5383587  34.8815989  17.7672553  35.0906157  34.1233635
  18.7798011  36.1475825  34.5088005   7.5278866   9.4662410  38.0397725
   8.3002174   8.9085549  37.9463792   7.8522885  10.3529429  37.8824329
  37.3420787   8.0152702   1.7283204  37.4821067   8.1202298   2.6693875
  38.1471324   8.3439946   1.3282478  22.2881553  18.4183101  52.4035379
  23.2257793  18.2489423  52.3118278  22.2133538  18.9173869  53.2169005
  57.4767900  45.0347571  64.6575746  57.2688103  45.6718700  63.9741531
  58.0990816  45.4881172  65.2263006  33.0172152  71.7074512  56.4889213
  33.9013637  71.4022683  56.6923305  32.6841954  72.0474266  57.3194310
   8.1975561  63.7349987   3.1847310   8.4701312  63.5198498   4.0767211
   7.5561655  63.0605984   2.9610419   9.5542043  20.4884052  32.6541209
  10.3300560  20.3532028  33.1981850   8.9110023  20.8775330  33.2466602
  25.7662797  38.6655283  30.0902891  25.8748007  39.5932651  30.2994847
  26.5713024  38.4280062  29.6301222  13.2958007  13.1048775  19.9751878
  14.0651011  13.6092556  19.7105908  13.4709287  12.2180617  19.6603537
  30.7726336   2.9011595  19.9527597  30.2772379   2.6311696  19.1795063
  31.2594700   3.6743259  19.6673906   1.7259574  12.9847503  43.3626986
   1.0377745  13.5976923  43.1039715   2.5095463  13.5274720  43.4503031
  29.2030406  29.1755414  34.2014956  29.1678214  30.0752783  33.8767433
  30.0503421  29.1130447  34.6424150  17.4330652  46.4623737  34.7397971
  17.4555230  47.2569561  35.2730513  17.5625288  46.7718363  33.8433003
  23.4787083  35.4987764  28.6055684  23.1366372  34.7311068  28.1474185
  23.3469510  35.3025579  29.5331311  28.0684161  15.4648006  24.2865610
  28.8257432  14.8814201  24.3350887  28.4253120  16.3356280  24.4612551
  37.3950988   9.6600926   6.8195879  38.0479079   9.4152564   7.4754286
  36.9035274  10.3739393   7.2258073  26.9103646  29.9200082  31.3575530
  27.0581293  30.8544946  31.2121868  26.5656996  29.8678493  32.2490239
  20.6808901  37.6227774  68.4712507  20.0302411  37.8666614  67.8129134
  20.9466225  38.4539029  68.8647580  20.0950122  44.1998816  31.3130736
  20.2734542  43.3311558  30.9529352  19.8228264  44.7210169  30.5577159
  37.9165030  61.0193300  23.1151080  37.4867105  61.6253805  22.5116086
  37.6094007  60.1539946  22.8447104  81.8856263  39.3199110  11.5667188
  82.3051357  39.2797685  12.4261558  82.3589444  38.6767960  11.0388875
  66.6426700  28.3285689  53.7831450  66.2696916  27.4532843  53.8879919
  67.2340864  28.2488346  53.0347443  10.0340068  23.6113572  18.9615846
   9.1426516  23.3352780  19.1748893  10.4083192  23.8812065  19.8002172
  62.3627612  69.1794652  26.7009592  62.8478810  68.4179098  27.0186424
  62.3352376  69.0666289  25.7508326   7.0210254   5.5761933  31.7004514
   7.0516956   5.2556944  32.6018786   7.8735483   5.9895170  31.5640688
  23.4272552   9.7948539   3.7380415  22.4862075   9.9454051   3.8274735
  23.7533307   9.7757655   4.6377867  41.6610146  31.4088178   4.5845354
  41.1219263  32.0345664   5.0683236  42.4392033  31.2915850   5.1294279
  21.1183977  79.1842365   9.5775586  20.2347517  78.8854790   9.3627489
  21.4527464  78.5252476  10.1859772  14.2326510  12.2642529  16.4085913
  13.8526452  12.3068357  15.5310857  15.1145089  11.9183135  16.2711775
  37.0407915  23.4553123  12.0179081  37.5188780  24.1683483  12.4412811
  36.3131547  23.8873029  11.5705180  29.7914696  69.8869133  27.3117733
  30.3025699  70.6893778  27.4169397  28.9628053  70.0710392  27.7540922
  54.7176862  80.1450609  58.6981842  54.0062738  80.6054472  58.2530209
  55.4895545  80.6893276  58.5425517  31.6193581  29.7192097  14.3329608
  31.5682983  30.6704617  14.2394495  32.5293255  29.5066547  14.1255653
  43.0808973  17.6569057   3.0260655  42.2296286  17.2293305   2.9325020
  43.6677217  17.1469641   2.4676521  70.0467187  31.7583251  33.1401086
  69.1758817  31.9943476  32.8204727  69.8926049  31.0251164  33.7358308
  69.2335916  56.0518275  57.9940626  69.0253091  55.9495388  58.9227113
  70.1902223  56.0625766  57.9629275  31.2702417   1.5031019  47.3693419
  30.9986615   2.3545039  47.7122545  31.2455750   0.9202935  48.1282616
  54.7077406  73.7364328  50.9936857  54.5712036  73.0583335  50.3320408
  54.7219897  74.5552225  50.4980946  -0.0465332  26.1700439   1.1328148
   0.4490488  25.3597188   1.0144772   0.5991291  26.8658519   1.0095135
  81.2352458  15.5751455  25.9116912  80.8559924  16.4392519  25.7513189
  80.9847996  15.0578487  25.1462412  11.4010596  23.3490372  39.7796464
  11.6405392  22.6678133  40.4079914  10.5123270  23.1213307  39.5066357
  77.4065477  24.8125958  44.8823595  77.6163936  25.2110600  45.7270050
  78.2483667  24.7507119  44.4309807  16.5055263  33.9163589  29.3346786
  16.3703275  32.9721260  29.4145322  16.2327838  34.2698193  30.1813841
  10.0829503  76.4169458  24.8460412  10.7870052  76.3890142  24.1981554
  10.5346296  76.4486933  25.6893730  32.6117206  62.3903084   5.3870255
  33.1889057  62.3351669   6.1486346  33.1892228  62.2442341   4.6377689
  32.2318864  19.8649013  29.6472454  31.6985393  20.2205753  30.3580689
  31.6357279  19.2932916  29.1634202  47.2861242  30.1626396   1.9791102
  47.6286173  29.2700839   1.9314307  47.9391003  30.6428576   2.4882728
   7.5788879  13.3161604  45.8395910   7.1450371  12.8866506  45.1023483
   7.1888506  14.1897202  45.8711624  35.1505232  48.8552666  30.9137702
  35.0964069  47.9873562  31.3138080  35.9320307  49.2493248  31.3013268
  17.5795293  43.7318277  18.2231522  17.2168303  42.9270172  17.8530645
  17.8454220  43.4890270  19.1100466  82.7379322  69.6136618  15.8117712
  82.0221880  70.1749659  16.1098945  83.4058615  69.6953583  16.4925277
  67.5532967  34.2180967  14.3198216  67.4313945  34.9172020  14.9621773
  67.0183295  34.4840455  13.5719490  76.9926095  26.8532299  47.0463797
  77.1776987  27.7879237  46.9551608  76.5267539  26.6217838  46.2428614
  22.0137311  49.6223669  69.2055396  22.9310906  49.4720475  69.4337654
  21.5225089  49.0623509  69.8066343  26.9182563  19.5726609  37.6877689
  27.3161292  19.5113504  38.5562015  26.0299444  19.8885918  37.8530598
  79.6519935  15.9981596   1.6037244  79.2064941  15.3730357   1.0319011
  80.2766871  15.4675019   2.0980848   7.0838994  62.2955608  29.0297651
   6.6932124  61.8616867  28.2712483   8.0275804  62.2298193  28.8835597
  43.4366035  27.2005129  49.6533155  42.5071573  27.4044585  49.5495272
  43.4613180  26.5426350  50.3481627  21.6539669  52.8778124  15.6898129
  21.4316106  51.9609118  15.5283010  22.4827385  53.0080509  15.2289367
   8.9144552  41.5785170  36.4579177   8.0480105  41.6261244  36.0538888
   9.4592369  41.1386824  35.8052397  62.9468256   8.6830235  48.2416391
  63.8696319   8.8650686  48.0641031  62.9615313   7.9548866  48.8627911
  21.5842175  29.4041252   1.9658907  22.2608447  29.9783468   2.3246069
  21.9107366  29.1613746   1.0994668  15.5649590  30.3767037  14.5015824
  16.2641346  29.7936773  14.7973299  16.0223031  31.1065483  14.0839756
  77.9601434  10.4094772  58.9652929  78.7855390   9.9891881  59.2067715
  77.2844246   9.8319844  59.3204471  64.6033884  78.3155678  56.5612349
  64.5526982  77.8108333  55.7495043  63.8456536  78.0273865  57.0701787
  42.5638723  15.6806183  36.3843489  42.9951763  14.8698401  36.6542482
  41.6498852  15.4315174  36.2471890  30.9641886  38.2079220   3.7979239
  30.4245329  38.0344009   3.0266303  31.7816329  38.5586095   3.4443232
  15.1213289  63.2696365  61.1311027  14.8020792  62.4175523  60.8340123
  16.0618663  63.1428360  61.2557748  18.5580158   5.8561391   9.3940645
  19.5136952   5.8244109   9.4376898  18.3633673   5.9348661   8.4601772
  57.1391964   7.5631571  35.4977441  57.2902298   6.9515628  36.2184191
  56.4779568   8.1689942  35.8323407  78.6787254  12.5088465  16.1909854
  78.9534432  13.2949615  16.6629863  79.4692242  11.9714832  16.1401463
  28.7918139  39.9278069  13.4788752  29.6341205  39.5213509  13.6827064
  28.6989808  39.8245311  12.5318015  35.0758979  79.0686934  18.4765315
  34.8463199  79.9901727  18.5965419  35.9227607  79.0889292  18.0308318
  36.1484790  28.8217664  31.0446167  35.2757430  29.1297460  31.2889791
  36.5699434  29.5850563  30.6496620  10.4611707  60.4842377  26.3520885
  10.9798801  59.7268295  26.6232157   9.6142143  60.1165438  26.0997009
  77.2870362  48.5881853  13.4074199  76.5205926  48.3326101  13.9207208
  77.9097319  47.8723478  13.5341513  28.4771752  10.4970300  14.2107189
  28.4557247  11.3273609  13.7349844  28.8349605   9.8700315  13.5821545
   7.3348671  24.7482443  25.9752440   6.7573857  25.4478145  25.6697154
   8.1891215  24.9617672  25.5998921  34.1718745  10.5409300  12.3642218
  34.8085880  11.0420680  11.8546259  34.2188811  10.9173751  13.2430351
  52.0632554  78.7075304  47.1177623  52.1856428  77.9763006  46.5123245
  51.3695074  78.4153913  47.7090308  16.2757337  34.1526890  26.1848879
  16.2755072  33.9548516  27.1214199  16.6811574  35.0175714  26.1228919
  32.6759076  52.8330946  11.3624012  32.1757078  53.0567932  12.1472514
  33.5852599  52.7996492  11.6593730  16.9164062  44.8496389  15.7022750
  17.3470664  44.3334103  16.3836515  17.5242090  45.5677032  15.5256748
  14.1335702  29.0932631   2.1443379  13.2613623  29.1566062   2.5335330
  14.6712708  28.6900663   2.8259113  44.9821424  52.6919031  26.1237240
  44.4111347  52.9331350  25.3943491  45.8266115  53.0874586  25.9077597
  58.2502985  77.9896306  68.8729341  58.7364769  77.9092859  68.0523205
  58.8090325  78.5312794  69.4303054  29.4700718  11.6336083  19.3470919
  30.3385782  11.9631791  19.1162062  29.0113759  11.5604246  18.5101473
  66.3290453  39.9962115  30.2663112  66.7485571  39.5096469  29.5567346
  66.1659336  39.3394732  30.9433031  11.8970430  20.9548974  34.0676093
  12.7762699  20.8722925  34.4368887  11.8853533  21.8252039  33.6692905
   7.7981567  28.6878324  54.2148685   8.6433846  28.8296390  53.7885904
   7.9038149  27.8622079  54.6875334   9.1264952  58.8028894  35.0982997
   9.0020824  59.6973668  34.7810265   9.9383545  58.8389085  35.6040880
  56.2463957   3.2885405  40.3053474  56.3989073   3.5556358  39.3989110
  57.1176201   3.2777658  40.7016850  23.6909533  15.0319839  24.9155021
  24.6433449  14.9949336  25.0038767  23.3670998  15.0434017  25.8161783
  56.2044531   7.8245497  45.3557777  55.9075648   8.7340713  45.3850842
  55.7703954   7.4068272  46.0996389   1.9103377  21.9182777   3.8195884
   1.4331394  21.3550019   3.2102990   2.7178225  21.4393449   4.0062013
  59.4036863  73.4905917  14.6073663  59.6865651  72.7291263  15.1137030
  59.5830629  74.2378098  15.1780856  76.9921464  24.4410706  31.9632840
  77.1858281  23.8299799  31.2524486  76.1224681  24.7825694  31.7552662
  83.9572480  32.8597283  24.6737242  83.5930923  33.6611414  24.2977452
  83.2230064  32.2457480  24.6859264  76.5036696  23.3047628  38.5785747
  77.1637708  22.6378036  38.7674308  76.1512989  23.5425949  39.4361901
  19.1918409  55.1626682   2.2265784  19.5184815  55.0665140   3.1211692
  18.2483482  55.0185776   2.2993127  51.5681792  55.8982359  63.7238577
  52.4248910  56.2577008  63.4935078  51.5056086  55.0867437  63.2200745
  13.0125785  41.4781046  17.9863596  13.4038103  40.6467295  17.7180541
  12.3697162  41.6715431  17.3040533  80.0120217  23.6823702  10.9539449
  80.1382810  23.0427265  10.2531266  79.5041734  24.3850350  10.5482543
  62.1723896  13.6744463   1.2682505  63.0809909  13.9652097   1.1899428
  61.6653687  14.3484461   0.8156091  79.9355388  81.0524820  61.0762772
  79.6089674  81.5798257  61.8053117  79.7042394  80.1531933  61.3086894
  17.6048875  36.7582369  20.8296967  18.0825043  36.2257075  20.1936722
  18.1714976  36.7757559  21.6009784  17.4016774  15.0818396  11.1714411
  18.2150578  14.5858788  11.2645447  16.7616308  14.5912039  11.6870463
  19.7073674  55.4348135  30.3904629  19.5573103  55.7005644  31.2977052
  19.3778503  54.5372105  30.3461862  18.3910060  40.8383894  24.2606568
  17.6307297  40.8732557  23.6801410  18.0469668  41.0797882  25.1206541
  46.6900254  67.8239702  55.5470356  46.7737866  67.7538727  56.4979836
  45.8488536  67.4120115  55.3496739  18.1289613  50.7834244  20.0437093
  17.5136971  50.2623463  20.5596161  17.8127539  51.6827059  20.1305175
  22.9178429  32.2879148  21.3028932  22.8925276  31.9715428  20.3998423
  22.0441222  32.6480150  21.4551044  11.3152444  51.6167116  19.1185069
  10.6498432  51.9313097  18.5065401  11.7227018  50.8761072  18.6693788
  11.6523957  42.9528522  23.3547902  12.0679772  43.3297300  22.5792336
  10.7470965  43.2612276  23.3151460  25.1786578  67.4455308  67.6751067
  25.1867632  66.6188477  68.1575587  25.0373453  68.1131815  68.3463038
  11.0380363  31.0671043  42.0348501  11.3580620  30.1739979  41.9076681
  11.2048554  31.2519622  42.9590940  65.8588651   6.7353874  23.1852007
  66.1055591   7.5515133  22.7500916  65.8763769   6.0782390  22.4894381
  28.5687089  39.3396616  20.9946585  29.0488505  38.7425494  21.5683794
  29.1551471  40.0879002  20.8830142  40.3250217  20.5436611  16.1526084
  40.7641125  20.5839753  17.0022011  41.0175657  20.7220459  15.5163729
   2.0240400  20.9658555  60.3311112   1.8494913  20.9801463  59.3900689
   1.2102959  20.6462030  60.7208189  30.5192828  33.0971384  22.5377655
  30.6859970  33.6511326  23.3003473  30.1882863  32.2774768  22.9049516
  46.2800455  43.2303619  13.1821799  47.0710468  43.0107546  13.6744416
  46.5842342  43.8162327  12.4890304  16.2075898  41.8187646  62.4885353
  16.4284465  40.9024743  62.3215929  15.5631635  42.0363454  61.8150338
  73.8770485  43.5533810  14.1180742  74.0616369  44.4237947  13.7651742
  74.2015076  43.5860538  15.0180137  58.0294490  67.5600098  68.3954096
  58.8128257  67.1090601  68.7103626  57.3235488  67.2306727  68.9517134
  20.9433722  50.3876019  20.2996850  21.2236404  51.0523462  20.9288096
  19.9872518  50.4068756  20.3408456  36.8474030  68.9117622  24.1965103
  36.6576219  69.7008038  24.7040796  36.0358882  68.7311983  23.7220979
  42.9038656  73.7365507  56.0080144  42.9863990  73.8178466  56.9581780
  43.3870626  72.9387210  55.7930204  44.0875196  56.3852501  10.1642656
  44.8980522  56.4477205   9.6589255  43.6934614  57.2546864  10.0933743
  34.3554187  28.0695629  34.0569091  34.5132375  27.1262264  34.0189528
  34.0085363  28.2893515  33.1922722  58.8547087  38.0174232   7.1946079
  59.3883991  37.5376987   6.5611470  59.3860674  38.0353951   7.9905796
  12.1988630  14.9673784  30.8660650  11.8002582  15.3307152  31.6568446
  12.1885443  15.6903172  30.2387810  74.5075632  68.8948749  56.6076752
  74.5425201  69.5931600  55.9539089  74.9258829  68.1467293  56.1816260
  29.4713521  48.3905792  12.7148080  28.8095737  47.9139805  12.2136736
  29.0311003  48.6233950  13.5322475  21.4256573  73.3449221  17.0986700
  21.2411928  72.4736834  16.7477489  21.1277938  73.3050823  18.0074728
  79.3879199  19.3300438  34.1593933  80.2472800  19.6194184  33.8528061
  78.7654358  19.8676717  33.6697984  49.3904924  37.6469612   0.5236183
  49.6491671  38.5604763   0.6453133  49.8832464  37.1677232   1.1897688
  15.5043697  32.0146132  33.6833215  14.7876740  32.0248199  34.3177295
  15.2291560  31.3804770  33.0212331  36.0838056  68.8776970  16.1178756
  36.8713522  68.4869623  16.4964616  36.1882496  68.7601137  15.1736832
  37.1327949  13.6974740  15.5244315  36.8494487  14.2122221  14.7687984
  37.6150322  12.9622328  15.1461482  12.4501991  49.5454025   4.9043527
  12.9450464  49.4360971   5.7163936  11.7735505  50.1869345   5.1207209
  20.3673339  46.7917204  22.6920676  20.7711101  46.6950512  23.5545373
  20.8793783  46.2178659  22.1222115  73.7268806  74.5200943  66.1840519
  74.1857076  74.8949240  66.9358575  73.1840539  73.8253640  66.5567690
  35.8447981  56.4776707   5.5148345  36.3198400  57.1780491   5.0675803
  36.0967708  55.6811094   5.0476807  29.5620799  27.8753304  19.0274608
  30.1465344  27.7565956  18.2787657  29.0426946  27.0717907  19.0556598
  10.2676868  36.7665887  13.6221695   9.9889117  36.7033505  12.7086496
   9.4509619  36.7874956  14.1209221  36.3949084  33.3356404  26.4673591
  36.0380816  33.1155872  27.3278737  35.6248426  33.4427691  25.9090114
  74.8302344  26.7715863  66.8369222  74.9011162  25.8366040  66.6445246
  74.0519145  26.8441085  67.3893633  19.7727439   2.0542697  66.9568175
  19.4691703   1.2021951  66.6436979  18.9760110   2.5034599  67.2390893
  31.7301035  43.9341640  32.6228285  32.3332214  43.8802719  33.3641648
  32.2974992  44.0462399  31.8601155  22.7278757  20.8766866  21.7926574
  23.2010007  21.0771012  22.6002574  22.7756643  21.6839027  21.2804580
  15.5597448  63.9738894  16.3218403  14.9368978  63.2622528  16.4697027
  15.7242680  63.9561653  15.3790522  30.2683997  18.2659805  28.7627411
  29.4684911  18.7799478  28.8732648  30.0422835  17.6097441  28.1036067
  51.1428881  20.0503445   0.0238695  50.3927040  19.6332037  -0.3997429
  50.8149338  20.3178596   0.8824238  85.4210490  34.5395923  21.3147998
  85.9490822  34.3290305  20.5446863  85.8040696  34.0156484  22.0183706
  59.1441488  50.9140682  23.7378931  58.7212420  51.6751575  23.3402443
  59.3805313  50.3567839  22.9964161  77.2049788   8.7314395  49.9123976
  77.5706247   7.8546790  50.0299951  76.8861500   8.7389068  49.0098879
  18.1769776  32.5110865  37.1318626  19.0052295  32.9221678  37.3793316
  17.7780008  32.2563982  37.9638386  15.7529914  39.6400833   1.0374501
  15.7851255  40.3177547   0.3622017  14.8835087  39.7313571   1.4271963
  23.1254458  69.2329836   5.0221473  22.5898123  69.2636299   5.8148587
  22.6760316  68.6078215   4.4534391   8.5262940  78.0942906  23.3595252
   9.0338680  77.5208703  23.9337993   8.9385411  78.9530498  23.4534240
  34.5355582  58.3162117  13.6002207  34.2807746  58.2938004  12.6778245
  35.4580903  58.0609322  13.6001492  23.3383060  77.9399967  11.1113906
  23.3327007  77.5207996  10.2508819  23.7983799  78.7676620  10.9716225
  10.0973737  80.0835991  23.9814830  10.5596113  79.8026180  24.7711802
  10.0635624  81.0377121  24.0504384  72.0338178  71.6545986  66.1087233
  72.1197725  71.7691682  65.1623002  71.1387849  71.9325803  66.3033277
   5.4928613  44.1400290  27.3042130   6.4235258  44.3602514  27.3441768
   5.0585008  44.8483658  27.7794218  68.8935796  75.1656622  27.5548482
  69.2813960  74.5134897  28.1383729  68.1056658  74.7429532  27.2131753
   6.0275251  79.2796326  33.1896305   5.3730363  79.6807623  33.7614465
   6.7047024  78.9617300  33.7867880  48.4217548  26.8016911  28.7840104
  47.6054001  26.3819194  29.0552711  48.1916714  27.7243066  28.6741328
  31.5522599  29.4404411  57.0991945  32.2051883  29.6474743  56.4305735
  30.7212639  29.4209051  56.6245413   4.7144923  22.9620719  21.1185241
   5.0999260  23.7980866  20.8563161   3.8822651  22.9236984  20.6471896
  84.2966370  35.7753587  12.4823153  84.9247924  35.0661683  12.3455632
  84.7205155  36.5466523  12.1059299  41.8998337  40.1704550   7.8289777
  42.5306892  40.8632612   7.6333296  42.4083662  39.5089436   8.2980484
  65.6672484  42.3959684  29.0648484  65.8115894  41.6185522  29.6043110
  66.4293235  42.4311876  28.4867167  80.6094575  43.2660627  28.2052779
  79.7857732  43.6998558  28.4279871  80.7288104  42.6110935  28.8930345
  11.4509008  80.0909775   2.9759222  11.9854829  80.7703861   2.5649962
  11.0986349  79.5870121   2.2423291  71.7022270  39.5777011  35.2509856
  71.3433653  40.4317427  35.4919553  72.2906929  39.3531585  35.9717631
  26.7389727   2.6439306  25.0059175  27.6222825   2.4751385  24.6780348
  26.8701935   3.2070374  25.7687569  71.5184501   6.8369321  69.9790511
  70.7732097   6.4076738  69.5588327  71.9145742   6.1537723  70.5199822
  57.6354551  59.5079756  20.0546432  57.5424910  60.2333260  20.6722641
  58.3538532  59.7730303  19.4802916  15.0780523  23.2151651   5.7053643
  15.3756452  23.2596803   6.6140383  14.1730273  23.5255337   5.7342547
  62.1216488  70.1928043  13.1202292  61.7969513  70.4237413  12.2499001
  62.7495527  70.8833551  13.3326221  38.0837250  51.0497904  11.2895215
  38.2400656  50.5325556  10.4994214  38.3800793  51.9309282  11.0614967
  21.2937951  14.8827744  45.3076792  21.5526772  15.6048620  45.8802176
  20.7055235  14.3510711  45.8438349  49.4561768  54.3149233  12.6607502
  49.8440313  53.4425926  12.5912023  48.5641623  54.1564989  12.9696906
  40.7193294   9.1973739  34.9965119  40.3840473   8.7740856  34.2061639
  39.9367860   9.4066864  35.5064559  28.4034536   6.6935519  67.6629561
  28.8143584   5.9696416  67.1903619  28.8365552   7.4771384  67.3243576
  40.3108072  27.9533195   6.0995632  40.8948946  28.2089448   5.3856122
  40.8951330  27.6118469   6.7764598   7.4298543  41.0662174   8.8754064
   6.4834058  40.9441137   8.8008571   7.5423938  42.0117235   8.9733177
  19.6139002  59.5102549   1.9134165  18.9962828  60.0572920   2.3987323
  19.1636968  59.3111706   1.0924941  26.5195394  39.4400668  38.2522035
  27.4089956  39.7863007  38.1799269  26.4683151  38.7676907  37.5728536
   3.4442613  37.5806761  11.9882166   3.6525679  37.0565963  11.2147963
   3.7312704  38.4654713  11.7623925  25.7992959  21.6353512  14.5744932
  25.4669714  21.2531662  15.3867292  25.2416635  22.3984861  14.4231617
  46.9479367  16.9920711  61.3728556  46.9214627  16.0354213  61.3916907
  47.8406522  17.2016076  61.0982922  37.8346682  27.4756622  20.1314688
  38.3765388  27.4405575  19.3431938  38.4546137  27.6446247  20.8409405
  72.5337726  32.2583199  41.5177679  73.3892208  32.1380854  41.9300604
  72.1354717  31.3880825  41.5343428  37.0233536  63.6330509  10.6160605
  36.9593644  63.8742113   9.6919501  36.5194988  62.8223324  10.6874704
  38.3272314  60.3753281  10.4661894  38.8036752  61.1731052  10.2364480
  38.5621357  60.2106428  11.3793874  45.9386015  28.4869337  13.1176627
  45.8684969  28.1685925  14.0176487  45.5954742  29.3798590  13.1520414
  38.5837698  30.2612996  19.1872537  39.4804192  30.0961113  18.8957644
  38.3640003  29.5024943  19.7277582  35.8030510  33.7359238  12.0648074
  36.3391924  32.9902363  11.7951143  35.7015824  33.6283827  13.0105197
  26.1361313  41.3358736  30.7312131  25.5503488  42.0097208  30.3862143
  26.2658763  41.5779066  31.6481733  57.1339989  40.8168030   1.4232285
  57.1745920  39.9040532   1.7086622  58.0109406  41.1603785   1.5939866
  65.8633211  12.6832418  64.4389012  66.1868927  12.2909097  65.2498326
  66.5916905  13.2189826  64.1247556  20.4885817  55.0132942   9.6501869
  19.9588597  54.2888212   9.9830014  20.2018356  55.1229048   8.7435478
  15.5386782  67.3565960  11.0565317  15.6556535  67.4350739  10.1097536
  16.0423172  68.0843210  11.4212239  19.4635653  66.9297695  26.3989282
  19.3435585  67.4225712  25.5871558  18.6574352  67.0810795  26.8923759
  35.1422763  54.0669727  16.4197910  34.6135044  53.3591032  16.0516119
  34.7011137  54.8677874  16.1364102  46.0613513  74.3573474  50.9429392
  45.6709528  74.3876551  51.8163821  45.8101047  75.1881360  50.5393335
  15.6960738  19.6894073  31.0892487  15.2717960  20.4267097  30.6503797
  15.0315595  19.3544173  31.6912746  15.6872284  43.4180260  23.1575966
  15.7031333  43.4608936  24.1137052  15.3834140  42.5315094  22.9626107
  37.6001716  31.0773635  25.3697944  37.1809459  31.8278170  25.7908607
  37.2316384  30.3152871  25.8166194  33.2326269  43.8649654  34.9700212
  34.0529895  44.1497087  35.3727055  32.9419637  43.1312370  35.5116725
  45.7856560  77.9818367  69.7575804  44.9482453  78.2527731  70.1338360
  46.0334099  78.7037037  69.1798641  21.7082691  44.8136616  21.0008764
  22.4201608  44.3500614  20.5598426  21.1603308  45.1440573  20.2889538
  16.2988186  76.0376740  14.5483005  17.1050322  76.4605093  14.2525601
  15.7245088  76.7627573  14.7945809  36.7301488  20.8145523  10.9351754
  36.9691133  20.0530195  11.4635634  36.6683793  21.5329933  11.5646672
  11.2714362  22.9204941  50.3707218  11.6655481  22.0721102  50.5735779
  12.0144069  23.4845471  50.1560831  48.9417744  34.6527958   4.9627277
  48.1894112  34.1558290   5.2839857  48.6119938  35.1153684   4.1923371
  74.5448687   7.6904255  25.4423523  75.3883841   7.3742824  25.7660389
  73.9106276   7.0469146  25.7583737  83.5074165  31.1569643  43.7047958
  83.5514933  30.4493284  43.0617237  84.1454938  31.8005753  43.3968115
  51.1622238  35.9759235  15.9198821  51.2026596  36.3511109  16.7995584
  52.0410347  36.1058521  15.5634546   0.3273889   0.0450855  37.4220037
   0.6893608   0.6908374  36.8151999   0.0759670   0.5547577  38.1922293
  26.3923883  67.1324015  30.8913732  25.8008814  67.7478456  30.4582667
  25.8481312  66.3670540  31.0764623  84.4523671  16.2546806  57.9172894
  84.8578051  15.3891305  57.9690000  83.6044982  16.1481647  58.3485672
   6.7667288  46.1466074  22.2177410   7.3178118  46.9085550  22.0389247
   6.6572452  46.1480713  23.1686592  54.2405939  76.1379004  20.5543971
  53.9673758  76.2564230  19.6447074  54.2818975  77.0257568  20.9096932
  25.1547098  46.4291573  13.0076659  25.2540898  47.2710657  12.5632048
  26.0490084  46.1659861  13.2249331  17.5732338  31.8143392  39.6079874
  17.7502716  30.9077621  39.8590016  17.3419452  32.2492933  40.4286909
  74.5654169  51.8010644  54.8219177  74.4610170  52.7301149  54.6165213
  73.7215558  51.5411691  55.1914975  35.9578800  60.7706404  12.4266028
  35.7179427  59.9114132  12.0796323  36.8606687  60.6642866  12.7264237
  25.4210758  38.9751506  44.5295143  26.1483955  38.3720064  44.3763590
  24.6372318  38.4547281  44.3535089   5.0806606  64.9647284  25.9567690
   4.3107343  64.6628714  26.4387751   5.2510875  64.2714214  25.3191829
  26.0186434  72.4566364  14.5770931  25.4080677  73.1550455  14.8130012
  25.6083274  72.0222473  13.8293087  40.2325773  25.7250404  37.2713804
  41.0338879  25.9760499  37.7308655  40.4864025  24.9681473  36.7432547
  46.3688374  54.4197416  22.1808195  47.0958376  54.9905634  21.9320869
  45.8195496  54.9636650  22.7453208  50.8395317  22.1725015  64.0958419
  50.6691066  23.1142072  64.0764019  50.5445197  21.8935565  64.9626681
  29.3181920  58.0925751  25.5252934  28.9198709  57.8353119  24.6937966
  30.2343607  58.2655382  25.3086162  13.7176311  37.0583844  29.0941262
  13.9256501  36.2657785  29.5888329  12.7611518  37.0954871  29.0923333
  53.9142993   1.6514545  24.4147635  53.8049677   1.3257080  23.5213590
  53.1345132   2.1836143  24.5727754  14.2394185  36.1567712  33.1296849
  14.2440617  36.3110852  34.0743518  14.1767430  37.0308161  32.7445245
  11.3846064  17.5875819   7.2810930  11.7981935  18.3314490   7.7190864
  10.5398083  17.4903500   7.7205181  30.4950809  53.6996269  32.3162961
  30.3063178  54.4897127  31.8099737  30.2766013  52.9787540  31.7256665
  81.8254176  77.9536390  13.3458877  81.3349292  77.3158121  12.8274012
  82.5120526  77.4396372  13.7708175  35.3545260  33.2376051  28.8458943
  35.8183002  33.1818771  29.6813822  34.7138429  33.9371777  28.9737940
  14.4555700  40.3242874  13.0109406  15.0969267  39.6519661  12.7809954
  14.9500275  41.1436558  12.9913938  40.5636787  55.7284307  15.9363115
  40.0806952  55.9682989  16.7271471  41.4772844  55.9229898  16.1453652
  40.1054811  57.3667002  21.0448217  40.9729528  57.0505857  21.2974000
  39.9181581  56.9187832  20.2198911  76.6392022  20.4388785  22.4485779
  76.7561006  19.5623398  22.8149748  76.9889259  20.3755617  21.5598059
  17.5171006  48.6818457  36.4782095  17.4557507  49.0617466  37.3546481
  17.3638093  49.4185305  35.8865762  38.1758451  42.5342274  20.8083653
  38.6658788  42.0391703  20.1518488  38.5536790  42.2622108  21.6447139
  73.0850983  62.1142483  25.1255417  73.9633322  61.7347288  25.1556873
  72.8874969  62.3333883  26.0361242  32.8870893  51.1506605  32.3390985
  32.8539276  50.2706051  31.9640946  33.6693478  51.5457392  31.9541121
  37.3242521  58.0173302  16.3451779  37.9610991  57.6917458  15.7090533
  37.0961833  57.2500038  16.8699884  14.0044320  11.2093282  26.1341143
  14.9254286  11.2540722  26.3910079  13.5446501  11.7189395  26.8012929
  78.5344270  16.3810878  32.5174117  77.8108504  16.9628578  32.7502346
  79.2474320  16.9713646  32.2736359  64.1055080  38.9968471  57.7804169
  64.4589272  39.8748235  57.9234990  64.0145889  38.9271907  56.8300947
  73.8296932  28.9472127  34.8716712  73.7511200  29.8943186  34.7574329
  73.4164470  28.5767937  34.0917683  27.1008348  36.5459919  12.1645749
  26.7876983  37.3524284  12.5742519  26.4758325  35.8770394  12.4440539
  22.5205874  65.6428957  33.0503702  21.6392899  65.4906321  33.3914876
  23.1016612  65.2677059  33.7120485  58.5008526   4.8329952   7.9581457
  57.8630161   4.8035589   8.6712575  59.3498564   4.7517857   8.3926868
  52.1983221   3.0050045  20.7630897  52.5696090   2.1473270  20.9699011
  52.1971991   3.4731441  21.5980005  40.5048466  63.4301424  68.3076286
  41.3949442  63.6427402  68.0269766  39.9960160  63.4120989  67.4970770
  79.6435523  35.8980894  19.7134554  80.1441604  36.6811371  19.9424970
  78.8274091  35.9829021  20.2063537  24.3338084  47.2592735  28.5092211
  24.0584731  48.1666803  28.6397457  23.6281872  46.7375278  28.8914633
  33.4875727  76.8522787   0.7477745  33.1067824  77.5692558   0.2406480
  33.7342978  77.2530937   1.5812644  32.2002482  32.1528769  42.9323769
  31.3670874  31.6843534  42.8817654  31.9614720  33.0759478  42.8477812
  26.3922691  72.5671816  55.4718685  25.7421994  72.3385477  54.8075151
  26.3806200  71.8298197  56.0821152  34.9547768  62.3503208  16.5368772
  34.8039365  61.4239740  16.3488173  34.1923356  62.6177740  17.0500863
  85.9817766  32.5718570   7.1418655  85.4386906  32.7265787   7.9147500
  85.4174403  32.0771241   6.5477300  31.2483859  38.6047411  13.8330984
  31.4520526  37.8684115  14.4097900  31.9844985  39.2064834  13.9438987
  41.9372463  32.7993894   8.6362827  42.2838116  32.0303273   9.0886867
  42.6558018  33.4315348   8.6536843  28.5870308   3.5169178  21.5429306
  29.2820283   3.4954124  22.2007680  28.7440484   4.3252807  21.0549569
  31.2988186  49.9603224  29.5560431  32.2085714  50.0019312  29.2613459
  31.1068344  49.0240765  29.6091461  13.1221628  63.8806581  18.6564875
  13.8262260  64.3844223  19.0648365  12.3697591  64.0088892  19.2341363
  17.3274875  32.0265341  22.6962209  16.7515373  31.4086986  23.1465435
  17.0227540  32.8884482  22.9799008  76.1676482   8.8821820  62.9321906
  76.2235657   8.8423757  61.9774547  77.0685354   8.7566642  63.2303175
  39.7925663  11.6802561  41.7917299  40.2094793  12.1388340  42.5211954
  38.9700651  11.3512683  42.1543455  40.0955963  32.7645540   6.4368600
  39.4947076  32.0598912   6.6789627  40.8375597  32.6619697   7.0328438
  18.7707806  62.5571108  24.7466731  17.9648817  62.8687429  24.3347955
  18.8716376  61.6603565  24.4274616   2.1338887  70.3823088  61.1224022
   3.0679125  70.2684854  61.2981310   1.9946522  71.3281082  61.1704722
  80.8277392  59.5277119  38.8755298  81.7467901  59.3750477  38.6558247
  80.3517967  58.8452101  38.4023452  33.1232810  42.4582863  38.7988639
  32.8170323  42.2716141  37.9113984  33.2515979  43.4067345  38.8134146
  16.7659795  22.1094918  32.9691148  16.1020970  21.8404508  32.3342061
  16.5029514  22.9916739  33.2314157  18.7355706  72.7515251  37.7836275
  18.6655757  73.6765099  38.0197096  18.2284686  72.2941119  38.4543395
  78.1867081  47.5283766  33.6682439  78.1602943  47.9189253  34.5417452
  78.7794697  48.0924129  33.1715226  36.1571527  11.4583564  21.8843818
  36.0561752  10.6782532  22.4297929  37.0494890  11.7580891  22.0579529
  39.7949114   1.0472160  16.4097953  39.7954300   1.5265422  17.2383368
  40.1597228   1.6645485  15.7757270  49.7934270  62.2500347  60.1161477
  49.0298248  62.7659486  60.3749415  50.0005746  62.5553130  59.2328998
  16.1042953  34.3729806  32.1232152  15.8846891  33.5166049  32.4901271
  15.4415548  34.9638534  32.4808145  22.6500511  36.7392874  21.9495106
  23.2150006  37.4258471  21.5949726  22.2110605  37.1509671  22.6938486
  41.4174297   0.0827461  39.0452933  41.0101834   0.2518421  39.8948741
  41.2739804   0.8870655  38.5465837  44.5076990   8.2912475  41.3555956
  44.6668339   7.4126804  41.0105896  44.5199871   8.1810689  42.3063517
  31.1983085  30.1828146  35.6458998  30.7496309  31.0148621  35.7962871
  32.0959044  30.4312420  35.4249048  82.1079594  74.2308855   5.7547092
  82.0763406  74.5744276   6.6475749  82.7088794  73.4875298   5.8052361
  26.0319853  53.3059597  17.6503813  26.4682627  52.4843216  17.8757775
  25.9346747  53.2722569  16.6987371  22.4792290  22.2590256   7.8237873
  21.6910815  22.1948195   8.3631700  22.8166580  21.3641024   7.7852690
  46.7368698  43.0042219   1.4277296  47.4106550  43.5298538   0.9965032
  47.2188759  42.2848272   1.8356161  31.2371802  61.9587421  21.4094019
  32.1347737  62.2911835  21.4159822  31.0200930  61.8369627  22.3336720
  60.2417231  41.4973644  66.5186381  59.9779368  42.2689302  66.0173038
  60.3072548  40.7992508  65.8670440  70.5857944  52.8069544   5.3304303
  69.8147535  52.9815197   4.7907546  70.9387112  51.9866896   4.9856958
  71.5879911  61.0414171  40.4102802  71.3663083  61.4138985  39.5568466
  72.4047404  60.5656958  40.2591324  35.1252460  52.0764112  31.0654521
  35.6189394  51.5564537  30.4313064  35.7910681  52.4306440  31.6548848
  72.7129868  24.7228126  67.8632983  71.8819621  25.0036315  68.2464024
  72.4818996  23.9758615  67.3111236  82.9118270  44.8634148  28.0279660
  82.4763584  45.7021332  27.8758216  82.2002685  44.2233419  28.0429626
  62.8228789  14.3935692  46.3422251  63.6215812  14.9148989  46.4229774
  62.1513444  15.0232506  46.0799742  23.7709498  13.7842453  47.4024582
  23.0482268  13.1637609  47.4968147  23.3666110  14.6432388  47.5244093
  52.1479512  64.6289252  66.7359552  52.0821667  65.5251669  66.4063272
  51.2665534  64.4229387  67.0473069   5.8552146  42.7840281  22.3904181
   5.7621640  43.0659246  23.3004236   6.6064060  42.1908426  22.3990488
  59.2729992  74.7701669  20.8905554  58.5358535  75.0714702  20.3594565
  59.4301902  73.8733274  20.5952549  16.8092513  34.8598337  14.5160723
  16.7933202  35.8168626  14.5245659  15.8889139  34.6055579  14.4485712
  33.1103516  55.9953976  27.0664597  33.9299321  55.6602859  27.4300742
  33.3820128  56.5522814  26.3368630  28.3565760  57.5883245   8.0496001
  28.9752913  56.9774294   8.4498900  27.6993704  57.0277596   7.6371920
  57.0622852  17.9815727  23.8767624  57.4248126  18.8632446  23.9631057
  57.5720027  17.4519115  24.4898558  50.3102305  12.8523212  20.9636831
  49.4074204  12.5665527  21.1033273  50.2891662  13.3105903  20.1235771
  39.7258666   1.8760162  30.7259893  39.6068111   2.5868087  30.0960422
  38.8389983   1.6609150  31.0148263  18.9466667  49.4745255  23.4654069
  19.8743415  49.7040844  23.5197544  18.9421296  48.5282040  23.3215737
  29.4310784  61.2868834  33.0312133  29.1887236  60.5066442  33.5299397
  29.1535401  62.0189428  33.5819340  15.0878093   9.4672422  57.6257834
  15.5902955  10.2636222  57.4539778  14.1772697   9.7215347  57.4758479
   6.8911332  21.7238641  10.9938431   6.2908840  21.8830395  11.7222631
   7.7455819  22.0039797  11.3219965  27.2848794  27.0578555  64.7697785
  26.7377517  27.8234939  64.9449477  26.8372581  26.3371400  65.2129909
  77.8842068  44.6218586   9.1093642  78.4541273  44.8748589   9.8355973
  77.7376795  45.4346609   8.6255103  83.9421654  49.2341185  16.9594061
  84.1358185  48.8636112  16.0983264  83.0280876  49.0002680  17.1206999
  11.5830648  35.8203268  34.9021125  11.4918911  36.7213130  35.2121806
  12.4624598  35.7843590  34.5258141  50.2758360  70.4963493  22.2737360
  49.8582983  69.6840382  21.9873071  51.0769653  70.2117157  22.7135181
  33.3246946  72.6741648  19.2511225  33.6504436  72.0595264  18.5935974
  32.4846911  72.3071718  19.5266986  38.2857990  55.0087786  13.0416906
  37.5326538  55.0587988  12.4530482  38.9652205  54.5755243  12.5250578
  79.9832606  54.3815517  25.3910112  79.2938495  55.0397444  25.3031206
  80.7393205  54.8688602  25.7183266  19.7944701  71.2209463  20.1300526
  18.9911366  71.7102098  19.9525380  20.3816199  71.8618679  20.5309367
  50.6226778  27.9643655   5.3666228  50.8496952  28.8244462   5.0131369
  51.4629555  27.5167942   5.4658419  79.3824316  73.4395765  68.5732403
  79.0264488  73.6672400  67.7143575  78.6115957  73.2681845  69.1142265
  13.7891099  20.4489307  56.6447779  14.5728824  20.5606155  56.1067626
  14.0458390  20.7659463  57.5107035  47.8188467  56.9812202  13.3345616
  48.3784056  57.3733521  12.6642156  47.2452068  56.3873434  12.8503335
  21.0531831  36.0479498  15.5365002  20.5316758  35.8296871  16.3089132
  21.9221616  36.2498069  15.8834326  71.3063625  17.7683524  40.8710763
  70.5978802  18.3541707  40.6044313  71.7524234  17.5446634  40.0542375
  31.6047525  69.1091347  18.1914604  30.9679031  69.5762491  17.6506650
  32.4150801  69.6090269  18.0929279  62.7201605  67.0895195  31.0079265
  62.9144144  66.5321732  31.7614889  63.0255413  66.5865421  30.2529526
  37.6927567  54.0319204  21.1669350  37.0755219  53.9003325  20.4472566
  37.7746582  53.1690121  21.5730286  83.6677483  39.4895581  54.1884193
  84.0972093  40.3401403  54.0973195  83.8519362  39.2235069  55.0892660
  39.7855616  64.8295784  25.1639676  38.8594127  64.7448730  25.3904748
  39.9354315  65.7738447  25.1177287  75.2951193  66.5278244   2.1858822
  76.2182760  66.4665365   1.9404164  74.8234940  66.4986658   1.3534442
  32.2296143  57.2178268  19.7214127  31.5968299  57.6424456  20.3006530
  32.7936149  57.9299498  19.4197261  43.4232616  56.9249773  28.1030989
  43.4241056  57.7479219  28.5919666  43.4263372  56.2457418  28.7775350
  62.7124241   0.3297382  22.7195859  63.0406502   0.4610782  23.6091065
  63.4790829   0.0478416  22.2205830   3.0557754   5.1635318  29.6604776
   4.0083959   5.0822979  29.6141887   2.8464105   5.8752304  29.0555906
  76.0729805   4.1734199  64.0880665  76.6902963   4.4162730  64.7781190
  75.8037761   5.0074367  63.7031332  19.2500257  46.9596386   9.4570851
  18.8244939  47.4354458  10.1703620  18.5455024  46.4526463   9.0535557
  35.2268052  60.1562595  26.7575598  34.3011498  60.3988075  26.7812514
  35.5704451  60.4397488  27.6047778  16.4387366  16.5694026  57.1841475
  16.3529679  17.5171975  57.0813832  15.9160802  16.2028865  56.4708969
  79.7403717  41.5415621  25.9325695  79.0867281  41.3034058  26.5900373
  80.4177475  42.0049572  26.4251661  63.6180496  69.1624355  42.4827480
  63.4551525  68.8239336  43.3631516  64.4513702  69.6277618  42.5554419
  40.5925989  49.8621178  15.1980078  40.0113201  49.7549105  14.4451118
  40.6181240  50.8071089  15.3482497  10.9185908   4.1092185  54.6976766
  11.3435266   4.7290734  55.2905008  11.3301179   3.2679633  54.8955843
  27.9143140  13.5584478  38.7293240  27.7737949  14.4740323  38.9705536
  28.4938094  13.2174854  39.4106194  33.3754182  57.4885607   2.5986895
  33.6294818  56.7258406   3.1182441  32.4443793  57.3569918   2.4195567
  44.6111441  62.4727678  11.4227974  43.8521624  61.9968891  11.0855770
  44.8936272  63.0221367  10.6916130  10.4884765  38.0734472  54.8134383
  10.2916667  37.7866487  53.9216730  10.5132863  39.0287093  54.7578332
  32.3785734  47.6675081  27.0139360  32.0656586  47.0718288  27.6947331
  32.4449301  47.1218824  26.2302780  23.6712980  27.0743632  14.7132301
  23.7172937  26.1645031  15.0069511  24.3616772  27.1485448  14.0543652
  63.7033701  51.8834877  12.9036069  62.9747868  51.5697193  13.4392822
  63.5826778  51.4511013  12.0582020  61.2769032  62.6372147   6.3367510
  61.8435144  61.8805313   6.4871275  60.4669189  62.4259233   6.8009788
  79.3453741  68.9460468   1.1030354  78.4591770  68.7250376   0.8166100
  79.4878912  69.8346138   0.7768913  39.9822640  41.8018150  23.0053043
  40.2385235  42.1050549  23.8762856  40.0695515  40.8495569  23.0479360
  16.7429316  59.9302292  26.1388946  16.9818127  60.7167912  26.6292930
  16.4372253  59.3156576  26.8060374  37.5538516  76.6284990   5.6980371
  37.8585243  76.4033127   4.8190048  36.7486358  76.1230373   5.8092457
   5.2810332  18.0477361  45.6117007   5.7453320  18.4299783  44.8670217
   5.0099895  17.1820335  45.3062078  50.7305765  45.3824520  22.9963088
  50.4605484  45.9580421  23.7118602  51.2843609  44.7234631  23.4149837
  27.3186970  64.3790722  17.1010756  27.9314089  63.7319088  17.4503481
  27.8763199  65.0381184  16.6876173  27.9764819  47.8070831  24.7436547
  28.8517976  47.4242973  24.8030782  27.4341178  47.2529078  25.3048658
  33.6155558  37.0883489  25.1003957  34.3754458  36.7603159  25.5812240
  33.2166123  36.3057327  24.7201514  28.0649066  47.4239063  18.6775184
  27.1404719  47.5753546  18.4807503  28.3154607  48.1617546  19.2334259
  53.3842999  36.5119056  61.0558847  53.6620835  35.6897334  60.6520316
  53.4831152  37.1646098  60.3627440  36.0363460  23.4613657   6.2310833
  36.6970587  23.8765311   5.6767118  36.1716175  22.5225019   6.1027461
  13.6602038  56.7664337  30.2860594  14.6021193  56.9234037  30.3523088
  13.4600276  56.1944151  31.0269713  45.3651094  55.7129145  12.6104796
  45.1729727  56.3734770  13.2760441  44.9703455  56.0579348  11.8096328
  29.0907669  55.1863766  30.6293821  29.6583962  55.0915718  29.8645043
  28.3098722  54.6769571  30.4127407  23.9788816  18.2325248  62.3598197
  23.6942622  18.8544254  63.0294952  24.7516963  18.6393813  61.9680884
  83.8355401  14.5631913  30.5401465  83.4751681  15.3036193  30.0521633
  83.8151577  14.8461417  31.4543411  77.1341935   4.8007898  59.3086514
  76.2980858   5.2475337  59.4412264  76.9529966   4.1496209  58.6308750
  35.1894760  68.5174227  30.3214431  35.6348443  67.6906681  30.5067873
  35.1910710  68.5814762  29.3663883  29.0587518  28.0563716  56.8086418
  28.6662481  28.6278943  57.4685880  28.7426231  28.4020213  55.9738859
  31.8301725  60.6339693  29.3698478  32.3644185  60.4864311  28.5894346
  31.3288617  61.4247608  29.1709375  44.2494392  43.9309168  14.9690270
  44.9300671  43.6670113  14.3498886  44.2944193  44.8869801  14.9812496
  37.6358604  36.8548274   1.9827987  38.0802727  37.4629974   2.5734422
  37.1325707  37.4173284   1.3941365  44.7982645  56.3035154  25.9063721
  45.1253080  57.0121145  26.4605904  44.0981150  55.9011555  26.4203072
  39.7437086   6.5479332  25.1202106  38.9462414   6.9832950  24.8189759
  40.4540422   7.1156459  24.8212647  24.7155738  59.6609497  22.1523452
  25.4974461  60.1523113  21.9004035  24.5956326  59.8612022  23.0806470
  29.8254371  79.6123648  17.5986838  29.2617726  79.9429560  18.2981312
  30.4982042  79.1050673  18.0528462  62.9078722  42.0165348   0.4765382
  62.6788282  42.9297209   0.3037310  63.6006689  42.0639181   1.1353385
   2.9754588  42.7989797  46.7246982   3.6088440  42.2261075  47.1569773
   2.9787204  42.5134019  45.8110973  43.5892963  32.2075653  15.7401323
  43.8313675  31.7927647  16.5681255  43.9269257  33.1003690  15.8118033
  78.9886379  51.0006046   7.8561562  79.3763494  51.8744373   7.9043919
  78.3623886  50.9761620   8.5796529  17.5291371  48.8167763  10.7784903
  17.7448463  48.5718536  11.6783321  18.1979680  49.4578695  10.5378747
  55.4711342  64.2021036  41.5583849  55.9834194  63.4201527  41.3526058
  56.0099983  64.9299192  41.2483168  53.6126686  78.4762524  50.8010694
  53.5334445  77.7529882  50.1791009  53.9252329  78.0656956  51.6072819
  32.5067043  73.0965185  13.2557702  31.8213892  73.5016537  12.7243161
  32.1209240  72.2742033  13.5577619  25.8672309  67.2387314  27.1641183
  25.0301838  67.1427011  27.6183867  25.8841562  68.1538963  26.8840814
  44.0148211  70.1724100  22.1684623  43.0881023  70.3923941  22.0734477
  44.2022467  70.3201723  23.0954289  35.1269698  58.5669374  10.5168796
  34.6971393  59.2230320   9.9682266  34.9001074  57.7299690  10.1116037
  60.7054853  67.3213005  56.5000153  61.4019394  67.9310417  56.7437458
  60.5599785  67.4840355  55.5680418  49.5944312   5.6487709  12.2712624
  50.1385763   4.8872524  12.0706666  50.0113299   6.0463672  13.0356848
  39.7415566  77.2522783  17.6822150  39.5734239  77.2793913  16.7402864
  40.3476954  76.5202904  17.7963436  47.9198074  63.1884241  14.6331000
  48.0322218  63.5870695  13.7701523  48.7126160  63.4282732  15.1128483
  26.4315820  62.5500870  21.6601396  26.0567522  63.0306005  20.9220076
  27.2775865  62.2386599  21.3383937  23.5413882  24.9756793  51.0453364
  23.3316419  25.8843307  51.2611946  23.4561870  24.5065335  51.8753204
  24.2291141  53.3295536  20.2810574  24.7668505  53.9921522  20.7146859
  24.4886661  53.3751345  19.3608463  27.3916817  43.0719233   1.8359511
  26.5330052  43.4761810   1.9603865  27.5876760  43.2065201   0.9087492
  50.8163452  44.7356415  16.4298761  49.9919939  44.9474525  16.8678391
  51.4408493  45.3749418  16.7726874  38.4483933  66.7750835   9.3658715
  39.0082669  67.1072006   8.6641085  38.8476038  67.1091413  10.1691568
  56.0708287  25.0523620  12.3059237  55.8801797  25.9868389  12.3873413
  56.5402582  24.8326831  13.1106651  73.9510218  32.0548515  64.3783906
  74.4350866  31.5661601  63.7127373  74.6193937  32.5688867  64.8314664
  31.4256310  71.4388418  24.0079236  32.0079422  71.6232872  23.2709527
  31.1046600  70.5521774  23.8434863  54.8562446  36.1519794  57.3534211
  54.1952616  35.9787587  56.6831013  54.6116033  35.5834417  58.0835912
  74.5112658  49.4941378  35.0156713  74.3218803  49.5359230  34.0783238
  73.8490438  50.0553513  35.4190731  18.6469615  68.3700275  24.3702960
  18.8401961  68.4858942  23.4399891  18.5355663  69.2600679  24.7044420
  60.5730200  40.1892042   4.5157018  60.3037548  40.7111883   3.7598816
  60.2476025  39.3090034   4.3270758  48.1523514  59.2926788  24.7636414
  49.0450907  59.6318150  24.6985841  47.9031277  59.0993452  23.8599038
  45.5987978  73.4285879  15.4482841  46.4108276  73.6009550  14.9716973
  45.3962183  72.5136280  15.2532554  36.9451976  57.7301645  12.1302891
  37.4630499  57.0438147  11.7095971  36.3910818  58.0752230  11.4302015
  46.0591602  45.4804420  10.8660734  46.8625021  45.4457188  10.3467762
  46.1272097  46.2986612  11.3581228   9.3903649  45.6394529   5.5959857
   9.2992342  46.4236689   6.1372185   8.6639661  45.0770903   5.8649188
  13.5127568  73.9237690  29.2995524  12.9118001  74.1891050  28.6033630
  14.1841125  73.4080935  28.8527989  46.8339634  53.5608149   9.2840689
  46.1954117  53.1415367   9.8608595  46.8421316  54.4768810   9.5615351
  26.2989807  62.2118855   7.8566331  25.9365273  61.8952656   8.6840445
  26.8432069  61.4901400   7.5417697  44.9260902  74.2581844   3.1374779
  45.4093599  74.9160576   3.6373600  44.9175406  73.4861088   3.7032124
  18.2533548  26.2496976  62.6158586  18.0874631  26.8921975  63.3057174
  17.7465484  25.4810075  62.8775766  62.6840878  69.7878790  21.7407727
  61.9957066  69.7569561  22.4051547  62.3485279  69.2508030  21.0230160
  62.0738983  69.3092346  44.9503136  62.8950882  68.9636707  45.3002501
  61.5665817  69.5515871  45.7249928  19.8091149   5.8625874  68.3294585
  19.4508159   5.6092152  67.4787769  20.4475355   6.5462766  68.1264341
  30.8657289  67.1129942  27.6463413  30.1003671  66.5687084  27.4613810
  30.5317688  67.8133249  28.2069135  32.4944329  60.5690861  26.6224813
  32.0103931  61.3301754  26.3020396  32.1573424  59.8364115  26.1069298
  27.9035401  70.7993269  22.2327662  27.3864579  70.2604437  21.6340470
  28.4990358  70.1817322  22.6572561   0.4659289  61.2778473  24.9016261
   0.8779544  61.7353344  24.1687036  -0.1629239  61.9076109  25.2540064
  39.1070724  62.1340704  32.7992797  38.3224392  61.8163109  33.2460523
  38.7729549  62.6257372  32.0490384  79.5088434  78.2506895  36.3700151
  79.9855947  77.4646997  36.6367745  79.1672468  78.0402279  35.5009651
  72.3075488  23.7922531   1.9996081  72.3683694  24.5360523   2.5990170
  72.8744843  23.1254058   2.3870838  18.9486420  78.1596231  34.3500304
  19.2062259  77.6373243  33.5903692  17.9956627  78.2222223  34.2856503
  42.7511930  66.3325024  17.0182610  42.6322699  65.4029894  16.8230844
  43.6677742  66.4060450  17.2841549  25.0308609  51.9768143  27.7206135
  25.1395822  52.9060650  27.9228711  25.4280877  51.8717957  26.8560839
  46.6614199  76.7620373  16.2639153  46.8180370  77.5363159  16.8044698
  47.3729467  76.1634111  16.4910972   2.6044819  37.1013717  56.7120394
   1.9293091  36.4379911  56.5695426   3.1935022  36.7090348  57.3565218
  10.0554585  62.6824141  42.6450586  10.9085059  63.0908203  42.4975920
  10.2612281  61.7820072  42.8963661  69.2883348  46.7485237  24.3768144
  69.4780779  47.5410318  23.8746595  69.1576481  46.0704994  23.7139177
  49.4309664  46.0097456  20.6418109  48.6706734  45.8246899  21.1931205
  50.1696730  45.6292582  21.1169672  12.5452411  15.3035581  44.6655369
  12.6868486  15.0433433  43.7553358  11.7761171  14.8044527  44.9404430
   3.0877680  76.0903262  55.3290185   2.4947209  75.7695578  56.0084543
   2.6469225  75.8777045  54.5064136  83.5020259   0.5958992   7.5655246
  84.1342833  -0.1218552   7.5292850  82.7765229   0.2499824   8.0853462
  29.8247504  51.7281294  23.4507585  29.9349427  51.0701895  24.1372061
  30.7177520  51.9627094  23.1982684  28.3455274  13.1632690  55.5517945
  28.3821628  13.0338601  56.4994976  29.1035459  13.7139205  55.3557691
  26.7854452  51.8001223  20.9456968  26.7006779  51.2200642  21.7023873
  25.8902001  52.0829821  20.7592630  51.6448402  61.8055153   8.6479193
  52.3461580  62.4541044   8.7088633  50.9393740  62.2582817   8.1858051
  28.4089875  69.3189573  11.5909076  28.0971146  69.5381546  12.4689281
  27.9838371  68.4860182  11.3867259  60.4094458  74.7985220  10.5965829
  61.1251736  74.8690653   9.9649274  60.6328726  75.4272223  11.2829137
  25.4495761   6.4468841  59.5377573  26.3335702   6.1080436  59.6790835
  25.4452464   7.2962598  59.9790856  33.4517932  33.0330849  22.1205878
  32.6127696  33.4483647  21.9210553  33.7624812  32.7035546  21.2773108
  14.4209096  27.3041228  53.8593027  13.6321304  27.1271638  54.3718943
  14.1509769  27.1708755  52.9506704  52.5605795  16.1293582  59.0951058
  52.0986399  15.6375579  59.7740588  52.6011720  15.5293302  58.3504245
  12.8710365  72.1768856  31.3710046  12.6641059  72.8227234  32.0465088
  13.2274795  72.6926470  30.6476974  36.7200780  63.0684090  21.0732841
  36.5849137  63.9793301  21.3344169  37.5783420  63.0655718  20.6494832
  24.2376208  59.9011374  24.8345828  24.7053432  60.4188919  25.4898667
  23.5921025  59.4047308  25.3376889  56.2251046  13.0059009  17.8370094
  55.4343298  13.1177383  18.3646452  56.5033367  13.8981586  17.6303673
  67.6573828   0.0835281  35.1378775  68.5448292   0.4360061  35.2044463
  67.4755862   0.0682789  34.1982245  21.7541337  60.1202393  57.3568773
  22.2680855  59.8124933  56.6102982  21.5713120  61.0388374  57.1594477
  37.4667454  49.6926022  32.3244071  37.9002595  48.9938164  32.8143024
  38.0129766  50.4643154  32.4738312  50.3388405  58.1559849  22.5333452
  49.9767160  58.8980198  22.0491147  50.9121323  57.7168226  21.9050908
  43.2320404  54.0242863  19.6777833  42.4556780  53.5721636  19.3475139
  43.3598089  54.7544003  19.0721095  55.6924725  60.7843018  14.4153595
  56.4016771  60.3331614  14.8733258  56.1273241  61.2528276  13.7028837
  19.8751211  52.6873493  30.9908795  20.2576995  51.8289328  30.8092356
  19.5240366  52.6102257  31.8780231  39.7333574  35.2960706   5.0168639
  39.5938444  34.7650075   5.8009166  39.6134782  34.6854544   4.2895359
  72.1563053  69.6712303  23.1310296  71.6954374  69.5766687  23.9646292
  71.6417313  70.3152847  22.6445746  56.4165047  15.7485920  19.7985685
  57.2134450  15.2946907  19.5245361  55.8903959  15.8112484  19.0013754
  27.5689504  36.0662870  53.9288101  27.5255439  36.0810975  52.9727086
  26.6584584  36.1525754  54.2112705  35.8741665  73.7289429  19.2497742
  35.9630251  73.5166407  18.3206546  35.0027943  73.4108257  19.4858778
  19.2297599   8.4802655  64.4781765  18.2907245   8.3122186  64.5569506
  19.4384191   9.0319566  65.2320537  15.7525203  10.2235154  48.2075307
  14.8407552   9.9437598  48.2891247  15.7041309  11.1756019  48.1213924
  64.3693542  66.4063501  48.2909155  63.9101887  66.5576124  47.4647713
  65.2805233  66.6317225  48.1032705  51.3066959  58.9629793   0.9563435
  50.9053707  59.5672989   0.3318695  51.0663128  59.3112040   1.8149400
  15.5401272  65.7386564  69.6444455  15.5824370  65.1481365  70.3965937
  16.2648339  65.4635476  69.0828822  28.4206796  65.0553751  13.5580468
  27.4966025  65.2754164  13.6759305  28.8490820  65.3906441  14.3456376
  73.9166307  78.8027477  52.1257496  73.4695387  78.2839346  52.7944613
  74.6098328  79.2603874  52.6014233  33.6055851  59.9283695  31.3301468
  33.0060863  60.2554178  30.6594205  34.4666648  59.9495077  30.9126234
  79.3352222  63.3546543  16.1568248  79.8155022  63.4188128  16.9823253
  80.0127411  63.2110882  15.4960787  49.0324450  61.1260605  32.6716018
  49.1879320  62.0649910  32.5692654  49.8812103  60.7699728  32.9343343
  62.7765656  58.7568998   5.5109394  62.8966761  59.5457172   6.0396868
  63.4124851  58.8453102   4.8009944  62.2533846  44.9143076  20.3756976
  62.2351837  44.0906572  20.8630419  62.6806593  45.5334377  20.9676003
  20.5938125  57.8728914   4.0648225  20.2496028  58.0602694   3.1915277
  21.2963963  58.5113144   4.1874036  84.5154193  14.7237233  69.1675570
  85.1407269  15.0242452  69.8270336  84.8427990  13.8646583  68.9009735
  20.7340240  69.1327810   7.0984155  20.8098149  69.8401260   7.7388495
  20.1334906  68.5067368   7.5029606  30.8462405  36.6763425  18.9214158
  31.3103652  36.0277796  18.3920884  31.5031099  36.9944263  19.5407534
  66.0308218  46.7793322   2.0667297  66.2512350  46.2743807   2.8494656
  66.5402126  46.3707876   1.3668382  81.5974712  51.9109154  36.5205240
  80.9976673  52.6408243  36.3665700  81.9440269  52.0668983  37.3990488
  44.6803951  55.6216145   4.0196556  44.3528366  54.7756529   3.7142259
  45.6320524  55.5511904   3.9447266   1.0316345  22.4361209  69.4452786
   1.0855791  23.3266095  69.7921854   1.7497251  21.9688586  69.8721794
  37.3426891  68.9795421  52.0201918  36.5604228  68.4279274  52.0237419
  37.0066315  69.8722480  52.1000215   3.4744546   5.7724408  64.3898407
   2.8827283   5.0281886  64.5001951   3.7975094   5.9544830  65.2722970
  30.7197738  39.3868327  35.8892822  30.4659057  38.5083580  36.1722350
  30.5756187  39.3846774  34.9430037  40.8509684  71.2194586  27.0675159
  40.5155802  71.1228037  27.9588103  41.7866850  71.3864851  27.1805096
  19.3312490  66.4694071   3.3501941  18.8847804  67.2061634   2.9329544
  19.0833998  66.5304852   4.2727295  26.9854856  73.1675196  29.6371007
  27.5785589  73.8486767  29.3200517  27.2392774  73.0351114  30.5504966
   8.1689641  14.3363885  64.3661931   8.8669798  14.8917178  64.0188965
   8.0205509  14.6646957  65.2529970  69.8723653  18.9999824  18.3353078
  69.1330054  19.0372902  17.7285194  69.5536664  19.4316154  19.1279960
  11.2111783  53.9303541   0.8926557  11.0896015  54.0113497  -0.0533310
  10.3226340  53.8773251   1.2446615  28.9423680  75.0817633  17.5405502
  28.6599946  75.8422804  17.0325041  28.3933091  75.1000834  18.3244061
   3.2805702   4.1293865  13.8469481   2.5373098   4.6709495  13.5813987
   3.6444780   4.5793586  14.6093965  26.1793518  37.7901030  22.6819277
  26.5526438  37.3307180  21.9296956  25.7301331  38.5454059  22.3025179
  47.7279425  59.5007420  22.1886706  47.9331064  60.4341459  22.1349049
  47.8008795  59.1871691  21.2872362  11.0730189  64.7107553   1.3464314
  11.1777705  63.7600136   1.3830537  10.2520865  64.8431826   0.8723366
  39.3022728  38.0935335   4.1695312  39.6164036  38.6759067   4.8611939
  39.0736508  37.2829461   4.6244061  84.1332200   7.8046111  39.3559167
  83.7441281   8.2489995  40.1091477  84.2299226   8.4914569  38.6962792
  77.3484471   8.7297683   4.8514962  78.2240918   9.0329605   5.0913954
  77.2048190   7.9566150   5.3972435  31.8010029   2.9994255   4.6737880
  31.5578589   2.1868187   5.1173985  32.7566901   3.0221992   4.7225261
  71.2067416  19.2468506  13.9809024  72.1043637  18.9308315  13.8777781
  71.2312510  19.7833877  14.7732186  50.8122492  58.3951092   5.8240074
  51.5742254  58.6336088   6.3519621  50.2695179  57.8685999   6.4109182
  74.4237033  60.6000547  68.8287388  74.2484072  60.8267240  69.7420426
  73.6261836  60.8506040  68.3624585  39.3970847  61.3165092  29.8999476
  39.6043301  60.3952551  30.0567222  38.4928870  61.3085222  29.5859456
  81.5824509  30.0902104  17.0247400  80.9761906  30.3098440  17.7321577
  81.7798138  29.1630578  17.1576548  56.8633795  67.9946804  36.7041397
  56.0422754  67.6550484  37.0600510  56.6362762  68.2973814  35.8249187
  52.2136450  63.7996483  18.3592951  53.0617332  63.8135958  18.8029039
  52.2257900  62.9926634  17.8446460  56.8210790  28.3111171  65.1131293
  55.8980367  28.3588103  65.3620443  56.9627855  29.0858630  64.5691451
  25.6946945  52.5738001  25.1463723  26.1839485  52.8633690  24.3762994
  25.0029087  53.2271576  25.2502489  44.4814634  75.9313679  67.5251198
  44.1822672  75.0347662  67.3740625  45.1377773  76.0826397  66.8449688
  33.3454988  11.9035320  60.6553510  34.2365548  11.5965823  60.8228061
  32.8872201  11.7729739  61.4855120  50.2776957  79.5117235  40.8300066
  50.9294558  78.8124752  40.8799219  50.5349731  80.0247097  40.0639200
  70.3859186  80.0998402  39.3143559  70.9297752  80.8565807  39.0957594
  69.4908667  80.4391098  39.3108201  35.8596656  19.3459109  33.9194271
  35.9587667  20.0047139  34.6067282  35.3712127  18.6362247  34.3365499
   3.5222456   5.5606132  36.1006260   3.7980911   4.9078613  36.7441010
   2.8777286   6.0958629  36.5635943  43.0866239  23.3717136  51.5088376
  43.8849160  22.8507690  51.4218041  42.3756215  22.7431468  51.3838801
  73.3101014  48.0252294  66.8975416  73.9485160  47.7127675  67.5386545
  73.6795989  47.7758722  66.0504725  50.9914255  75.5982494  50.7138395
  51.7356205  75.8166742  50.1528597  50.8716536  74.6558285  50.5966854
  52.6186705  53.2619190  15.2190626  52.3100424  53.9226437  15.8390796
  52.1272659  52.4724531  15.4459846  29.1045642  64.7000265  25.9765363
  28.9261746  65.0704050  25.1121140  28.2563329  64.7075367  26.4200234
  30.3231641   2.9506260   2.4658556  30.8738538   3.0209213   3.2456198
  30.6217691   3.6601692   1.8969913  13.0747712  76.1802721   9.4520271
  12.7207375  76.3373899  10.3273594  12.5998259  75.4116488   9.1359836
  15.5871102  16.9789867  60.0567958  15.8813951  16.7080955  59.1871723
  16.1051175  17.7597503  60.2525112  38.4935641  72.8507853  34.5941043
  39.1612053  73.4224892  34.9731112  38.5833573  72.9715824  33.6488128
  60.8797979  69.9737835  47.1894407  61.4275026  70.2541208  47.9226971
  59.9862957  70.0080824  47.5310659  74.4378236   7.1211652  53.0296871
  74.2190710   6.5686969  52.2792479  75.3146783   6.8375520  53.2883808
  78.0607939  40.3128767  49.4695520  77.7911711  40.5837679  50.3471327
  78.9713383  40.5996513  49.3995428  68.5076835  22.0361190   8.6856574
  68.8913825  22.4247795   9.4717538  67.9787400  22.7374702   8.3054364
  33.5190773  75.5282640  12.3137283  32.8586817  75.7921362  11.6730416
  33.2225609  74.6730137  12.6249576  11.2997648  24.4546918  47.4287435
  12.0271394  24.8844079  46.9787380  10.6452248  24.3129234  46.7448494
  67.0535326  72.5085640  19.4559562  67.4129105  72.2166252  18.6181903
  66.1047125  72.4573708  19.3404329  75.6401491  69.7539473  28.6760139
  75.7783508  69.5524073  27.7505326  75.5569839  70.7071209  28.7037468
  18.0960581   6.7655235  14.4994855  17.5916406   6.0044914  14.7869110
  18.0204603   6.7565113  13.5453176  20.7225749  26.6387872  54.9144539
  21.3204000  26.1400966  55.4713568  21.2444350  26.8640546  54.1442928
  50.8368778  48.0731106  24.0884447  51.4152384  48.4975052  24.7221804
  50.0077677  48.5448885  24.1674161  23.8480374  69.4847326  69.0866501
  23.7638423  69.5425443  68.1349143  23.1579206  70.0562505  69.4233026
  73.2365704  56.6092396   7.7510411  72.3297739  56.8870020   7.8806227
  73.6006069  56.5599442   8.6349422  74.2590976  78.2507704  69.1559307
  73.9362455  78.2102393  68.2557332  74.9751592  77.6161169  69.1823719
  59.9432376   2.8109031  26.2782979  59.0342977   2.8790718  26.5705514
  60.0348571   3.4982639  25.6184649  68.2666492  49.8185635  25.1177740
  67.5677109  49.2953539  24.7253823  68.1394291  50.6964445  24.7580981
  59.9990416  72.3752546   2.9517481  59.6010399  71.5935898   3.3349288
  60.9186697  72.3284340   3.2131335   9.8005027  61.3984346  45.7785320
  10.3935450  61.2039661  46.5042877  10.0065631  60.7377768  45.1172400
  74.8503017  54.4778728  14.2168951  74.3186283  54.5458555  15.0099480
  74.2740822  54.0592623  13.5773885  79.1449359   1.9008880  26.0151863
  78.5065511   1.6270214  26.6737390  79.6705582   2.5693756  26.4545846
  49.9206969  32.2535781  56.4408681  50.5635020  32.8542737  56.8179616
  49.0759561  32.5838641  56.7467424  10.1333973  16.8039280  13.0114448
   9.7516319  16.1334568  12.4449146  10.2905533  16.3546520  13.8419187
  15.2072618   1.0079507  68.3554274  15.1256988   0.1258020  68.7179162
  14.3320701   1.3852767  68.4442951  57.1831754  12.1257263  20.9686661
  56.3238647  11.8802696  21.3115501  57.0080974  12.4275356  20.0773263
  59.2468288  16.9304042  13.6514664  58.7478044  16.4062267  14.2779160
  59.1193607  16.4868980  12.8128469  10.6532049  71.3143158  16.5069294
  10.0016177  71.2971258  15.8059514  11.3827062  70.7950830  16.1686230
  28.7624693  77.1257830   2.3451266  29.5893693  77.3875904   2.7500021
  28.9445233  77.1283388   1.4054024  41.9248199  57.9054880  18.4091127
  41.4832211  58.7488651  18.3094239  42.3193789  57.9432344  19.2803943
  79.3437484   0.1476913  30.0774980  78.9965251   0.1305538  30.9693360
  79.9202063   0.9116321  30.0595474  32.5054834   9.3049316  68.7660086
  33.0998180   9.9570398  69.1371620  32.2772453   9.6521692  67.9037064
   6.5152046  10.2274852   9.6284115   5.6552955  10.1414638   9.2168379
   6.8624565   9.3356758   9.6463299  39.0690231  57.3422670  14.2066205
  38.3969164  56.8574572  13.7275970  39.6217275  56.6644955  14.5956910
   5.0199816  30.9428434  66.1562306   4.9104092  30.2488927  66.8063503
   4.2838499  30.8266811  65.5555236  33.7795138  69.7201204  11.6865945
  34.3004847  70.0562382  10.9573162  32.9290915  70.1489449  11.5910923
  69.2660713  56.1473894  24.1295147  69.7587633  56.0856009  23.3111811
  68.3656359  55.9353685  23.8835573  54.2167997  73.5044670  34.6720314
  53.4754467  74.1026449  34.7658730  54.2829227  73.0697680  35.5222631
  71.2493232  33.5628181  23.0082703  71.4525941  32.7583080  23.4854388
  70.4011395  33.8392692  23.3552361  10.8054301  56.0852269  65.9387651
  10.2397153  56.4316491  65.2487034  11.6526696  56.5038614  65.7865974
  50.6408021  25.2987222  66.9985247  49.9431560  24.9070911  67.5240242
  50.1860616  25.8922366  66.4008716  36.9794655  63.4774637  31.8108034
  36.3674641  62.9986763  32.3697758  36.7391849  63.2232237  30.9198165
  11.4794299  43.0540303  69.8631489  11.0405609  43.0021886  69.0140683
  12.4022004  42.8931932  69.6660208  19.7020122   8.2198101  11.5988934
  19.0449688   7.5613647  11.3731003  20.3772041   7.7323776  12.0708740
  17.2638127   5.7780151  60.2640423  17.1529338   6.6378431  60.6697866
  17.6167152   5.9671621  59.3946084  79.5377687   2.8452043  51.2674281
  79.1616395   2.1384649  50.7427630  80.2750328   3.1638030  50.7466909
  11.9879842  67.5298738  22.4121737  11.4734387  68.0748367  23.0075669
  11.5314233  67.5945425  21.5733624  15.9817433  37.6978922  14.6192992
  16.0623419  37.7541590  13.6671591  16.6025865  38.3465672  14.9509716
  46.3081646  56.9810677  19.6190667  45.4475260  57.3413610  19.8329043
  46.6637611  56.6948223  20.4604030  31.1022875  24.2767196  12.0239949
  30.5205175  23.7828880  12.6018476  30.6530210  25.1108890  11.8878114
  46.9987822  59.5304823  17.0899129  47.7402306  59.0199518  17.4152565
  47.1527958  59.6029520  16.1479676  69.1639900  60.4716110  32.3710370
  68.8743162  60.0914288  33.2003641  69.3119192  59.7173929  31.8005109
   6.4306328  50.4803971  69.4315503   7.0181892  50.2696828  68.7058723
   6.7368028  49.9327020  70.1544071  32.7335191  80.9494019  20.1056337
  33.5486460  80.8078575  20.5870533  32.3645377  80.0729561  19.9964714
  44.0447367  78.1610130  51.8746695  43.5862959  78.8869809  51.4515421
  44.0411938  78.3853363  52.8052065  16.7093217  49.6813011  28.9811945
  16.8256688  49.6535587  28.0314970  16.4192486  50.5756044  29.1609406
   7.5778791   5.2321678  50.0292397   7.5535795   4.3412452  49.6801043
   8.2070133   5.1901107  50.7494164  67.9794598  49.1262197  36.4467382
  68.0084515  48.3059120  35.9543061  67.1456671  49.5253611  36.1983204
  57.0553493  62.2252083  40.6783056  57.9265738  62.2387171  41.0745525
  57.1640158  61.7109442  39.8783302   6.6856929  22.6593071  27.6359558
   6.7690345  21.9199997  27.0337009   7.0389911  23.4047561  27.1504354
  14.1069338   1.7284542  18.4953368  14.6643087   2.4370628  18.8169396
  13.5514900   1.5031200  19.2416215  14.4169876   9.5467621  21.6298652
  13.6000606   9.6073204  22.1250391  14.6659347  10.4564434  21.4663363
  45.1422548  62.7476406   2.8233606  45.2354145  63.6527348   2.5261077
  46.0312414  62.4789953   3.0552354  36.9180250  53.3798504  27.7905631
  37.4718881  52.7202368  28.2081461  36.1754966  52.8848028  27.4444246
   7.1210453  11.7043262  14.1321695   7.3203251  12.6376300  14.0582764
   6.4080545  11.5616375  13.5096598  81.3353398  13.8628250   3.0430219
  81.8425896  14.6318489   3.3028692  81.9518235  13.3265358   2.5444540
  64.9658134  13.5422855   6.3163918  65.3616741  14.4002777   6.1634892
  64.1122082  13.7377887   6.7028719  63.2711938  15.8893734   4.3476731
  63.5274246  15.5308777   3.4979343  64.0969971  16.0051017   4.8176610
  23.5797762  41.5632273   0.2241352  24.3611502  41.5411307  -0.3283188
  23.1779265  40.7026507   0.1051739  31.4423415  44.4426660  69.0838286
  31.0848138  43.7648706  69.6574121  30.6869743  44.7611264  68.5896212
  20.6037331  74.0585661  27.4303627  21.3126206  74.5310783  26.9939685
  20.6892800  74.2974377  28.3533216  36.5916869   5.4601818   0.4401246
  37.3956725   4.9454361   0.5099297  36.6155550   6.0454994   1.1971323
  59.0585279  57.5517368   4.9565119  58.2740641  57.0577335   4.7181606
  59.2381048  57.2943497   5.8607990  69.4170478   4.9814373  29.9752903
  69.3285468   5.5030876  29.1776156  69.4071009   4.0741306  29.6704626
  18.3495447  17.3914390  18.6606133  18.8153335  17.3378807  19.4951224
  17.4323198  17.5134044  18.9056718  82.8839400  47.6879078  25.6319785
  83.4476378  47.6396804  24.8598695  82.1149781  48.1757026  25.3370380
  31.1565042  72.2891808  27.9547143  31.3472795  72.5402689  28.8584781
  31.9878221  72.4027252  27.4940109  22.4751565  31.0493449  45.2031967
  23.0248973  30.3776530  45.6067440  21.6374061  30.9800653  45.6610224
  60.8337763   2.6052242  47.2802639  61.4050224   2.6328712  48.0478239
  59.9510172   2.7116638  47.6347256  43.8203907  52.1095848   5.6008995
  44.7170591  51.8634367   5.3736848  43.5239840  52.6423883   4.8629993
  61.6369772  76.7551661  20.9468579  60.6909418  76.6143131  20.9844685
  62.0040131  75.8815384  20.8116102  77.3232889  62.4468946  34.6996784
  77.8357220  63.1392860  35.1170969  77.9143238  61.6944361  34.6730018
  85.1130346  69.5624856  51.1362466  84.3479303  68.9998368  51.0168025
  84.7475961  70.4292802  51.3133630  13.2004806  17.1018749  37.5060225
  12.8388473  17.7798801  38.0767775  13.0154869  17.4114662  36.6193628
  17.0654118  75.5143261  10.4206121  17.7779424  75.0829458  10.8922529
  16.4544010  74.8078299  10.2114165  76.6790787  52.6311330  63.4503069
  77.1410397  51.8122415  63.2707706  76.0661867  52.4115113  64.1519901
  64.5026663  20.7684475  35.4093385  65.0104001  19.9775940  35.2277040
  64.6942261  20.9710174  36.3250351  29.4779489  29.7737149  61.5780654
  30.4058263  29.9841193  61.4731678  29.4267461  29.3326692  62.4260572
  32.5680184  61.1821127  11.8219709  32.6922750  61.4440012  10.9097171
  33.0648041  61.8266344  12.3259795  72.9933026  10.1698070   3.3539295
  72.4688771  10.1129490   4.1526634  72.3504212  10.2709156   2.6519972
  30.7385564  70.7922411   4.7206768  30.5490351  70.5306339   5.6217182
  29.8785973  70.8666229   4.3069521   7.2678444  16.2610775   2.2989616
   7.6393625  17.0035320   2.7753749   7.1075746  15.6002193   2.9726183
  82.6666454  12.2958259  47.8800580  83.0147246  12.2882728  48.7716958
  82.8081134  11.4048270  47.5601575  80.9678295  31.2485580  57.6110169
  81.4607504  31.7349700  58.2718238  80.0694278  31.5666322  57.7000984
  59.6672490   2.6622348  10.2506649  60.1622656   2.1927028  10.9220266
  59.8665407   3.5851913  10.4077327   7.5857279  31.9795636  65.4906669
   7.4771568  32.9300098  65.5237216   6.6940543  31.6348247  65.5386934
  43.1229925  35.3957415   8.7417239  44.0390158  35.4121590   8.4644848
  43.1472540  35.6509805   9.6639478  61.5751791  80.6395531  32.7363873
  61.6880846  81.0056400  33.6135793  61.3370371  79.7248411  32.8874326
  40.2328157  13.1717479  12.5286674  40.3939629  12.3126507  12.1385205
  39.6281958  12.9976070  13.2500160  81.9205907  26.4095741   9.3476754
  81.3541701  26.2859207   8.5860264  81.3153079  26.5399986  10.0776434
  35.0160909  73.1109428  24.7722578  34.9649525  73.9965630  25.1318312
  35.2003098  73.2404423  23.8419199  44.2051411  78.4437418  11.4387643
  43.5667992  79.1548967  11.4936209  43.6794662  77.6629114  11.2649798
   7.3041579  29.3818359  67.5967875   6.4751789  29.0325622  67.9239447
   7.6548764  28.6855869  67.0413890   9.3790123  42.2741275  50.6887960
   9.4187090  42.0626121  51.6214895   8.4556505  42.4668079  50.5259895
  79.7878790  51.0830307  12.7488542  80.3652763  50.4020977  13.0940700
  79.1828823  51.2705469  13.4665239  72.9267931  77.9200029  47.3848248
  72.1515226  77.4200535  47.1294022  73.6496067  77.4922943  46.9256544
  60.9242821  66.0389471  27.1487021  61.2113142  66.1281681  26.2399220
  61.7106247  65.7684994  27.6227856  14.5774505  40.5455140  68.3709004
  14.5479486  40.8263044  67.4562859  15.3087899  41.0344915  68.7480917
  27.4871020   7.5901275   0.9200650  28.1571932   7.6322132   1.6022956
  26.7925670   8.1711345   1.2303554  22.9802463  32.2827462  55.8799133
  22.3572728  31.6341523  55.5521020  23.5210607  31.8006114  56.5054521
  72.7390853  12.5564126  48.6981365  72.1366599  13.0951242  48.1851956
  73.6004952  12.7348832  48.3208391  78.5903788  63.3837557  30.8142424
  78.8897943  64.1265011  31.3385677  79.3485308  63.1463957  30.2802944
  72.2840455  42.4278312  34.9835253  73.0882457  42.7836853  35.3614974
  72.5651982  42.0160823  34.1664290  70.2391818   0.4058891  48.3905411
  70.3896144  -0.5394120  48.3912945  69.8121789   0.5811363  49.2291069
  41.6112992  28.3106927  64.4426277  40.8862159  28.7057141  63.9584306
  41.1916301  27.8525047  65.1707593  60.1197577  48.3372641  28.2101297
  59.5221901  48.6359692  27.5246215  60.9563017  48.7497997  27.9951048
  12.1831295   9.4539028   9.8053896  12.6674101   9.5125824  10.6289554
  12.7801820   9.8151069   9.1501904  61.8403247  20.2920967  39.6696973
  62.2587517  20.0888210  38.8331389  60.9077742  20.1431614  39.5135021
  47.7811241  64.8938131  51.3090611  48.4222889  65.2979708  50.7244205
  47.6130581  64.0343237  50.9227228  82.3278227  56.4346504  26.4168763
  81.9106865  57.2376966  26.1048746  82.9723856  56.2217712  25.7420039
  43.4172678  64.0374994  15.6115723  43.1507730  64.3157482  14.7353363
  44.0483999  63.3344221  15.4580021  45.4991770  65.7213974   7.2384578
  46.2006569  66.3062954   6.9520205  44.6931171  66.1880398   7.0176834
  38.6206770  60.1693869  13.0872333  38.6935425  59.2403316  13.3058298
  39.2822981  60.5961370  13.6316359  73.3993581   2.2063308  29.1813064
  74.0056851   2.8015953  29.6220565  73.9296439   1.7791324  28.5086060
  50.8895969  62.4134636  24.3654466  50.6832600  61.8124676  25.0813103
  51.6435719  62.0165634  23.9293027  85.5565789  19.3428856  39.3544006
  85.7140019  19.2916828  40.2971792  85.0794700  20.1641422  39.2354918
  31.7768288  77.8817987  11.4734006  32.7332973  77.8634310  11.5060019
  31.5523767  77.3368359  10.7191658  23.9449069  16.7040376  57.5124428
  24.1110656  15.7620410  57.5480685  23.1441924  16.8254737  58.0226764
  55.9949541  61.2989092  28.5632205  55.6143570  60.6374550  29.1410232
  55.2651310  61.5861130  28.0144906  58.4853649  49.8948193  26.1812925
  58.6200428  50.8424902  26.1783838  58.2093239  49.6893883  25.2880788
  42.7868557  40.1573229   2.8657642  43.2196999  39.9038029   3.6809993
  43.1623793  41.0111094   2.6506746  62.2410753  26.2402683  17.9561508
  62.2710493  26.2420135  18.9128792  61.3614109  26.5520435  17.7435112
  38.4479165  69.9067020  54.3422794  37.6111269  70.3386593  54.5138216
  38.2150245  69.1216230  53.8466501  30.7453275  36.0842204   1.7200731
  31.0138726  35.7330275   2.5690597  31.5247536  36.0039282   1.1702754
  70.8581689  10.0860744  27.7589011  71.2594369   9.2684990  28.0534840
  71.0748484  10.7193809  28.4431529   3.7244937   3.2603244  66.5066633
   2.9295156   3.3166103  67.0368248   3.8214919   2.3267678  66.3187864
  39.6029687  53.5341597   4.8594227  40.3789091  53.6574221   5.4061890
  39.1590381  52.7767611   5.2408719  60.3080463  30.8639979  14.1353166
  59.5150709  30.9630871  14.6621978  60.6606293  31.7510366  14.0640152
  39.2676163  64.3604183  15.5665326  38.9036059  64.5479774  14.7013450
  38.5169816  64.0692282  16.0842073  37.5333047  73.1432438   6.2119812
  37.2789240  72.2431755   6.4154470  37.0846462  73.3388042   5.3893661
  40.0961685  73.5271645  29.2018795  39.3532515  73.5571146  28.5990429
  40.2021408  72.5978756  29.4054174  80.8795166  70.3257465   6.8291163
  81.4111996  70.7000113   7.5315893  81.5158558  70.0370979   6.1749107
  67.1324301  42.4450207  26.4766335  67.7223444  42.9170942  27.0643234
  67.7061987  41.8636703  25.9775782   6.8279621  50.1831083  54.9906501
   6.3570783  50.1738576  55.8239648   6.8471071  51.1057786  54.7365960
  22.2582933  20.5114608  11.2986970  21.6774484  20.9756714  10.6959116
  21.6995069  19.8516422  11.7093444  82.6481107  18.8597923   9.7660065
  83.2874348  18.1926590  10.0158691  82.9862931  19.6701961  10.1469326
  19.5599759  57.1459579  11.1888456  19.7241223  57.8616190  10.5747473
  20.1828408  56.4649153  10.9349835  12.4291822  25.5109554   3.2854968
  11.5987894  25.1882034   2.9354882  13.0777237  24.8710971   2.9918969
  33.7275958  28.0935502   8.0562162  34.4844341  28.5772967   7.7254283
  33.1176233  28.0697846   7.3189253  46.9497797   6.0703235  36.5874577
  47.3910925   6.7049556  37.1519995  46.5172025   5.4698520  37.1945381
  75.3090575  25.2078586   4.2186508  76.0192349  25.7083469   4.6203926
  75.5408957  24.2929226   4.3779612  75.8683255  16.7422348   0.7961871
  76.0789683  15.8103614   0.7372238  76.7186168  17.1815067   0.7795645
  54.2836332  43.7839842   8.8549632  53.3730841  43.8046741   9.1494328
  54.3905449  44.5903111   8.3503443  48.4662342  69.2609978  11.4584529
  49.1187906  69.7914267  11.0012317  48.8841677  69.0296078  12.2879231
  59.3521214  62.3780775  41.8647194  59.3509769  62.9497719  42.6324415
  60.2783489  62.2046328  41.6966343  79.4292072  34.7944383  69.7657320
  79.8384932  33.9320401  69.6950871  78.6950591  34.7621040  69.1523677
  57.2003269  57.1879816  35.3176641  56.8661118  56.7490530  36.0998869
  57.9491234  57.6961231  35.6296420  24.9691698   5.8946186  38.8194537
  24.7043630   5.3401523  38.0855083  24.8887083   6.7881733  38.4858108
  63.2013226  49.5178795  58.4286165  62.2877216  49.2325687  58.4158945
  63.2337761  50.1870155  59.1123104   6.4696953  46.7828422  33.3983064
   6.2221500  47.7050930  33.3319092   7.4249002  46.7861992  33.3366370
   7.6312587  41.6548661  63.7820348   7.5013253  42.4913911  64.2287782
   7.5449249  41.8640928  62.8519782  11.2091133  19.3999344  38.4522510
  10.6870147  18.9065223  39.0848589  10.6691763  19.4229847  37.6622081
  61.7195892  78.2625103  18.2795954  61.2158871  78.1544495  19.0863395
  61.3490391  79.0435791  17.8686762  20.9507129  27.6716403  65.6131366
  21.1785409  27.2324113  64.7937456  20.0063274  27.8157548  65.5530992
   1.2649938   3.2073360  10.5823636   2.0693371   2.6991230  10.4775178
   1.2936041   3.8499694   9.8735392  69.9405622  60.6530094  19.4497705
  69.8324633  61.5455818  19.7781920  70.6964827  60.7029867  18.8646913
  45.4605314  10.2974373  22.5516820  45.7040617  10.2122074  23.4734535
  45.9557745   9.6086174  22.1084237  35.3994298  67.3163414  50.7446718
  36.1207891  67.0627594  50.1688480  34.8693156  67.9128027  50.2160454
  85.2833798  12.4206024  29.7931528  86.1496165  12.6843029  30.1035142
  84.6827748  13.0448108  30.2004242   4.5556900  11.0266548   1.5321347
   4.9868938  11.8792873   1.5897310   4.1565344  10.9014755   2.3930863
  64.1374925   7.6095539  29.8078370  64.5311144   8.3227020  30.3105426
  63.8731745   6.9686847  30.4678869  78.1448272  33.4853130   2.0530184
  77.5076535  33.5698372   2.7623081  78.9448550  33.1849628   2.4842724
  11.9095346  18.1843048  52.6414967  12.0775291  18.9776950  53.1499624
  10.9565469  18.1503254  52.5584888  83.8003018   5.0812774  23.4413481
  83.9373830   5.5831009  22.6378489  84.2224076   5.6025367  24.1242433
  55.2301502  76.6576290   9.5000857  55.3015089  75.7124805   9.6336329
  56.1074352  76.9281435   9.2291147  49.1118813  66.2159395  17.0658290
  48.4029818  66.5280533  16.5034389  49.7980404  66.8772030  16.9755578
  22.9249093  27.9843549  60.1945099  23.4210298  28.1722430  60.9912530
  23.2801339  27.1523456  59.8817751  85.2891972  12.7863460  23.8672757
  85.0945475  13.4343200  23.1901741  84.8087361  12.0043140  23.5955954
  62.8584459  14.4248825  30.5282474  63.2470777  14.8749977  31.2783098
  63.3416679  13.6008983  30.4666924  53.7947366  29.8086385  56.8777987
  54.3294236  30.5961923  56.7772898  53.4857080  29.6144132  55.9929225
  42.9459906  79.7973776  35.4607844  43.8841629  79.9863911  35.4425812
  42.5422144  80.6162739  35.7481956  65.5387020  69.5799828  47.9220629
  66.0705757  70.3221655  47.6348162  65.4850340  69.6774960  48.8727713
  78.5775998   4.3023449  33.4472561  79.2079785   4.5124488  34.1362476
  78.0922892   5.1159626  33.3104205   0.4357547  66.1392260  16.2680459
   1.3632602  66.1426115  16.5046132   0.3070659  66.9594717  15.7917440
   7.1689889  21.4828662  49.5017001   6.2830779  21.6418056  49.1759202
   7.0645449  20.7858829  50.1494166  34.1999194  20.0119619  43.9974090
  33.6510513  20.7657699  43.7811968  33.5810849  19.3376188  44.2776582
  80.9858706  17.7372127  17.3650420  80.9748748  18.6495071  17.0755291
  80.0735905  17.4545818  17.3009694  53.5734203  22.1496444  12.5100768
  52.9879859  21.4109092  12.6767051  54.3714693  21.7496353  12.1646237
  54.4497612   7.1217304  49.9914885  53.8192180   6.4611107  49.7047329
  53.9220980   7.9052120  50.1463032  77.2766209  68.2904577  48.3042431
  78.2312727  68.2218790  48.2911777  77.1049500  69.2289162  48.3820486
  37.0200062  67.5449085   6.4565164  36.7034173  68.1664324   5.8009923
  37.1407199  66.7276335   5.9730685  79.3071795  74.1298866  21.3989925
  78.4892035  73.8746548  20.9723783  79.7242069  74.7280693  20.7789159
  14.5015308   4.7328907  54.5850325  14.3478367   4.3480926  55.4478979
  15.4227659   4.9924236  54.5991611  77.3688510  14.7649818  24.7691345
  76.8661311  13.9898544  25.0194645  77.7298453  15.0926548  25.5928731
  76.3600397  57.2370291  26.8502402  75.9937906  57.9891443  27.3154521
  75.7426834  56.5257978  27.0212626  17.3807830  73.1898165  46.7416430
  16.4517516  73.3977461  46.6420841  17.4410456  72.2572660  46.5344048
   5.3729266  57.4106789  32.6073766   4.6306533  56.8847609  32.3096085
   4.9889773  58.0468702  33.2107687   6.4837164   2.1498768  36.6580820
   6.9321895   1.3557191  36.9486284   6.9915169   2.4494407  35.9040046
  21.4051003  77.2162841  54.0285453  22.2078133  76.6986679  54.0914604
  21.5085155  77.9000233  54.6903893  43.2728672  46.3400269   1.7691724
  43.1479454  45.5878210   2.3478037  43.5725498  47.0406437   2.3484437
  23.0448675  42.3743963  12.7644753  22.3019767  42.7125025  13.2645035
  23.7838006  42.4229383  13.3709872  50.0525022  62.8508209  67.4775401
  50.6001997  62.0689534  67.4072510  50.4788161  63.3822297  68.1499188
   2.4361322  74.1727514  31.6898251   2.6661751  74.7200281  32.4406910
   2.9848239  74.5007128  30.9773564  74.3667841  16.3583648   5.4466927
  74.9351645  16.9242620   4.9242613  74.7084141  15.4760718   5.3015047
  33.5823298  23.0043173  10.8405054  32.7668381  23.4413528  11.0858762
  34.0266085  23.6299872  10.2683306  33.0533171  26.3959551   3.9875722
  33.9496326  26.4079356   4.3232897  32.5173354  26.6870499   4.7252828
  82.6789072  11.6585330  54.0542850  81.7618731  11.4566974  54.2401275
  82.6617578  12.0821265  53.1960842  25.5628252  29.2443061   8.7763661
  26.3440561  29.1492844   9.3212336  25.0797915  29.9684787   9.1744697
  81.7695326  13.0436242  10.7015896  81.3939211  12.1700215  10.5922031
  82.1833134  13.0201113  11.5644133  41.7251301   3.9263445  39.6280003
  40.8434916   4.1847014  39.3592954  42.2950935   4.6020034  39.2607665
  38.5820246  34.3922758   2.2927077  38.1951809  35.2612686   2.1857746
  39.2503071  34.3418455   1.6092686  66.6127658  60.4963563  55.5507931
  66.3614822  61.3545941  55.2094468  65.8292437  60.1781689  55.9992132
  44.4127607  39.2414546   9.6149457  44.8060942  39.5421720   8.7957442
  44.8455095  38.4071517   9.7963262  22.9801488  18.5026062  26.7399311
  23.7703204  18.2880938  26.2441015  22.6755643  19.3268371  26.3603234
  33.4553027  48.7555647   3.4813058  33.7256074  48.7927628   2.5638187
  33.7781239  47.9096985   3.7919986  25.7697749   7.7375865  19.9126339
  26.5563154   8.2820231  19.9468863  25.5077171   7.6375043  20.8278060
   3.2097664  35.0237608   1.6476683   2.6799053  35.5238271   2.2684847
   3.9204913  34.6615553   2.1767326  15.5617535  61.2054825  19.1788149
  15.4070616  60.6588268  19.9491847  16.3052630  61.7571211  19.4219601
  77.3140219  77.3722602  18.3504617  77.2795823  77.1506879  19.2810273
  78.0526903  77.9763681  18.2752728  38.3628178  67.7946711  28.4871435
  38.7233710  68.4618044  29.0712357  37.6224804  67.4279356  28.9705086
  31.9271803  29.7327757  38.1778455  32.7411079  29.2983294  38.4328151
  31.7697930  29.4390059  37.2805381  19.3705010  49.3453455  29.3814540
  18.4440267  49.1199160  29.4654799  19.5297015  49.3562651  28.4376478
  73.2277730  18.3449439  68.1574060  73.1848839  17.5415258  67.6388407
  72.3898521  18.7788324  67.9965876  53.5756498  14.3765366  24.8560643
  54.3020183  14.5428181  24.2552543  52.8454691  14.1324282  24.2873120
  63.3314610  40.5334711   3.9747992  62.4996662  40.1031733   4.1727686
  63.8101816  39.8967195   3.4441385  85.5664784  39.1695213   1.8845376
  85.5493189  39.4269037   2.8063253  84.9962141  39.8026419   1.4484292
  28.6371946  27.3863602   6.9645351  27.7215719  27.2144508   6.7447299
  28.9634800  26.5517950   7.3010886  77.0537258  52.5102340  70.0789416
  77.4709058  52.4983095  69.2175185  77.7724624  52.3689030  70.6951189
  64.8917833  38.3801727  63.4975520  65.8345846  38.4777192  63.6311290
  64.7490201  38.6514501  62.5907668  48.8487720  33.6106634  13.9802110
  49.4424295  33.9506984  14.6496701  48.2108831  33.0897260  14.4680142
  76.5458706  76.5667970  14.0827394  75.7139150  76.8473277  13.7014472
  77.1207407  77.3263190  13.9884913  47.2639608  63.9409351  20.9007502
  47.4842548  63.2099152  20.3234196  46.3493252  63.7903643  21.1395073
  44.0213346  42.1211767   1.5009747  44.9241781  42.4340868   1.4444885
  43.5850573  42.5104904   0.7431289  15.7131860  66.9538087   8.3221537
  15.5060718  67.7492565   7.8316420  15.9086129  66.3015968   7.6493549
  21.8555737  26.6336799  17.2289371  21.2347865  27.2370791  17.6373029
  22.2952628  27.1587014  16.5601635  44.8162365  35.1297212  13.9446437
  44.9230528  34.7692204  14.8249054  43.9674950  35.5716658  13.9681804
  16.9229972  49.4066620   6.2140310  16.8471706  48.9235497   5.3911799
  16.1354351  49.1702557   6.7040217  32.9340482   0.9273116  17.0440698
  32.0026278   0.9283955  17.2647285  33.1906748   1.8486124  17.0838070
   9.9889672  31.5934443  39.3546820  10.3313935  31.4418006  40.2355766
  10.1456285  30.7703662  38.8918328  37.8458571  25.0933194  22.9142928
  38.4791875  25.8110213  22.9193211  38.1606817  24.5008492  22.2315788
  71.3205719  42.9823494  24.9488258  72.0038795  42.4751329  25.3870678
  71.7961740  43.5557795  24.3478155  40.1820946  46.6573095  17.0791495
  39.8524857  45.8423376  16.7004645  41.1276340  46.5246964  17.1469605
  26.9269037  33.5940456  16.9462049  26.3723063  33.3050060  17.6708496
  27.7560830  33.1353569  17.0814705  31.1800790  54.3975639  28.7386823
  30.5991626  53.6428452  28.8344574  30.9883189  54.7380495  27.8648806
   5.5816120  77.1894549  50.4871067   6.2585730  77.8458046  50.6519243
   5.1702208  77.0502709  51.3401112  30.5334708   3.9694719  48.5955903
  30.3863952   4.1140250  49.5303103  29.7118518   4.2318515  48.1804606
  56.5640163  51.0443211   7.2348750  57.3122835  51.0536385   6.6380161
  56.9329119  51.2833023   8.0851907  36.3962123  22.7216558  68.6692364
  37.2117135  22.2227172  68.6218782  36.1146257  22.6344661  69.5799173
  79.8995185  79.0264820  67.1493888  80.0896240  78.3055876  67.7497235
  80.7594181  79.3229817  66.8512371  16.4110816  39.6789813  28.2048082
  15.5860543  40.0639439  27.9092264  16.4670837  39.9145198  29.1308832
  84.9212507   3.1716613  40.6677911  85.7451800   2.7722148  40.3888437
  84.7669676   3.8709335  40.0326177   3.6770529  24.0317844  64.5099500
   3.9621586  23.2804178  65.0299427   3.8177389  24.7862111  65.0820324
  56.6892004  65.4327917  24.4685006  57.1353626  65.2684402  23.6377430
  56.5700150  66.3822365  24.4926286  79.1429663  21.8066168  26.8195319
  78.2787609  21.5706682  27.1567369  79.0568638  21.7350435  25.8689022
  61.6010380  63.9578770  57.8301701  60.8326126  64.0850566  57.2737715
  62.0981980  63.2640265  57.3970005  47.3376799  32.3944283  16.0839868
  47.6872301  33.2441235  16.3524330  48.0987692  31.8139887  16.0761571
  55.4349304  34.8437350  68.8792055  54.6460605  34.3927096  69.1800219
  55.9228635  35.0331377  69.6806288  33.7489247  49.6160173  28.5637474
  33.7675190  48.9231825  27.9035449  34.3911266  49.3407345  29.2179847
  22.1906090  19.0030658  17.1631968  22.8103185  18.8563335  16.4485919
  21.7162251  18.1754827  17.2425628  77.1306205  56.0602151  51.2746593
  78.0231643  56.3333307  51.4868018  77.0668483  55.1668535  51.6123995
   5.7729170  10.8414964  48.7635824   5.5653450  11.7683295  48.8824412
   5.0010130  10.3793506  49.0904137   3.4193990  61.1808872  31.3788819
   3.3441365  62.0767021  31.7076445   2.5211161  60.8502579  31.3767982
  15.9440849   9.9477081  68.9848509  16.3060329   9.2960862  69.5853634
  16.5777776  10.6649570  68.9994214  54.5911694  15.2093148  21.7169523
  55.2923584  15.4281890  21.1032248  54.9938297  14.5961654  22.3318839
  48.7881184  72.1365595   2.0026869  48.2708502  71.7879248   2.7287167
  48.9344931  73.0543089   2.2318965  26.5236211  33.2315421  33.6027646
  26.9906163  34.0668607  33.5829616  27.1969032  32.5857544  33.8169646
  20.8653784  36.5731430   4.2852944  20.8075356  36.9935536   5.1432806
  20.7295418  35.6427884   4.4648010  67.8379918  52.6995586  60.3534278
  67.1679688  53.0068801  59.7428104  68.0982852  51.8438135  60.0125751
  56.2756681  21.4385200  28.4901285  55.5226135  21.9524598  28.1985641
  56.0575676  21.1810303  29.3858743  43.3339739  39.3403435  16.5526378
  44.0174627  39.7249055  16.0038316  43.4940624  38.3976269  16.5091789
  15.2059982  19.0419130  62.7671072  14.5302198  19.1770248  62.1028039
  15.1625631  19.8251037  63.3157000  11.2461686  20.9877682  44.5984554
  10.7581151  20.2649474  44.2040348  12.1044183  20.9560752  44.1758013
  50.3391123  45.9172487   8.8600796  49.5631409  46.1095715   8.3336645
  50.4091597  46.6575480   9.4628072  14.4292080  33.2536101  21.3583469
  14.7614729  32.3573875  21.3072014  14.9344742  33.6564398  22.0645070
  17.4724958  11.6769056  64.9029240  18.1329724  12.0889215  65.4599163
  17.2048041  12.3682002  64.2973813  63.4161833  10.6521301  64.3521348
  63.9496127  11.4445857  64.2912730  63.2670400  10.5352811  65.2903959
  70.1732683  30.3905201   7.1857172  69.4873142  30.8520865   7.6680666
  70.5453491  29.7808456   7.8229636  25.6633375  25.3690627  66.4348596
  24.8289392  25.0841263  66.8074506  26.3241313  25.0229814  67.0347017
  58.0477524  23.3886385  56.1756563  57.1736813  23.5100269  56.5464497
  58.2740831  22.4829984  56.3873672   4.8529151  41.2119865   8.5370821
   4.2270696  41.5391827   9.1832185   4.5593691  41.5883255   7.7073640
  36.3304663  74.1596889   8.7367207  35.4575276  74.0869427   8.3508176
  36.9164205  73.7933207   8.0744028  37.5909710  40.4023838   6.5594602
  37.0920444  40.1201391   7.3260385  38.4056878  39.9021220   6.6064560
  45.2773714  20.8124971   6.9782382  45.1915169  20.2601504   6.2012082
  45.5790234  20.2163696   7.6637089  15.9960997  64.6843863  11.9513476
  16.9418776  64.6493673  12.0945656  15.7610369  65.5957460  12.1257019
  83.6199157  65.7242060  10.5473137  84.1312291  65.0750637  10.0641954
  84.2492147  66.1285639  11.1445642  62.5186205  78.0098294  53.3197150
  61.9644905  77.8367399  54.0807757  62.4551869  78.9557169  53.1874177
  31.1154008  51.0514879  19.8196101  31.6521358  51.0628319  19.0271330
  31.7282081  51.2528133  20.5268359  15.6309599  80.5015348  60.2912161
  16.1517281  79.8897384  59.7708902  16.0675234  80.5236362  61.1427763
  30.6268120  32.4701476  15.1671028  30.0685453  32.6706386  15.9183514
  30.5426669  33.2334542  14.5956898  16.8444884  28.2554102  15.3971446
  16.4910114  27.3839164  15.5754244  17.3037565  28.4967518  16.2015438
  64.9896780  70.2294106  33.1070113  64.5508549  71.0777093  33.1707001
  65.7323596  70.2982981  33.7069345  57.2933388  15.4889607   7.8820038
  56.6716623  14.9809301   8.4032077  56.7988729  16.2598968   7.6038045
  20.5657005  38.1399655  10.7969630  21.2052107  37.6529813  10.2772462
  20.8528399  38.0215526  11.7023695  11.6344735   7.4672250  24.9748155
  11.0923693   8.1035546  25.4411194  12.5334499   7.7119044  25.1943752
  54.5851660  32.1456575  19.9180794  55.0782156  32.1848536  19.0985668
  53.8505554  32.7446032  19.7845078  45.3177023  63.9835835   9.4110030
  45.4886198  64.6149683   8.7121636  45.6547403  63.1542206   9.0721858
  43.7966347  31.3977742   6.5282911  44.1469908  30.8262706   7.2115666
  44.1437244  32.2644234   6.7396671  59.7340200  69.2050309  13.5882187
  59.1524789  69.9649793  13.6111271  60.6149766  69.5783359  13.5603237
  18.8411689  38.2589555  29.2234492  18.8285077  37.3157811  29.0606833
  18.1045294  38.5995078  28.7158895  34.4289327  73.4666441  44.0802786
  35.2962393  73.1947111  43.7801716  33.8414544  72.7769683  43.7713310
  52.4137354   1.3553044   6.6889727  51.9734526   1.6171004   5.8803654
  53.3133984   1.1671311   6.4217120  39.4891524  58.3831310   0.6486872
  40.0627279  59.0876293   0.3471442  39.5606017  57.7099037  -0.0279865
  33.3808351  28.3986592  25.4755187  33.0993247  29.1272116  24.9221683
  34.0106440  27.9188061  24.9376392  28.0367684  44.8495293  14.0082788
  28.9241481  45.2042246  13.9536881  27.9442811  44.3133497  13.2207584
  70.9078193  76.2003778  46.2019607  70.4572988  75.8332394  46.9625327
  71.2412858  75.4374407  45.7297775   9.3129582  56.8040274  60.3121939
   8.7116856  56.4427577  59.6608981  10.0875801  57.0558129  59.8094079
  68.2084751  30.0485921  13.4308934  67.5458384  30.0986385  14.1198373
  68.6379099  30.9038639  13.4490287  46.6839358   0.2626018  45.4382560
  46.3435981   0.0158004  46.2981936  47.6126668   0.4380731  45.5895778
  20.5301664  60.0603456  17.6214874  20.4839942  59.2350740  17.1387601
  19.6435020  60.4173965  17.5708151  25.4443789  30.8636975  25.3005934
  25.4981589  29.9146295  25.4129004  26.1930394  31.0820031  24.7455430
  31.1143062  12.0855169  68.1796908  30.9103248  11.5163593  68.9217737
  30.8499667  12.9591111  68.4681077  53.0562973   3.8085580  46.3288307
  53.4116840   4.6044293  45.9331989  52.3586130   4.1189492  46.9059992
  55.4984260  74.8792027  69.2957274  54.9690629  75.3354071  69.9498572
  55.2574325  73.9579295  69.3927318  13.4416959   7.1365051  54.1934976
  13.8630626   6.2970714  54.3779883  14.1498277   7.6943282  53.8716015
  44.0620613  29.6058965  17.5744307  43.6176491  30.0890160  18.2710826
  43.3697557  29.0894508  17.1618462  35.9331716  71.5166901  56.8285558
  36.0998965  72.1124052  57.5590071  36.2806559  71.9737218  56.0626516
  56.6938400  59.3522072  22.7892447  56.6927433  58.6224556  23.4086728
  57.0519733  58.9812899  21.9827771  68.3268547  35.9438992  20.6220460
  67.8644896  35.1132083  20.5106592  68.0481339  36.2597728  21.4815640
  47.4190950  24.2776728  14.6359289  46.6871548  24.6397138  14.1365111
  47.0286608  23.5786128  15.1604354  69.1523004  55.1015912  60.7401189
  70.0301099  55.0687026  61.1203852  68.7711597  54.2473482  60.9431717
  58.5627794  20.4019403  30.2669215  59.4526720  20.1317000  30.0404501
  58.3251905  19.8460150  31.0090351  58.1581116  54.0843439   0.3292056
  58.0497599  53.1522369   0.1403506  58.9358139  54.1271639   0.8856045
  48.8253307  15.0861585  27.6662636  49.7456217  15.2558184  27.8675389
  48.8308048  14.7817826  26.7587638  84.8186517  52.3334776  43.9361617
  84.7183300  52.0003961  44.8279163  84.8669458  53.2838594  44.0394851
  33.3392954   8.7430668  18.2694578  33.0888510   8.5626006  17.3633993
  32.5100136   8.7673056  18.7468827  27.9311273  71.4440883   4.4458815
  27.7187822  72.3108549   4.7920874  27.0830485  71.0115046   4.3465343
  62.3105714   1.4267854  62.8986743  62.0937565   1.0398750  63.7469211
  63.0941537   0.9563998  62.6141271  19.1550481  74.6728849  12.6657343
  19.8314416  74.7136879  13.3417952  18.4890568  74.0886688  13.0282044
   9.6022076  72.1531509  69.2547095  10.5460686  72.2980999  69.3206610
   9.5190853  71.3375853  68.7605698  42.9241133  20.5888033   0.5055066
  42.7492714  19.6583235   0.3645438  42.2146749  21.0381007   0.0460915
  27.7349210  50.6622839  30.4107904  27.8349614  49.7151041  30.5060577
  26.8653703  50.7738352  30.0265145  53.5257578  31.9098568   6.3366681
  54.1723061  31.5960503   6.9689113  53.6326694  31.3345337   5.5791694
  43.7719393  32.1679878  46.0257578  44.1491556  31.6903067  46.7645168
  43.0549097  32.6735878  46.4084721  37.8881168  10.1268137  31.7073393
  38.4518647  10.7781327  32.1247172  37.1743178  10.6374657  31.3252974
  48.9905405  24.2581820  30.5490279  48.4629250  23.8310885  31.2238955
  48.5187817  25.0675893  30.3527308   6.2121577  76.9719862  43.8817498
   6.2603516  77.7645515  43.3471963   5.6468386  77.2122310  44.6158692
  29.8423243  53.4571314  19.3342185  29.9492621  52.5111055  19.4333303
  29.1393685  53.6838007  19.9430764  22.7767920  29.9818563  27.3700309
  21.9001698  29.6825218  27.6112056  22.6961899  30.9336209  27.3077369
  13.2852399  40.2573776   8.7309802  14.0537965  40.5540943   8.2436281
  13.2734120  40.8048534   9.5160687  53.4138704  74.6218370  31.5804598
  53.9928532  73.9046191  31.8385455  52.5769306  74.1977047  31.3910505
  51.1425925  76.8886708  61.9210872  50.4295421  77.4810289  62.1596280
  50.9663749  76.6566943  61.0092947  70.9260702  42.7508926  10.6789601
  70.3859282  42.3873043   9.9773324  71.4895868  43.3889341  10.2412581
  34.3100333  46.7845964   9.0400279  34.0286565  47.3849869   8.3496761
  33.5479140  46.7051983   9.6137011  73.2181383  65.9351133  31.9612405
  73.4282804  66.7261098  31.4648577  73.6931730  66.0366581  32.7860209
  29.1548204  20.4336905  11.1725044  28.5644746  21.1659360  11.3500977
  29.6122956  20.2885604  12.0006859  10.8831286  69.0840530  45.9995461
  11.5248251  69.5025063  46.5734434  10.0970328  69.0012693  46.5393925
   3.6477977  39.1345191   1.7185572   4.0737757  38.2951236   1.8923166
   4.2720419  39.7892141   2.0314837  68.5809422  80.7685112  60.8941480
  68.5690928  81.5902780  61.3848540  68.7718893  80.0996302  61.5516981
  44.6343649  68.1682108  47.5768158  43.9871622  68.3116172  48.2673189
  45.4256535  67.8978036  48.0426213  70.1757812  37.3884392  27.5377345
  70.5219126  36.4964676  27.5662446  70.7970238  37.8690553  26.9906545
  19.5716500  55.8034849  26.4214158  19.7502697  56.6759634  26.7722821
  19.7024524  55.8935404  25.4774809   6.5313095  75.2897690  53.7419543
   6.2091727  74.6903800  53.0687579   6.0760111  75.0208281  54.5398316
  51.8498516  27.7236462  16.3358486  51.2803984  28.1934237  15.7265341
  51.2787485  27.4941897  17.0689392  36.1913705  30.0810480  17.7317166
  36.3457298  30.5780602  16.9283581  37.0564413  30.0004482  18.1334472
  39.2814279  32.1851206  17.0453656  38.5702300  31.8894458  17.6137006
  39.8944211  31.4501882  17.0267105   5.4156637  25.7388902  20.7929444
   6.0264206  26.4666915  20.9091854   4.7270423  26.0917616  20.2294588
  74.0485144  27.3152113  24.7932410  74.8428297  27.8457379  24.7312880
  73.4320831  27.7360153  24.1939330  42.9171181  24.5841312   5.4130584
  43.5333157  25.2453446   5.0978982  42.5867510  24.1662264   4.6177942
  38.5101628  42.9993868   6.7317879  37.9861498  43.1499958   7.5185263
  38.4251356  42.0609570   6.5633982  64.9100971  32.0124984   8.3419800
  64.0935802  31.6210365   8.0316854  65.3255510  32.3579025   7.5518364
  67.9412961  43.5363113  51.2471041  68.3435083  42.6703961  51.3152859
  67.6190591  43.5805105  50.3468594  10.6900823  65.1099014  23.4259701
  11.0090196  65.9989500  23.2707119  11.0249984  64.6027374  22.6864791
  11.0632765  30.2699947  13.9585483  10.5541360  30.1890922  13.1520355
  11.8774796  29.8010302  13.7758577   4.3342271  17.8115964  16.9341075
   4.0373424  17.0316386  17.4028909   5.1674563  17.5520527  16.5409172
  62.4195409  75.4363631  64.1893986  62.9904795  75.5404662  64.9505970
  61.9510341  74.6175693  64.3516013  12.8624532  15.4834632  51.7779669
  13.7338540  15.4005603  51.3906440  12.7124736  16.4273862  51.8304154
  77.0123888  71.9948982  61.9185969  77.8270221  71.7444347  61.4828524
  76.5948511  72.6068114  61.3124147  45.1786804  35.2568221   3.6164907
  44.8694754  34.3536615   3.5463035  44.4250441  35.7885671   3.3605361
   9.4425866   0.1735238  68.1877243   9.3493817  -0.0674077  67.2660437
   9.6630118   1.1048440  68.1707223  29.8720860  22.5608444  18.5250676
  29.5755625  22.2208405  19.3692851  30.5861855  23.1590223  18.7452340
  72.1903229  41.7549944  15.5626547  72.4922228  40.9115887  15.2253711
  72.1470881  42.3198843  14.7911239   4.1840431  13.2565526  57.4682411
   3.6500761  13.8625268  56.9545218   3.6224410  12.4921064  57.5965318
  14.2950514   6.3128429   8.8770539  14.8139921   5.6705719   8.3928818
  13.5650804   6.5198856   8.2935238  14.4428802  57.7995825  25.5113363
  15.2553606  57.8125381  26.0172415  14.2035830  56.8738794  25.4661822
  64.2102257   1.1697463  69.9806573  64.6815899   1.9181613  70.3466111
  64.0051547   1.4314727  69.0830623  28.5320330  51.8002272   8.1479514
  28.1325412  52.0164728   8.9904922  27.9923034  52.2569418   7.5027108
  55.8561802  51.4609909  17.3538089  56.3046074  50.6289196  17.2027981
  55.7366371  51.4998817  18.3027184  30.3269267   9.1007042  17.5349605
  30.3567147   8.2409573  17.9546988  29.3932962   9.2966056  17.4562824
  23.5943887  75.5956674  14.2562962  23.8448140  76.4988191  14.4508076
  23.8727805  75.0989241  15.0256956  53.3142758  73.7472318  63.0611619
  54.2694998  73.7090944  63.0129167  53.0274272  73.7289833  62.1481362
  26.4871001  38.1890106  19.1079354  26.9161010  38.5972047  19.8599768
  27.1793342  37.6824570  18.6831462  45.8198071  29.1492939   6.6548324
  45.6796932  29.5202637   7.5260276  46.5798378  29.6204042   6.3133061
  50.6488276  25.0439572  27.9437828  50.9361124  24.4477224  28.6353064
  49.9525309  25.5617094  28.3479309  31.8019772  15.3990638   0.6618553
  30.8970928  15.6813788   0.5287635  32.2219896  16.1395371   1.0994878
  28.7932825  39.7447729   7.6399153  28.2089782  40.4134083   7.9973328
  28.3602500  39.4521451   6.8379903  45.6586838  42.8300047  10.4276323
  45.8483505  42.2209549  11.1412954  46.0012817  43.6702299  10.7323956
  30.1049087  16.1016683  64.6451345  29.8248908  16.7149953  63.9656827
  30.9805867  16.3999824  64.8909536  30.1418519  37.3112440  22.1776772
  30.2805853  36.6273618  22.8328800  30.6871891  37.0471668  21.4366627
  26.2044668  67.3030806   7.6549923  26.1878061  66.4567518   8.1018454
  26.8149328  67.1783018   6.9283617  47.8995037  19.6581876  22.7733350
  47.6317501  19.5064235  21.8669653  47.4018955  19.0169036  23.2806563
   9.7917981  53.3622025  63.1261584  10.4094166  52.6950167  63.4255645
  10.0083060  53.4918939  62.2028294  19.3662736  18.8441161  58.0693957
  18.5940978  19.3086843  58.3921203  19.6682737  19.3680362  57.3274121
  66.8328858  54.3711613  68.9241609  66.7905379  54.9423574  69.6910860
  66.8729902  53.4861384  69.2865939  73.5833240  65.2904032  65.7863372
  73.4968448  66.0173057  65.1695990  74.3166233  65.5395292  66.3488701
  29.0713024  51.0288000  15.9351242  29.1711974  51.1981964  16.8719041
  29.7117853  50.3430319  15.7460964  80.3095463  78.4747224  15.6368148
  79.5105079  78.5078130  15.1108181  81.0121873  78.3555952  14.9978030
  33.9747643  38.6929512   6.3394701  34.4591475  38.9825940   7.1125883
  33.0736279  38.9710379   6.5033364  52.4959565  68.8865636  66.9496447
  51.9761992  68.5055016  66.2419185  52.2741747  69.8176025  66.9351593
  17.4752903  30.8348703  52.2832966  16.6680157  30.6974888  52.7789402
  17.3280978  30.3789282  51.4546299  40.2489281  40.6987762  16.7760575
  39.8869824  41.0571623  17.5864816  40.9720516  40.1410007  17.0627832
   2.9266450  16.6171531  52.1160337   2.1043369  17.0994071  52.2024748
   2.8209517  16.1052684  51.3141391  58.9372540  58.8976966  45.3997061
  59.0661836  59.8451840  45.4430410  58.2424355  58.7212657  46.0339996
  81.0180143   7.8653506  42.5719973  80.1894978   7.7494792  42.1068451
  81.0001329   7.2021035  43.2619354  22.0603395  40.5412292   7.2134995
  22.1888518  41.0069180   8.0398470  22.9166293  40.5699921   6.7866832
  81.8381360   0.6395415  66.0512638  82.0443395   0.6154994  66.9856799
  82.1625999  -0.1949759  65.7128382   5.5114055  30.0304294   6.5007365
   4.6057206  29.7371411   6.4009964   6.0133749  29.2233729   6.6143876
  50.2599168  51.8241011  67.1584856  49.7847629  51.0542594  67.4712202
  50.4855299  52.3059069  67.9542211  22.7933764  59.1001034   8.7431961
  23.1029201  60.0003862   8.8427478  21.9685411  59.0754175   9.2282408
  14.0714929  65.4120035  24.4894505  14.6358964  66.1080522  24.8259020
  13.1848285  65.6913466  24.7175312  42.8543234   8.4245163  21.0257125
  43.6226177   8.3618271  21.5931892  42.6991987   9.3647540  20.9355998
  12.9267118  32.9481153  44.3804309  13.6951158  33.4789209  44.5902678
  13.2848689  32.0958738  44.1321489  49.2080212   6.7384124   9.7004342
  49.4744539   6.4512128  10.5737960  49.8598766   6.3556814   9.1132122
  40.8889148  15.4711274  48.5838029  41.6388414  15.0640229  48.1500885
  41.2690828  15.9498910  49.3203470  15.8490605  77.7738546  39.4814393
  16.2843651  78.0554150  38.6767861  15.9487290  78.5145758  40.0794646
  30.2470779  80.1683140  53.7045240  30.7166457  79.4020271  53.3750677
  29.6346045  80.3932953  53.0041742  65.7983923  61.0987805  59.3043134
  66.1172820  61.1029075  60.2068230  65.3663016  61.9463991  59.1990849
  40.3662539  22.7581072   1.2232845  39.9033618  23.1035161   0.4599658
  40.2064800  21.8148017   1.1936650  30.5751204  55.3533363  23.3493710
  30.5488515  54.5987034  22.7610993  29.9486995  55.9718943  22.9735804
  43.1723070  19.3811011  22.6588941  43.9539957  19.5029962  23.1977272
  43.2828760  19.9961960  21.9338679  45.5377436  25.9943151   7.5224841
  46.3287544  26.5239906   7.6223868  45.8112049  25.2556944   6.9785273
  42.9695034  24.1313171  21.0957670  42.6883650  24.5571280  20.2859044
  43.9143372  24.2809176  21.1295199   6.8021983  14.9134541  20.4655409
   6.4330310  14.0763021  20.7468224   7.7426452  14.7492445  20.3960609
  12.9244802  23.9936570  55.8508429  12.9628989  24.9394778  55.9929117
  12.1073672  23.8564471  55.3715393  15.9195802  23.5503844  49.4428608
  16.2635467  22.7946929  49.9191496  16.1927030  23.4069709  48.5367319
  62.9887297   4.7595363   2.6321387  63.7361958   5.1978450   3.0388567
  62.7668956   5.3109985   1.8818617  35.0207734  65.1038408  18.1338370
  35.8740091  64.9589920  17.7248871  35.0119305  66.0373402  18.3453536
  45.7437849  31.3827443   0.0463507  46.0155487  32.3001909   0.0722161
  46.4353752  30.9148002   0.5142862  24.9499440  60.0088310   4.4153973
  25.1017404  60.1491404   3.4807831  25.8196688  60.0677347   4.8107955
  50.3334093  75.9416199  25.6582975  51.2323332  76.0664558  25.9625745
  50.3043795  75.0312042  25.3641248  22.4116513   7.6550702  56.8991491
  22.2627256   7.5301723  57.8364083  21.6209600   7.3115997  56.4831325
  50.7856989  51.9183064  12.5511992  51.2671089  51.3206196  11.9791472
  50.9485579  51.5875864  13.4345639  37.2619960  15.7379369  69.5320233
  37.5097081  16.4120511  70.1648274  38.0202720  15.6630544  68.9526759
  32.1845958  29.1356448  62.1799067  31.6920039  28.5481624  62.7530166
  32.0523498  28.7796287  61.3012734  41.2781572  60.6969929  25.9377337
  40.4047346  61.0843658  25.9952641  41.8385649  61.4131260  25.6388593
  80.5625534  34.7756863   0.0466748  81.2491989  35.3347945  -0.3168416
  80.3066063  35.2092576   0.8607639  62.4116516  50.9942818  29.8225260
  62.6540232  50.5406141  29.0152645  63.2182550  51.0141420  30.3375340
  10.9944141  40.2689886  21.5611386  11.1969352  39.4370770  21.1331892
  11.6473186  40.8795738  21.2188888  57.4715805  66.0931158   2.9890373
  57.5849724  66.9940186   2.6861367  56.5794706  65.8634806   2.7289620
  52.6855275  18.8688401  63.5309359  52.7931974  19.6094732  62.9341939
  53.0496308  19.1754655  64.3613824  21.9823813  61.3478994  24.0657020
  21.2618375  60.8910418  23.6317325  22.7535772  60.8135557  23.8760591
  38.8249347   3.7189941  58.5709724  38.9148423   3.1623964  57.7974424
  39.0838668   3.1573705  59.3015668  59.0307928  58.6036085  32.3807570
  59.3164969  59.2602442  33.0159208  59.4387627  58.8729833  31.5578172
  68.2188132   0.9489494   1.8487987  68.3491805   1.6794735   1.2441801
  68.8577178   0.2920871   1.5720935  47.4923611  32.6983738  11.1492836
  48.3315277  32.9859591  11.5089035  47.4575758  31.7614603  11.3421869
  72.9623845  13.1433753  61.0726049  72.4906877  12.5936774  60.4468533
  72.7815524  14.0392999  60.7882610  25.3259391  65.1175737   9.1383368
  24.4248790  65.3601313   8.9250588  25.3845042  64.1897058   8.9106083
  84.9087549  63.8336133  51.8992838  85.6830431  64.0896009  52.4004647
  84.3045974  64.5692657  51.9994709  71.4654589  69.6096134  56.4506578
  71.2329292  69.0031910  55.7475138  72.4223471  69.6320438  56.4409256
  22.8177879  30.8319406  62.4892554  23.4016320  30.0793246  62.3948029
  21.9902131  30.4567842  62.7902701  60.9613132  52.8611517   8.0218583
  61.4434719  53.0307770   7.2125465  60.1119232  53.2814360   7.8871894
  64.3785453  51.5829252  53.2892856  65.1194644  51.8698536  53.8230857
  64.2345739  50.6728922  53.5487935  37.4221611  41.5359163   3.9538217
  37.2528148  42.3685026   4.3946719  37.4842572  40.8971500   4.6640024
   9.5476670  75.9567522  59.6665177  10.2360911  76.3223313  59.1109475
  10.0137848  75.4008173  60.2909383  12.1636200  35.3501987  16.9179976
  11.3355494  34.8728180  16.8666184  12.5948358  34.9986219  17.6968932
  37.5162837  22.9932193  51.8045530  38.4592483  23.1575565  51.8109092
  37.1216485  23.8642244  51.7616376  52.6240063  39.7522020   8.7581962
  51.9453096  40.3379583   9.0935969  53.2974815  40.3385448   8.4134352
  36.0778758  20.6210546  64.1069874  35.7440040  20.0689630  64.8140618
  36.6252658  20.0353889  63.5839268  30.3563211  41.0601739  67.6244612
  31.0716340  40.6413392  67.1457845  30.2426335  41.9068555  67.1926775
  80.4121494  62.4929905   3.7088796  79.9947786  61.9782114   4.3995556
  79.7151709  62.6481390   3.0713981  66.3958263  41.6800928  14.1051614
  66.2449455  41.0950518  13.3627391  65.6936646  42.3279524  14.0461397
  69.0253162  49.1308689  27.7295589  68.7631845  49.3449497  26.8341899
  68.7752390  48.2134771  27.8394794  26.2616727  22.7702312  49.5617482
  25.6183860  22.0922355  49.7684762  27.0822951  22.2926978  49.4401929
  23.8736055  42.5259999  63.8408938  24.6583459  43.0147580  64.0889355
  23.9197108  41.7210702  64.3568399   6.1836955  11.1512307  56.1360547
   5.4025743  10.6592063  55.8830866   5.8734820  11.7695216  56.7976555
  26.2503409  27.6975012   1.6768199  26.4023256  27.7117729   2.6217687
  25.9861517  28.5923719   1.4631799   4.2533034  73.5763121  13.7696195
   3.6788482  74.1828918  14.2368376   3.8679046  73.5060787  12.8962541
  80.9723523  24.3173695   4.9900943  81.3555074  24.3355799   4.1131151
  81.5855601  23.7964606   5.5086118  46.4796731  26.2610559  69.4453740
  45.8048579  25.9768371  68.8288717  47.2533128  25.7509355  69.2056050
  12.9601020  53.0425358   6.7911303  12.5919360  53.6471891   7.4353945
  13.8309211  52.8335142   7.1290886  34.6864080  67.3361111  27.0563602
  34.4415617  66.9626093  27.9029870  34.7647047  68.2755041  27.2226357
  26.4122054  17.4266271  66.3445747  25.7234475  18.0854539  66.2563485
  26.4640042  17.2587995  67.2855228  37.9071188  58.2026196  22.5397921
  38.4349680  57.7039051  21.9161820  37.7174211  57.5818634  23.2432914
  36.5868783  80.6687927  21.6569042  36.7408156  80.5362701  22.5923038
  37.4255347  80.9820843  21.3181806  22.5444794  39.4137263  15.8647144
  22.5788450  38.6785460  16.4767253  22.2390175  40.1511288  16.3930738
  66.9582727  12.5864273  21.0806608  66.5487554  13.4514862  21.0660672
  67.3110059  12.5033336  21.9666100  57.5833607  47.5190449  11.8549371
  57.7253437  46.5808058  11.7293262  57.9607630  47.9249859  11.0745430
  56.3671017  42.2778225  17.4064386  57.0967865  42.7650547  17.0238185
  56.6605854  41.3667250  17.4051273  43.3286810  53.3110046  24.1785097
  43.2008553  54.2147446  24.4668579  42.5994396  52.8295326  24.5691776
  69.2880297  45.8235693   1.1129583  69.4134998  46.0044050   2.0445088
  70.1732683  45.6934690   0.7728729  59.0573790   5.5423885   1.2804995
  59.0860417   6.4713340   1.0514489  59.1971186   5.5247265   2.2272798
  52.8751371  36.5590696  65.3575063  53.4811780  37.1403102  64.8980495
  52.7225969  35.8394984  64.7449866  29.0424585  49.3878937  20.5341625
  28.6046743  50.0797224  21.0300946  29.9175620  49.7347164  20.3605533
  48.9441962  61.0956191  27.9932281  48.1594366  61.3900350  27.5309488
  49.4230360  61.9009398  28.1891844  44.5643902  54.4731903   6.9376647
  45.2136421  54.4390869   7.6401889  44.3336630  53.5576725   6.7801183
  14.4471643  24.4295291  67.0447898  14.7506807  23.9292125  67.8022794
  13.6344812  24.8406724  67.3393196  33.5287499  20.9314179  31.7854285
  32.8759623  20.5109739  32.3451829  33.2568192  20.7123685  30.8941936
  41.6146800  24.9585847  65.4414865  40.9978673  25.6358651  65.1638955
  41.8987605  24.5447520  64.6264562  12.8696630  19.5512704  65.3002343
  12.5742671  20.2659730  65.8642998  12.9820535  19.9558334  64.4400427
  16.5001390   3.1973676  62.4311808  16.2588498   4.0693645  62.7436533
  15.6828448   2.8282336  62.0965037  55.6037760  47.0592594   3.7617755
  56.0356474  47.6942492   4.3331796  56.1288548  47.0612764   2.9614505
  35.4719543  56.4197826   8.6934948  36.2398672  55.8749962   8.8659745
  35.4668045  56.5324068   7.7429575  21.7562244  11.6441898  47.8643629
  21.4371440  11.7848853  46.9729468  21.9081971  10.7006673  47.9182359
  11.2951773  71.2127638   7.5024343  10.3896254  71.5088940   7.4101329
  11.2979621  70.6987810   8.3099258  51.0625648  68.3129406  17.4520195
  51.9574833  68.3238173  17.7914834  50.6134939  69.0043259  17.9383850
  21.6233873  47.8192854   7.9517990  22.3858142  47.6043558   8.4891456
  20.9422183  48.0494165   8.5836869  46.0710669  65.1097918   1.9844724
  46.1989212  65.3458548   1.0656914  46.5707922  65.7647705   2.4718238
  46.5005350  65.4391241  14.8808610  46.9212866  64.5865393  14.9917710
  45.7710838  65.2704525  14.2844665  65.4101419  48.3310413  33.2378101
  64.8637009  48.0619478  32.4994159  66.2628746  47.9332352  33.0622101
  66.3904667  66.3084459  34.2143536  66.4249277  66.4752531  33.2724309
  66.7529726  65.4282951  34.3151450  79.3101072  61.0308027   5.7097369
  79.1135550  60.0961304   5.6466001  78.8674736  61.3151550   6.5093958
  70.2961159  41.8534851  21.9702697  69.8662233  41.8387175  21.1151648
  69.6946192  41.3848114  22.5488687  21.4785857  77.5454114  51.0772309
  22.3677153  77.1994637  50.9997460  21.3884062  77.7688573  52.0036063
  38.6275411  70.2802658  13.0943286  38.0898929  69.4883585  13.0875707
  39.4929647  69.9846220  12.8117251  49.5329285  33.8250995   1.5830590
  48.8963223  34.3120933   2.1063204  49.0274096  33.1113219   1.1942064
  64.1139460  71.7055416   9.7382045  64.1268873  72.6591539   9.8199600
  63.3859396  71.5260220   9.1432130  54.6957684  72.4484777  11.9817650
  55.4031324  72.9898310  11.6313291  53.9455271  72.6412868  11.4194548
  42.7436543  36.3175559   3.3715218  42.6571512  36.8558288   2.5847480
  41.9557476  35.7740474   3.3776993  40.0731421  74.9582052  35.2773499
  39.5397925  75.1812220  36.0402632  40.9759331  75.0259733  35.5881691
  45.7447577  81.2793732   6.0547364  46.3860655  81.2558079   5.3445244
  45.5121088  80.3619766   6.1979020  46.5127945  71.5771580  23.7447596
  47.1601820  72.1042538  24.2130518  46.8947649  71.4437819  22.8772688
  26.2470579  56.9038248  25.8445215  26.7750263  57.5852299  25.4283810
  26.0661268  57.2429371  26.7211628  18.6010671  29.2735863  17.3573589
  18.3876824  28.5497093  17.9461718  19.5539474  29.2405748  17.2727346
  70.3835487  49.7044611  37.5621796  69.6041679  49.3314219  37.1503139
  70.5213308  49.1687059  38.3433414  62.2791433  41.8306828  19.6935916
  63.1170559  41.4422464  19.4420910  61.6484928  41.4603281  19.0760541
  31.7014596   4.5921973  68.3343975  32.5438163   4.2903785  68.6743522
  31.6189334   5.4884509  68.6602117  79.0555954  59.3143559   0.9969918
  79.6536064  60.0307560   0.7839631  79.5495129  58.7623072   1.6032270
  38.6050081  18.3443213  16.7663276  38.8850713  19.0972817  16.2458980
  38.7237048  18.6232376  17.6742637  68.2821751  37.7358961   3.9092398
  68.9810276  37.6554513   3.2601178  67.7879238  36.9198704   3.8314405
   2.0183104  29.1419625  12.3413086   1.8429774  28.4679747  11.6846275
   1.3870353  28.9664555  13.0391097  29.9402165  50.7634163  32.6706719
  30.6463552  50.4163694  32.1255493  29.3027806  51.1087656  32.0456576
  71.0793853  64.3251108  66.0566500  71.0719228  63.9244984  65.1873478
  71.9937253  64.5694040  66.1999494  34.9353814  35.1000333  20.0780034
  35.7571530  34.7013116  20.3642607  34.4563270  34.3858743  19.6576250
   9.6664351  77.2121525  33.8007069  10.6114787  77.2681379  33.9421034
   9.5199221  76.3101959  33.5156894  28.5556025  74.9603962  60.3150770
  29.1386313  75.4908846  60.8581099  28.8687319  75.0990604  59.4212350
  43.2607698  45.7223845   9.8174906  44.0877008  45.9325838  10.2513492
  42.6551437  46.4016056  10.1143241  11.3419337  65.3112291  65.4206991
  11.2524361  65.3373550  64.4680509  12.0522732  65.9238242  65.6114200
  75.3424120  45.7559395   7.6857275  74.5098829  46.2112474   7.5599420
  75.1424026  45.0594854   8.3111709  54.8908901  72.6481104  26.5772557
  54.5509434  73.4293985  27.0134473  55.2002048  72.9633760  25.7280421
  58.2997227  49.0655708   9.1729379  57.8908491  49.8670101   9.4996613
  59.2243385  49.2920399   9.0728152  54.5125532  52.5916958   6.8836725
  53.8724995  52.4067211   6.1963964  55.1982784  51.9363594   6.7550188
  38.1829214  66.8194532   2.2106327  37.8824210  65.9108019   2.2275706
  38.9008999  66.8461084   2.8431100   9.0705687  47.9977846  17.0755339
   8.8172328  48.9094496  16.9309163  10.0061095  48.0377626  17.2740221
   5.3496811  16.3642911  58.2211158   5.6124231  15.9394292  57.4046060
   4.7329566  17.0441512  57.9496834  11.6070411   8.7237720  62.4491313
  10.7176873   8.7337665  62.8029475  11.8241689   9.6471528  62.3208520
  65.7793284  67.3727511  67.1669111  65.5297733  66.4943455  67.4538907
  64.9721957  67.7480434  66.8148813  13.2909245  49.5100455  63.0025712
  14.1974158  49.7839503  62.8629938  12.8372950  50.3098659  63.2685366
  26.2093637  24.5307235  57.4095842  25.9410236  25.0692157  56.6651079
  27.1638105  24.6016530  57.4248144  46.5289831  55.0037003  17.7172935
  46.1875057  55.5062008  16.9776201  46.4166641  55.5818415  18.4718597
  25.0331876  32.8805331  65.1277724  24.3500039  33.0761699  64.4865093
  25.8420417  32.8572683  64.6164569   6.5276143  10.2447681  63.4854731
   6.8215534  11.0862712  63.1366131   5.6086466  10.3873185  63.7122056
  35.1369524  35.5311632  16.3853037  35.0127172  34.6877766  15.9499943
  36.0457897  35.5143094  16.6852415  11.9385574   1.5962295  55.4981813
  12.7845332   1.1921434  55.3051159  11.9788596   1.8016938  56.4321992
  56.0669374  61.8090868  23.8145185  56.5747929  61.6256189  24.6048689
  56.0368967  60.9729004  23.3496356  35.7723737  47.1669436  14.0032339
  35.5200624  47.7205276  13.2642400  36.3203335  47.7310181  14.5489347
  42.2050285  48.0321503  13.9982986  41.9400072  48.6953211  14.6356344
  41.3967085  47.5637388  13.7898600  47.7278519  56.1717606  24.6025038
  46.8961859  56.5447617  24.3102169  48.3603430  56.8818903  24.4934249
  58.1087303  38.9542222  10.9671307  58.9002419  38.6101770  10.5531526
  57.7463245  39.5622134  10.3227401  62.2953221   1.5225724  58.2592377
  61.7976186   2.2220210  57.8357980  62.0688817   0.7345990  57.7652129
  37.4017522  25.4285554  61.7164883  36.6776511  26.0533122  61.6766533
  36.9787213  24.5794181  61.8439391  36.7639062  31.2354974  44.2829105
  36.6224095  32.1676759  44.1178223  37.4056098  30.9702758  43.6240408
  74.9571637  36.5864209  67.7105454  74.7811786  36.8910722  68.6007413
  74.6031836  37.2747878  67.1474472  69.9981499  51.1557198  16.3555181
  70.4506779  50.3646135  16.0629451  69.1157007  51.0745525  15.9936893
  36.1848760  75.3671408   0.1509999  36.0193777  76.3088989   0.1950343
  35.3343511  74.9658918   0.3294352  75.5877963   1.4641742  65.3177679
  74.8074141   1.9167356  65.6378052  76.0881916   2.1418647  64.8632654
  39.4994044  50.4608440  20.2778888  40.1909304  49.8450994  20.5205393
  39.5107794  50.4687786  19.3207884  26.0204387  78.0122423   7.5691634
  26.0116911  77.6039314   6.7034626  25.1694965  78.4450531   7.6384538
  65.2639184   9.1195420  68.6115645  65.5409029   8.2207040  68.7893398
  64.9027398   9.4276981  69.4427225  60.3242970  62.5944519  36.3762569
  59.4444704  62.3016357  36.1387944  60.2021313  63.4908152  36.6890526
  21.8977258  27.9200963  49.5767757  22.7119062  28.3872203  49.3893310
  21.6730592  27.4898366  48.7517711  72.0505142  50.2895355  20.2206731
  71.7655277  51.0461569  20.7330585  71.4323044  50.2477598  19.4910812
  31.3316011  74.4036150  21.6244364  30.5200076  74.8704386  21.8235040
  31.0468054  73.5259581  21.3698030  57.8609464   6.4482812  64.9633792
  57.2329232   6.4967040  64.2426321  58.4598634   7.1787624  64.8086795
  34.1438532  64.8798609   3.5090816  34.1032243  64.8011827   2.5559863
  34.9822164  64.4836712   3.7465930  62.4467278  40.0054121  29.9836731
  62.6944876  39.8760319  30.8991551  62.8134632  40.8594036  29.7546864
  55.2982569   9.2961121  13.8587260  54.3961525   8.9792645  13.8134313
  55.2403927  10.1137638  14.3530226  10.0210500  55.6582022   5.8207113
   9.3915689  55.9265804   5.1514149  10.5112600  54.9429131   5.4153812
  28.8365269  68.7245369  25.1464581  29.5312905  68.6767578  24.4897604
  29.2975378  68.8690376  25.9727883  53.4674454  49.2374086  17.0977259
  53.9682150  50.0414610  17.2354198  53.8514853  48.8475847  16.3123715
  10.7573030  28.4769706  69.8835860  10.3520820  27.6744107  69.5550680
  11.2315414  28.2019881  70.6682609  61.9203424  41.8760014  22.3804522
  62.1322298  41.5487051  21.5062594  61.1488438  41.3742208  22.6435781
  85.8053375  75.8983348  20.0415108  85.5242181  75.1743625  20.6010315
  85.0159860  76.1517166  19.5630237  82.2100925  70.2415419  22.5242805
  81.5365601  69.9771214  21.8976521  82.6483440  69.4249296  22.7636838
  53.6666155  39.9673271  15.0269878  53.4712124  39.1241980  15.4358637
  54.1128063  39.7402048  14.2111707  43.7561512  50.3028774   8.0067247
  44.2482185  49.6001244   7.5821757  44.3214798  51.0714531   7.9297543
   3.5796279  52.1073246  14.4103932   2.9147261  52.7371883  14.1321731
   3.4266108  51.3389158  13.8605177  29.0898323  73.2690287  31.8357253
  28.3733416  73.7471676  32.2531700  29.6859813  73.9516926  31.5278172
  35.8993146  33.6197356  65.6659508  36.8507383  33.7186221  65.7013044
  35.5595920  34.4681815  65.9504959  86.0652376  79.6026515  43.7217233
  86.2776447  79.8342632  44.6258637  85.2018428  79.1929625  43.7759396
  30.1437900  17.7529411  43.9118668  31.0777232  17.7828626  43.7042424
  30.0685451  17.0709686  44.5793125  33.5136411   0.1823930  64.9765941
  33.9341685   0.0263910  65.8222014  34.1673133  -0.0859614  64.3308911
  71.7715574  76.6696070  65.0690517  71.8804956  76.4740728  64.1383895
  72.1171165  75.8980416  65.5179474  10.2409312   8.4094695  65.2743491
   9.2885253   8.4406976  65.3647926  10.5131528   9.3270234  65.2892804
   7.0158446  62.6967764  18.1537998   6.3220280  62.7574110  17.4971616
   6.5729529  62.3820353  18.9418471  36.0454130  32.9927874   5.2303690
  36.6261077  32.7261519   4.5176768  35.8122230  33.8977981   5.0234640
   0.0447172  73.6604999  42.2184679   0.7704062  73.0411290  42.1411249
  -0.0746208  74.0015195  41.3320729  73.9290190  41.5625811  11.5294826
  73.1884766  42.0937777  11.8221641  74.6774673  41.9052315  12.0179999
  79.6173814  43.7911729  16.3345358  79.3597320  44.7086362  16.4245436
  80.4492381  43.8212613  15.8619425  25.8133695  16.1682109  68.9857218
  26.7375896  15.9519891  69.1094031  25.5485341  16.5698652  69.8132301
  25.4810047  61.0079336   1.6999769  25.5605721  61.5341902   0.9043922
  25.3951573  60.1083088   1.3844816  58.3722425  43.2194115  39.1849658
  58.7960291  42.7060785  38.4971258  57.5999594  42.7072229  39.4247028
  61.6756821  61.4210606  38.6551833  61.7860317  62.3513365  38.8517618
  61.6644049  61.3780069  37.6990199  68.2334471  27.1407199   4.3416166
  67.6957703  26.4749122   3.9128578  68.9130259  26.6432858   4.7965515
  35.7459161  10.7984428  61.1905292  36.5326020  11.1024455  60.7378271
  35.6077716   9.9105624  60.8606586  85.8825874  27.0155454   7.3937792
  86.4682674  27.7602100   7.5304985  85.0040436  27.3950076   7.4136066
  70.4166988  35.1720456  38.1153628  69.8330978  35.7567290  38.5988781
  70.5006722  34.4004659  38.6755869  56.6799498  56.9164753  24.7617388
  56.0545588  56.4991188  24.1693449  56.6511869  56.3822603  25.5554771
  20.7064840   0.6789547  34.5612550  20.0330183   0.2780586  35.1107621
  20.9322330   1.4917236  35.0136781  43.9717150  20.7979178  20.5542541
  44.4612980  20.2144647  19.9744928  44.5481396  21.5520930  20.6774807
  37.4310398  49.2857790  23.4838295  38.1393123  48.6420107  23.4959102
  36.8050027  48.9653206  24.1331482  64.1097665  76.6363572  66.3655478
  64.0595031  76.6923593  67.3197851  63.9930034  77.5380229  66.0662249
  15.3833148  27.0328979  68.8923812  14.5752666  27.0832280  69.4030206
  15.2598045  27.6663951  68.1855193  55.1398230  58.3603907   3.3859214
  54.4891548  58.0836821   2.7407128  55.5123377  59.1631985   3.0212799
   1.8595764  10.6608752  41.8220732   1.6619656  11.4957504  42.2465321
   2.6711247  10.8229093  41.3410661  15.1633704  51.2325621  37.7863431
  16.0350382  51.0497046  38.1370401  14.5868695  51.2025547  38.5498714
  29.2005775  31.6942815  68.0402626  28.9262149  32.6113061  68.0450815
  30.1466367  31.7280702  67.8986266  59.6366835  44.9760199  19.9982727
  60.5843115  45.1062059  19.9624038  59.4907188  44.5032549  20.8176756
  63.9404011  63.7428284  24.1671348  63.4987164  62.9734039  23.8077736
  63.2333088  64.3619967  24.3484807  68.1235245   2.5396972  15.0700617
  68.0398395   1.6408306  15.3882849  68.2526520   2.4485069  14.1260052
  40.3312206  72.2895718   6.5718013  39.6005607  72.9027319   6.6518432
  40.3044462  72.0029306   5.6589204  49.7832632  73.2146978  39.5806885
  49.4838858  73.1307554  38.6753941  49.7387981  74.1535950  39.7615814
  40.3106070  44.4116688  23.7970757  41.1773682  44.3887901  23.3915663
  39.8527956  43.6571598  23.4264541   3.3497161  39.7498727  20.0683022
   2.4241275  39.9170280  20.2459693   3.3757800  39.5060802  19.1430366
  11.2899703  56.7531395  34.4448519  11.6034526  57.0325279  35.3050256
  10.3959388  56.4497709  34.6026874  28.2049966  42.6126671  12.0228171
  28.3934665  41.7975473  12.4878871  27.2812319  42.5429010  11.7819345
  10.9641287  11.1678653  12.3854816  10.5646536  11.3423973  13.2376480
  10.2513382  11.2872368  11.7578590  10.5551359  35.1694040  65.9132150
  11.0593507  34.3567638  65.8730259   9.7830913  34.9467687  66.4334217
   0.4639620  75.6390427  56.4207753  -0.1941591  76.3245271  56.5357312
   0.1425547  75.1196002  55.6838152  79.1920042  57.0359135  29.5125628
  78.7599564  56.2868214  29.1021585  78.7261009  57.1574354  30.3398466
  10.4843378  40.4877424  24.1102171  10.8776200  41.3524580  23.9926505
  10.7253706  40.0054598  23.3193064   2.6456544  48.8026075  39.5655081
   2.1964023  47.9630784  39.6634599   3.4164235  48.7288980  40.1282784
  77.1945381  70.0614977  24.5757914  76.3443708  70.4126644  24.3109822
  76.9819164  69.2906427  25.1019192  70.2096272  51.2721252   7.8914219
  70.7091808  51.5813017   8.6471254  70.2586460  51.9911480   7.2614747
  71.9341755  79.1252279   9.6497864  72.7446985  78.7155199   9.3474221
  72.2103596  79.7109699  10.3546715  65.4579544  30.7865477  43.0024433
  64.6313334  30.3171921  42.8900433  65.1997519  31.6996622  43.1280804
  73.4746599  75.3831673  17.6648951  72.6252127  75.7000494  17.3578775
  74.1035509  76.0239077  17.3329604  37.3708606  72.7145052  12.9875219
  37.6758623  71.8075275  13.0121040  37.7067566  73.1021404  13.7956941
  71.9072748  79.4862388  69.6792553  72.3995901  78.6765383  69.8143188
  71.4516712  79.6307014  70.5085845  16.0938680  27.6301026   6.7472154
  16.2392604  27.9028535   7.6531398  15.8633995  26.7032003   6.8102020
  47.7643108  43.1904316   5.3855789  47.9838133  43.0446577   6.3057971
  47.0154476  43.7861395   5.4094362  29.1497562  23.5216121  65.3270766
  28.6881492  24.1425399  65.8906397  29.9842164  23.9486341  65.1332825
  57.8481531  40.1253605  19.4617450  58.6106205  40.3348112  18.9222980
  57.2074699  39.7726274  18.8442218   9.8529905  62.5466537  28.4789133
  10.5295968  63.2235527  28.4945393   9.7909415  62.2912312  27.5585103
  66.6272593  78.9177418  33.7500525  66.9112825  79.7497797  33.3715367
  65.7359028  78.7974930  33.4225655  43.1510544  43.4434128  11.4020979
  44.0146923  43.2493830  11.0377932  42.8387785  44.1912842  10.8927858
  21.2086532  22.0601682  63.5263774  21.2855765  22.8726129  64.0266225
  20.7665631  21.4538936  64.1207060  72.4744797  30.2768493  37.6119971
  72.1397448  31.0413885  37.1433115  72.0615816  29.5302081  37.1780872
  70.7344103  52.4889326  33.9595389  69.7857666  52.3616791  33.9490342
  70.8490229  53.4206915  34.1463923  58.4121227  76.9351625   2.9317617
  58.5769749  76.4358854   2.1319003  59.2815208  77.1996260   3.2324925
  84.4661382  16.8774372  10.9683704  83.8966039  16.5139156  10.2903497
  84.5832923  16.1609893  11.5922296  40.2698180  21.2400369  57.7051446
  40.5469176  21.8205861  58.4139523  39.9469564  21.8304090  57.0243713
  62.5028419  79.3981409   6.8536252  61.6997910  78.8823557   6.9264710
  62.6074553  79.5470333   5.9138799  39.9586034  75.3053856   7.0952761
  40.3421116  75.0619030   6.2527406  39.1148591  75.6973124   6.8700606
  63.9589622   1.5918403  24.8865032  63.6364796   1.2121158  25.7038426
  63.7308505   2.5194984  24.9469781  26.1918158  66.1788796  63.8537684
  26.6838068  66.9448899  63.5581359  25.2804751  66.3845085  63.6454019
  72.1891356  60.8321810  32.5785589  72.3386288  59.9700785  32.9667044
  71.2454844  60.9708405  32.6593208  30.8538673   4.0736226  60.7413730
  30.2317569   4.4773320  61.3465407  30.8108804   3.1386785  60.9420475
  26.0083795  47.9280233  21.7209077  26.5071106  48.7064552  21.9689941
  26.6717672  47.2986317  21.4380383  41.3456962   3.9825277  68.5455164
  40.7921884   4.6812371  68.1967103  42.1541688   4.0407018  68.0363776
  27.8704834  30.0344372  18.4215510  26.9401836  29.9224591  18.2260072
  28.2050395  29.1423035  18.5132062  17.1270716   3.3629540  44.7254992
  17.9241383   2.8886372  44.9620152  16.4370048   2.7001494  44.7525120
  53.4143972  37.4903297  19.7489631  53.2862902  36.6824770  19.2517769
  52.5958300  37.9734612  19.6359825  20.2472586  76.6789554  36.2799689
  20.3029103  75.8196829  35.8618972  19.8751015  77.2490333  35.6071088
  45.3705657  72.3457860  48.9260623  44.4601036  72.3079871  49.2190835
  45.7616067  73.0457066  49.4489667  73.7492609  39.0906715  23.4648919
  74.2676830  39.0288138  22.6626182  73.4870195  40.0101280  23.5103011
  78.6178401   9.1605024  55.3131744  77.7605537   9.5820169  55.3733167
  78.4735373   8.2753782  55.6477854  85.2965999  63.2705639  41.5217802
  85.1391578  62.3804139  41.8365452  85.9615016  63.6202668  42.1149465
  49.8408508  49.7161436   1.1346558  49.0880728  49.1837215   0.8775879
  50.5573988  49.3990946   0.5848653  13.0956454  63.6178111  46.7317840
  13.1294579  62.8947900  46.1054227  12.7159018  64.3447302  46.2382099
  57.9460239   5.6473345  28.1682086  57.6675272   4.8467910  28.6129594
  58.8663769   5.7484388  28.4110236  78.1365538  32.9721880  26.2017775
  78.5213900  33.8153481  26.4409709  78.3751345  32.8521490  25.2825928
  72.4518681   8.7511289   7.1746385  71.5696192   8.8817489   6.8270612
  73.0169868   9.2553395   6.5892828  83.6295963  57.9006289  30.7551762
  83.2614017  57.9298650  31.6382453  83.0862928  57.2644340  30.2900907
  51.3947439  37.3562050   8.5826296  51.8340969  36.8462992   9.2632174
  51.8419981  38.2024479   8.5910654  35.0275034  78.8933490  24.4993851
  35.5740256  78.2737206  24.0160629  35.5038828  79.0471338  25.3152534
  21.2099099   0.5376946  14.2364287  22.0670652   0.9447086  14.3623543
  20.8150387   1.0288960  13.5159910  76.0020208  10.1143849   1.0740432
  76.8135548   9.8296577   1.4942512  75.4992723   9.3088073   0.9535471
  14.8378367  69.8781966  55.1652321  15.7606739  70.0435089  54.9721643
  14.4213766  69.8125576  54.3058798  54.6046019  17.6375222  23.0539751
  55.3918600  17.5686443  23.5940790  54.3884897  16.7325592  22.8290963
  10.1432511  13.0582647  34.0934655  10.4807231  12.2216300  33.7734768
   9.7863648  13.4860400  33.3150908  63.9447784  61.0596514   2.7489424
  63.5820866  60.1913834   2.9244328  63.2291365  61.6630507   2.9489398
  65.7623816  43.5531950   6.6366136  65.9837580  42.9185534   5.9551048
  65.9690666  43.1055212   7.4570411  35.8683345  11.8017081  50.5983791
  36.6799161  12.0947580  50.1840302  36.1566207  11.2748555  51.3437292
   8.3637232  52.8728496  57.9644641   8.3063120  52.0241378  58.4033558
   8.5383744  52.6574026  57.0483240  38.3294797  79.2708302   6.3362861
  38.0150127  78.4243107   6.0188806  37.8226662  79.9151993   5.8421654
  31.3236737  26.9687653  26.9758821  31.9118881  27.5915766  26.5488672
  31.3424969  26.1959052  26.4114666  55.7893464  77.6898161  12.6238978
  55.1083944  77.1987424  12.1641290  56.5398404  77.6720071  12.0300317
  27.6739928  71.2848509  16.6585314  26.8991468  71.3879878  17.2109854
  27.4499652  71.7367077  15.8449781  54.9646187  41.2754822   8.5542005
  54.9382973  42.1794128   8.8679665  54.7444344  41.3380623   7.6247734
  47.3243999  37.6715040   9.0108526  48.1307459  37.2075725   9.2362630
  47.6218700  38.4796786   8.5930061  41.4465475  25.9353685  10.6635606
  42.2940063  26.3377666  10.8536148  41.2613249  26.1834931   9.7578228
  51.2665033  14.1751957  23.1910706  51.3597727  15.1078939  22.9971480
  50.7514620  13.8293386  22.4621367  78.9971399  39.9117780  16.5087450
  78.3788919  40.6181479  16.3215530  79.2030907  40.0137186  17.4379516
  76.0827830   4.3012767   2.1277726  77.0291188   4.1932159   2.2226533
  75.8253720   4.8310905   2.8822750  28.0413985  14.0087736   1.8902858
  27.7929020  14.5292306   1.1263451  28.3035088  14.6553481   2.5456265
   2.2183630   2.1138124  69.4785161   3.0515644   1.7180042  69.2228941
   2.2175309   2.0736436  70.4348726  41.4652348  68.6107349  18.3604300
  40.7926702  69.0583611  17.8470802  41.7932367  67.9246759  17.7790773
  83.5669327  76.5952158  14.8480225  83.7901020  75.7061577  15.1237011
  84.1090965  77.1599627  15.3987908  47.8464746  11.3293993  20.5922008
  47.2369242  11.9097376  21.0481501  47.4296808  10.4684496  20.6280088
   1.3710994  33.9701343  14.5177233   2.1493167  33.5334063  14.1714799
   1.4972609  34.8933983  14.2988646  68.8556859  26.6419582  48.8307306
  68.2189366  27.3260860  48.6239621  68.8497159  26.5901593  49.7865102
  30.9339759   7.0865421  63.8236150  30.5511758   7.2826461  62.9684892
  31.7857930   6.6994552  63.6216274  16.5137002   9.0349797  65.2075586
  15.8798120   8.7111644  64.5675924  16.6999528   9.9312429  64.9278137
  27.7430153  32.3150396  13.1975305  28.5847044  32.0993114  12.7959704
  27.8504157  33.2129955  13.5111690  33.0429262  61.4731144  59.7530779
  32.4892039  62.2149013  59.5093927  32.5416941  60.7023810  59.4866821
  30.2074051  43.1115627   2.2230338  30.3703570  42.5102663   2.9497549
  29.2546344  43.1985664   2.1931867  72.2894716  27.9731679   5.1683003
  71.4337349  28.3290672   4.9289620  72.6456070  27.6332617   4.3474087
  66.2448311  54.9981546  10.9346092  65.8121014  54.1443539  10.9321916
  65.6183624  55.5853796  10.5116034  26.2084005  16.2515334  52.9092380
  25.4712150  15.8881883  52.4185547  26.0809705  15.9338550  53.8031480
  64.9738026  74.0676689   3.7030634  65.6070757  74.0708733   4.4208300
  64.5908117  74.9447870   3.7176472  37.4969957   5.9051065  40.9085223
  36.7716596   5.4535751  40.4769704  37.2356651   5.9537868  41.8280694
  78.6489606  78.0339764  61.5538838  78.2966018  78.0020784  60.6644693
  79.0673948  77.1818446  61.6764393  72.2277689  36.1660147  11.4944601
  72.9342794  36.7996597  11.6192210  72.5495386  35.3642702  11.9066513
  39.7141454  13.9532451  60.6765875  39.6039579  13.9050559  61.6262022
  39.9751327  14.8592452  60.5114207  57.5959826  11.4669335   1.9876327
  57.5029516  11.8902993   2.8410608  58.3944988  11.8444633   1.6187569
  12.8907794  80.1504517  19.1847229  13.7270659  80.6014729  19.0688074
  12.7783412  80.0944996  20.1336479  47.7102658  16.0033158  39.5243952
  47.6403758  16.9220809  39.7836491  47.5090501  15.5134801  40.3217694
  57.2990751  37.9926181   1.5784274  57.2210217  37.2382402   2.1624257
  57.7371502  37.6485777   0.7999947  74.7242785  32.3254156   7.1738887
  73.9605713  32.2881103   7.7497298  74.7401094  31.4716172   6.7414409
  81.9458652  55.3462909  36.8923089  81.1302591  55.8235906  36.7399785
  82.0772672  54.8355590  36.0934850  76.0125875  36.0526752  48.0427027
  76.8913460  36.3687778  47.8326988  75.9352064  36.1714292  48.9893484
  53.5989380   8.2042724  10.6418788  53.5787106   7.9011697  11.5495968
  53.1380033   7.5234628  10.1517057  16.6460178  13.6534433  48.3848950
  17.2437951  13.9874009  47.7160427  15.8258388  13.4973983  47.9167244
  27.8815436  22.7638674  11.4626956  27.3378038  23.5352612  11.3029242
  28.1338573  22.8351879  12.3832846  42.5053024  55.4223776  13.2866800
  42.3162794  56.3164282  13.5716033  43.3786964  55.4743290  12.8984582
  57.9087067  12.8863978  41.6130543  58.5653305  12.3438203  42.0497227
  58.0691338  13.7699056  41.9445801  80.4358196  22.6324892  17.8762054
  79.6701288  22.9350567  17.3879421  81.1381340  23.2271719  17.6128924
   4.0750689  78.1594585  48.2377884   3.8356776  79.0492843  48.4968898
   4.5712752  77.8186081  48.9819857  84.0833378  26.9685960  11.3302028
  83.4062576  26.8579459  10.6627059  84.0335751  27.8937316  11.5707850
  53.6233997  53.8250637  21.4215827  53.8608503  52.9630136  21.0799313
  52.6966047  53.9223814  21.2029314  67.5561762  65.3751087  10.4622519
  68.1975508  65.0342560  11.0857069  67.4145651  66.2814188  10.7357037
  11.6499085  80.1364754  64.5265004  11.9531245  79.2758630  64.8157081
  12.0468754  80.7503675  65.1443866  19.7943115  58.0187511  28.4402823
  19.7965372  58.8621092  28.8930225  19.4539249  57.4006128  29.0870261
  14.2282773  73.5911034  67.6289600  14.9770177  73.8646291  68.1588672
  13.5230256  74.1849326  67.8862905  30.0122735  20.8186607  51.1505827
  29.8080346  21.7377643  51.3231155  29.3268964  20.3311376  51.6075382
  37.7728316  74.0150840  27.9298806  38.1074187  73.7840462  27.0633316
  36.8230102  73.9261634  27.8514147  63.4763414  65.9464836  58.3023405
  62.7661401  65.4482651  57.8978348  63.0515271  66.4461374  58.9995527
   5.0204253  77.0624208  16.2713516   4.4248411  76.5210581  15.7532418
   5.6407571  76.4401007  16.6510057  62.4276024  74.9869442  53.3094740
  62.6625091  75.8163357  53.7255955  62.3731500  74.3628454  54.0331888
  18.9318934   5.6710487  43.2448959  18.7439641   4.7531181  43.4406328
  19.5948699   5.9222179  43.8880205   7.6344520  57.0707655  62.4550724
   8.2219279  57.5514984  63.0381680   8.1873310  56.8128777  61.7174721
  74.4388920  66.9799042  59.7336245  75.1787215  67.1109676  60.3266716
  74.7103089  67.3974466  58.9161730  15.1156819  80.8767319  29.6590447
  15.6568444  80.6684971  30.4206324  14.2919326  80.4156113  29.8172665
   1.0971680  70.6374359   5.2385592   0.3086974  70.1457739   5.4683656
   1.7602251  70.3291082   5.8562320  33.7154031  32.6923108  19.3921208
  32.8162241  33.0168557  19.4408989  33.6505866  31.8823767  18.8861215
  82.8391972  50.7747698  69.8401403  82.6700163  51.3705111  69.1102743
  83.7859216  50.6348991  69.8206329  23.4702826  71.6253090  61.4617920
  22.7928972  70.9983826  61.7154455  23.0179095  72.4684000  61.4336586
  84.4323736  45.2088572   1.6029432  83.9298707  45.4120757   2.3918799
  84.0244775  44.4150092   1.2570265   0.8679132  58.3933926  25.5142021
   0.8418680  58.3807325  26.4709640   0.6979777  59.3063259  25.2820325
   1.0834229  62.7225447  54.3817091   0.2702285  62.5839043  53.8961935
   1.7626187  62.3416233  53.8250923  57.0006925  70.1462126  18.8832128
  57.6625568  69.5208931  18.5880172  56.1734945  69.6693945  18.8152444
  19.4716561  63.1751871  51.9968367  19.9788570  63.0340481  52.7962446
  20.0513148  63.6869478  51.4326239  16.9644284  73.7663221  55.3014278
  16.9512916  74.7214985  55.2405739  16.7261970  73.5808945  56.2097740
  36.3462874  10.1614338  47.9264450  35.6330237   9.8016124  47.3991728
  36.3033971  11.1055999  47.7749443  28.0512214  10.8772045  17.0548439
  28.2031925  10.7578045  16.1173582  27.1376803  10.6221634  17.1837866
   3.6229011  46.2062979  52.8418350   4.1179433  46.9758701  53.1227732
   2.8965795  46.1489820  53.4626436  12.8212130  52.7654839  36.0147095
  12.8053653  53.2867718  36.8173575  12.1815526  52.0701075  36.1680675
   2.4199703  69.2772961  37.7065825   2.2274044  69.4743443  36.7898917
   1.8009010  69.8135376  38.2019925  59.2613822  80.4800987  10.8837140
  58.3687550  80.2777290  10.6035399  59.2851120  81.4355659  10.9362614
   5.8100384  61.9086313  33.2323933   5.9357637  61.6684389  32.3143888
   5.0259626  62.4576807  33.2310939   4.9919212  64.0353441  12.7216649
   5.6283623  63.9689732  12.0097876   4.8870209  64.9763393  12.8622019
  44.9892547   8.6477428  14.0204203  45.5442241   8.3929210  14.7575152
  44.2075267   8.1025844  14.1094971   6.5250850  39.1454482  33.6000061
   6.3004929  38.3225346  34.0342927   5.9082925  39.2074704  32.8706551
  67.6537889  43.4163141  60.6290722  68.1624418  43.6055136  59.8405886
  68.3052236  43.3694839  61.3288355  63.8702089  74.1858244  42.9639864
  63.9393336  75.0724363  43.3180714  63.4569532  73.6800146  43.6637068
  55.4536874  12.5630309   7.0630720  55.4949870  12.6286627   8.0171278
  56.0389044  11.8369223   6.8473891  70.3038329  64.7490692  33.7057424
  71.0944480  65.2813005  33.7945509  70.2814656  64.5059824  32.7801943
  14.8394334  42.8174973  19.5854986  14.4354987  43.5930347  19.9748731
  14.1752231  42.4767303  18.9863884  15.0093663  74.8026514   2.8138822
  15.1457691  74.9464035   3.7503445  15.8819389  74.6080875   2.4718362
  12.9830670  53.3892488  40.3814554  13.0865347  52.6365948  40.9637260
  13.1107795  54.1499233  40.9482861  83.3940470  59.8606825  23.5587239
  82.5261554  60.1419353  23.2690763  83.3033383  59.7389174  24.5038033
  42.3081293   7.9904323  37.1388292  42.9683938   7.9885059  36.4458060
  41.5682772   8.4678512  36.7634296  10.8536246   8.8691192  21.8057680
  10.6772068   9.3879753  22.5905609  10.0945714   8.2916122  21.7248178
  73.6667922  17.2334174  59.3786046  73.4039262  16.3375358  59.1675803
  72.9557720  17.7776508  59.0402350  49.5742538  14.7049003  35.4390049
  50.4599359  14.5222717  35.1252389  49.7009399  15.0703102  36.3145947
  54.0656665   7.9475742  30.9724140  53.2563904   8.2730537  30.5782413
  54.1301349   7.0407348  30.6728816  80.4863208  49.5731926  19.7479570
  81.0289696  50.2907467  20.0748754  80.6853485  48.8386583  20.3285456
  49.5362380   3.9501529  30.3817344  49.7534349   4.6314865  31.0179996
  50.2221682   3.2917362  30.4923129  14.4759047  44.2508698  67.5770378
  13.6343598  44.6173048  67.3054504  14.2889261  43.8101387  68.4059095
  55.9058788  16.1174255  32.5592446  56.3978007  15.3046661  32.4423170
  55.1159385  15.9972053  32.0321989  16.9766927  81.0547543  57.1673298
  17.8829753  81.2455082  56.9254732  16.9308162  80.0989056  57.1894646
  58.0653626  51.1386156  54.4005966  57.1819788  51.5026426  54.3427229
  58.1296855  50.5458689  53.6517668  31.6693058   8.1818634  24.2278457
  32.1784615   7.4111610  23.9768243  31.1551997   7.8939968  24.9822068
  23.4657001  36.9844723  11.9210398  23.3713484  37.8874373  12.2243309
  24.0801144  36.5874290  12.5383592  84.4255833  72.5036383  23.9126635
  83.5687679  72.9267550  23.8572335  84.3962173  72.0096684  24.7320318
  71.6873187  72.9652691   7.8021866  72.4882287  72.4568844   7.6744300
  70.9797555  72.3324966   7.6789516  22.7054024  66.3758326  48.3470583
  22.4660158  67.2747374  48.5726595  22.3825240  66.2590456  47.4535608
  30.1888657  73.8207531  11.0047102  29.5466661  73.1666374  10.7291281
  29.7020674  74.6448612  11.0149372  10.3074625  13.5601097  56.9184637
  10.5018297  13.8713890  56.0344028  10.0900259  12.6349598  56.8042374
  76.7828441  75.5235004  39.7908521  77.0535999  74.6369457  39.5522213
  77.0905822  76.0705900  39.0682054  10.4010299   5.5290561  62.0019913
   9.5014789   5.6702381  62.2971344  10.9411004   5.9559112  62.6670837
  61.6114315  16.6545607  15.1935127  61.3910907  17.4548890  15.6701306
  60.7805859  16.3628413  14.8182514  66.0564464  77.1298885  49.1840744
  66.3412660  76.3489056  48.7095499  65.3801256  76.8130350  49.7827578
  35.1282501  79.6737385  38.8369656  35.5748582  80.0429440  38.0750847
  34.2086220  79.9082947  38.7124658  19.0701318  19.3609953  23.6278462
  20.0007677  19.1577542  23.7218618  18.6346078  18.5091865  23.6590099
   4.8956263  50.3379107  56.9347382   3.9404103  50.2794218  56.9540644
   5.0795645  51.2750387  56.9994211  46.9530218   1.6020562   7.9227713
  46.1201161   1.4497210   7.4763516  46.7161470   2.0889164   8.7121323
  30.7207680  68.5753202  35.8123875  31.3147449  67.8333330  35.9258723
  30.8628798  69.1168165  36.5888023  11.9418132  61.9966602  23.1069708
  12.2754264  62.2503853  23.9675283  11.4278746  61.2063503  23.2728124
  18.8462320  43.8528305   4.3336600  19.3810972  44.5435577   3.9424527
  19.4317749  43.0974632   4.3865624  59.9768478  52.2312641  68.0881691
  59.6845108  52.0160198  67.2024822  60.1428467  53.1736279  68.0632114
  62.4323919  28.2283264  33.8413095  62.0337108  27.4235683  33.5101891
  62.1879890  28.8973861  33.2018828  57.3738864  12.4078994  34.8975229
  56.4185169  12.3490577  34.8914409  57.6395634  11.9106155  35.6710529
  35.3068137  79.3050003  43.8776636  35.5783987  78.5568666  43.3458996
  36.0843205  79.8614693  43.9229918  47.1722081  60.3657966   4.3566468
  47.2108367  59.6742969   3.6959091  47.3817470  61.1672645   3.8770953
  41.0280466  37.1159029  16.1299002  41.7287779  37.4849749  16.6674829
  40.8680105  36.2504482  16.5062058  47.6053524  74.0614176  17.2585607
  46.8643618  73.6878157  16.7815006  48.3765888  73.7522793  16.7833138
   4.2412522  61.8565416  62.8238773   5.1301384  61.5590858  62.6298809
   4.0994340  61.6077948  63.7372494  10.5942190  67.4443817  28.9937663
  10.3813660  66.7771053  28.3413315   9.8959482  67.3742294  29.6447086
  54.8242977  11.8518406  23.1420255  54.8653438  11.0820728  23.7094784
  54.0145209  11.7394786  22.6441622  42.4266103   0.8581596  23.2183480
  41.5986755   0.4616123  22.9472351  42.4470094   0.7441097  24.1685104
  19.8459828  55.0087261   7.1161711  19.3374753  54.5965481   6.4177692
  20.5324054  55.4939175   6.6583049   3.7062702  74.0675592  24.3055391
   3.0257019  74.5890570  23.8799763   3.8582274  74.5084095  25.1414776
  36.4719692  22.8508049   1.1721413  36.4580312  22.5305801   2.0740777
  37.3909643  22.7914386   0.9110758   8.3311903  53.2665014  28.8814950
   8.1351376  53.1656694  29.8129606   9.0540886  53.8933754  28.8553786
  82.4285707  55.9914446  20.4029489  82.1372616  55.5567980  21.2044787
  82.8013709  55.2883005  19.8711181  10.7140243  36.2511206  46.2756014
  10.5535805  35.3075218  46.2862158  10.3843343  36.5596390  47.1196079
  70.1157099  45.7835293  52.1373558  69.4033843  45.4902315  52.7055120
  70.4622120  44.9784327  51.7526579  47.4050099   1.4233384  29.4472408
  46.9506365   0.6267582  29.7215343  47.7143103   1.8158372  30.2636409
  10.5450294  74.9726087  48.6785460   9.6971461  75.3450865  48.9205885
  10.6008145  75.0995404  47.7314425  51.2424284  61.2056875  11.2098730
  52.0262366  61.2210703  11.7590892  51.5664798  61.3749123  10.3252339
   1.1179953  62.4730110  11.9040942   1.5675959  62.9940081  12.5694156
   0.2928852  62.2179270  12.3168385  61.6945511  57.6855087  37.7592278
  61.9101745  56.7534733  37.7269483  62.0639163  58.0448771  36.9525957
  17.5301778  61.9528770  21.0944486  17.7549505  61.1038828  21.4751315
  17.1620274  62.4522781  21.8233466  31.0482693  56.2668419  11.4814961
  30.4704332  56.7975712  12.0298219  31.4148712  55.6158257  12.0798409
  75.7175261   6.0851860   3.9721063  75.7717580   6.3066733   4.9017483
  75.9146041   6.9048381   3.5187158  61.2617809  54.2846537  32.5792384
  60.6357318  54.6598673  33.1985188  61.4914161  53.4351587  32.9558754
  72.0907241  28.4425044  23.1906843  71.9266969  27.9438305  22.3902774
  71.2253457  28.5561061  23.5836792  25.7912278  49.8061514   3.1803155
  26.4552689  50.4571486   3.4072119  25.8164883  49.7613525   2.2244984
  15.5001331  69.5525311  49.6124670  14.7533560  68.9829181  49.7971198
  15.9533823  69.1251992  48.8857028  55.8360630  48.7829161   5.9633374
  55.9653765  49.2943287   6.7620641  56.0868961  49.3765593   5.2555931
  24.2991209  78.7894964  18.5044980  23.5459328  78.3849669  18.0740356
  25.0013900  78.7386847  17.8560638  66.4192122  52.1713495  18.3680964
  65.7340676  51.8073940  18.9287627  65.9499341  52.7295351  17.7480674
  28.2843232  54.1602898  12.9275751  27.6875591  54.4213820  12.2261930
  28.1185460  53.2252026  13.0474043  19.9143023  61.5176128  65.9075800
  20.5219168  60.7835125  65.8174130  19.1981608  61.1717390  66.4402568
  59.6448332  13.4433866  16.4289808  59.0146691  12.7600062  16.2006891
  60.4639155  13.1590557  16.0234046   5.0606960  52.9027176  11.4611363
   5.2925092  52.4793386  12.2877216   5.1894784  53.8367653  11.6260803
  17.9047632  37.9943275   9.8357570  18.0721903  38.4330320   9.0016490
  18.7645686  37.9356027  10.2523124  83.1058982  35.0361419   5.8209181
  83.4443991  34.6813083   4.9988824  83.8715526  35.4176164   6.2504321
  81.3102415  45.9750366   9.3003160  81.6270548  45.1354265   8.9672816
  80.6930160  45.7403326   9.9932653   5.2112722  29.3115735  16.5294945
   5.8288574  28.8829446  15.9369600   4.4075185  29.3971539  16.0167682
  65.8470038  35.6816129  67.8617285  65.3418634  35.1238565  67.2701451
  65.5820808  36.5730457  67.6350176  16.3416433  69.9254847  20.8533120
  15.7138348  69.2434883  21.0919976  16.5817201  69.7241020  19.9488568
  11.2959790  44.2918396  13.2776260  11.3915610  43.3490372  13.4126139
  11.8914247  44.6865892  13.9146900  74.8095030  60.9118271  36.0885000
  74.5559496  61.2384558  35.2252197  74.0565556  60.3981972  36.3808823
  82.5295213  77.0319909  19.7819424  82.9494432  77.8909138  19.8282886
  82.2075537  76.9710091  18.8825810  58.1517191   0.5112008  67.5315043
  58.1549262  -0.2671500  66.9743743  58.5627994   0.2238778  68.3467889
   8.9356142  51.4094973  45.2409935   9.1236132  50.5586386  44.8448563
   8.4865755  51.9002008  44.5526600  14.1545856  33.8107848  14.7386456
  13.5659456  34.4980979  14.4266605  14.0076554  33.0792332  14.1390824
  74.1437405  48.7885714  53.2584572  73.9019209  48.2129622  52.5329065
  73.3936876  49.3746090  53.3594990  22.4757099  66.9471312  15.6765997
  22.6820159  66.6525269  14.7895384  21.7282844  67.5348091  15.5660427
  79.5362500  15.8433179  23.5845873  78.7229040  15.4902677  23.9452192
  80.0976709  15.0773076  23.4651491  80.0103182   9.3134642   5.6978881
  80.7868063   9.2577851   5.1409340  80.2443510   9.9514306   6.3720244
  59.3788727  27.5780849  53.5078821  60.0548667  27.4169807  54.1661438
  59.3137124  26.7542533  53.0248877  20.6658697  42.5102711  25.7885337
  20.2260923  41.7166901  25.4834867  20.5327964  43.1439066  25.0835299
  17.4474573  20.2401757   0.6717914  17.6317418  19.9170303   1.5537484
  16.5735114  19.9049389   0.4716263  57.8798944  56.6107416  10.7876003
  57.6108938  57.5209999  10.9113085  58.7776643  56.5792656  11.1181343
  29.6271185   7.3678070  28.8637066  30.3483720   6.7791420  28.6412191
  28.9072003   7.0890766  28.2977867  68.7474206  11.2578468  66.9081083
  68.2675699  10.5898551  66.4184561  68.0666474  11.7712287  67.3431036
   4.9406275  60.6029892  50.0799847   5.1734096  60.2277231  50.9292316
   4.5075583  59.8884296  49.6129799  12.1644413  76.7098093  11.9070482
  11.2791193  77.0403528  12.0592904  12.5109863  76.5408707  12.7831745
  16.0364020  58.7837553  30.4159594  15.5757213  58.7394857  31.2538409
  16.9569671  58.8932991  30.6542683  11.9056413   6.4786748  64.5845219
  11.4101169   7.2969131  64.6187618  11.3691804   5.8532266  65.0716063
   5.4799390  56.4860153  35.4361773   4.9890292  57.2347307  35.0975585
   5.0275958  56.2494278  36.2458944   4.9260721  39.3305516   5.4868263
   4.1925442  38.7297010   5.6177723   5.4918581  39.1867089   6.2453955
   1.2734780  74.4624805  34.5642376   1.9714892  74.6398163  35.1947641
   0.8347014  75.3053856  34.4493008  63.6500409  25.4228168  30.8673167
  63.7099650  25.1440101  29.9535847  62.7880099  25.8331257  30.9364915
  74.7491294  54.9679804  35.3831315  74.5372218  55.9004259  35.3398299
  74.3480152  54.5945072  34.5983672   6.3015342  40.0613785  28.3151364
   5.7527280  39.2772222  28.3269262   6.7985409  39.9936485  27.4998879
  70.6849676  21.6820383  31.6338205  70.8256811  21.7805552  30.6921601
  71.4994162  21.2982821  31.9588399  39.4981527  23.5156798  15.7167709
  39.7494531  22.5923061  15.6952703  38.5477304  23.5026741  15.8297431
   1.4712091  63.0627394  22.9707026   1.2126736  62.5194883  22.2262120
   0.7896016  63.7324524  23.0266571  15.4117453  27.7330303  20.7064462
  14.9722195  27.6384735  19.8613977  15.2560377  28.6436844  20.9568334
  85.8604495  56.6682959  31.8130422  85.0296966  57.1122026  31.6426730
  85.6767042  55.7438612  31.6460180  63.2929680  44.5219640  65.0228664
  63.3289454  44.5890741  64.0687004  63.8111779  43.7437371  65.2279401
  56.2534540  47.9389123  59.8653158  55.4499857  47.9863862  60.3834054
  56.8766104  47.4829416  60.4309991  31.7432308  36.7737913  11.2132847
  31.6163564  37.7096105  11.3694096  31.6348672  36.6718674  10.2677166
  34.6953297  53.6546612  13.1656742  35.3332663  54.1003418  12.6083219
  34.2657518  54.3601179  13.6494339  84.8637461  57.4329329  20.4313064
  83.9482786  57.1566582  20.3886080  85.0302191  57.8423548  19.5822501
  79.9967557  34.2857647  10.8813989  79.8523748  34.2376184   9.9363756
  80.7687992  33.7408304  11.0338056  36.7381182   2.4344688  15.8426499
  37.6089564   2.0757251  16.0134625  36.8514445   2.9770618  15.0622785
   6.1873150  67.9220676  18.2637906   6.6481465  67.1016741  18.0882466
   5.5969757  67.7149057  18.9882314  71.1181861  54.0227842  30.8241844
  71.6970891  53.2635593  30.8926392  71.2687403  54.5124483  31.6327596
   0.6746681  51.7760134  23.3836985  -0.1995420  51.4956903  23.6546397
   0.8969466  52.4844980  23.9877462  73.1683969  40.1167107  13.6425102
  73.9875460  39.9073720  14.0912974  73.4272671  40.2807951  12.7357054
  23.1147242  46.4130545  17.3756671  22.2918797  46.8187666  17.6487148
  23.0906916  45.5382538  17.7634549  13.2569695  48.3472300  25.2949429
  13.3320320  48.5616398  26.2247968  12.6744378  49.0189934  24.9405146
  76.8722522  56.9584656  21.7881155  77.6327771  57.0649338  22.3595166
  76.6101199  56.0454273  21.9059134  11.6858172  66.2738132  25.9653902
  11.0604453  65.8166552  25.4031205  11.8527675  65.6635189  26.6836524
  57.4107933  49.0234613  17.8841341  57.2722816  48.4166718  18.6113572
  58.3446074  48.9513636  17.6865828  69.7885111   3.1978206  47.7847621
  69.9091998   2.2737960  48.0034992  70.6497851   3.4871129  47.4835178
  57.7254000   9.5559196  66.6323367  56.8354195   9.3696622  66.9314611
  58.2287853   8.7806300  66.8808657   2.8071141  64.3306684  35.6645226
   1.9376449  64.7295809  35.6310081   3.3067620  64.8945904  36.2549281
   7.0733178  55.9646225   0.6869014   6.3304883  56.1739206   1.2531446
   7.8252137  56.3704491   1.1183982  38.5844249  63.0585693  65.8250073
  38.0164320  62.3547696  65.5115077  38.3393068  63.8177513  65.2960542
  28.3846258   7.8880935  12.5217485  29.1084012   7.9167133  11.8959999
  27.6000476   7.8207832  11.9775617   0.8646677  61.4574528  20.8969998
   0.4187202  60.7795429  21.4047456   0.5485235  61.3333273  20.0020838
  29.4718581  77.7585147  55.4719302  29.0244718  77.9086278  56.3047227
  29.9330560  78.5787414  55.2965531  66.9487208  44.4512129  20.3755784
  67.1378010  44.9540710  19.5833576  67.0604688  45.0785637  21.0898471
  10.4364192  49.4768000  33.9897680  10.9972441  48.9497185  33.4206510
   9.5587355  49.3755817  33.6214519  65.5365997  66.7983437  21.1076117
  65.4878479  67.6246119  20.6268430  65.0096399  66.1889982  20.5906558
  12.7924344  21.9269065  66.3183302  13.2122419  22.7465467  66.5794516
  11.8559930  22.0917205  66.4285305  48.3154112  67.3139906   9.1042161
  48.3783704  68.2687807   9.0789956  47.9326826  67.1217203   9.9602443
  54.7417167   3.5705047  51.3961363  53.9891436   3.6130481  50.8061743
  54.8001793   2.6477008  51.6436243   2.1964718  27.6492667   0.3770932
   2.7861992  27.9885221  -0.2962260   1.8975420  28.4272933   0.8477825
  70.2029637  42.1193723  53.1231794  70.5131808  42.8329877  52.5657281
  70.5802945  42.3056726  53.9829156  33.9394069  42.2774696  16.6199446
  34.6297526  42.7690220  17.0649457  34.2210102  42.2431946  15.7057476
  10.7514012  34.3232751  19.1147006  11.6763568  34.0769315  19.1129887
  10.2962041  33.5425949  19.4302404  27.5955224  20.0329685  19.8382473
  27.9661798  20.5511951  20.5525923  26.6885328  19.8767185  20.1012778
  23.2122850  40.2657270  18.7270176  22.4476838  39.8943090  18.2869411
  23.9469910  40.0519228  18.1519306  48.5725641  66.0714340  26.4261127
  47.7890873  65.5298996  26.3305688  48.7049627  66.4561033  25.5596638
  35.6600979  75.5672473  26.3524294  35.2874306  76.2330941  26.9303560
  36.5477613  75.4319180  26.6840482  28.2508874  54.7714710  21.3509774
  28.6979365  55.4578495  20.8557391  27.3197699  54.9628973  21.2386990
  21.7521691  64.9481106  55.0532103  20.9377337  65.3197527  55.3920460
  21.9320941  65.4501915  54.2583704  77.6958889  40.8329296  27.6251173
  77.2529364  40.5093908  28.4095597  77.1236360  40.5738592  26.9028711
  13.6108520   1.5809303  59.6831512  13.3480003   1.9264656  60.5362272
  14.3769946   2.1006542  59.4399548  26.6658092  67.7612686  23.8743234
  27.4245071  68.1035233  24.3470526  25.9606647  67.7604818  24.5216274
  75.6746882  71.9875002  46.0759163  75.9295493  71.6339254  45.2237034
  75.0444561  71.3541222  46.4192390   0.7784332  33.8708758  18.8056409
   1.5771964  33.7860012  18.2850587   0.1979018  33.1896257  18.4663582
   5.8259499  74.0616417   2.1467644   6.5316993  74.5188808   1.6895118
   5.9320527  73.1443548   1.8946543  59.8543483  30.2237844  53.2817841
  59.8354226  29.2734957  53.1685305  59.2353088  30.3927135  53.9920568
  74.3393654  68.4716654  30.9200239  74.8982733  68.5596275  30.1479387
  73.7955719  69.2593670  30.9130573  10.2544796  73.4589052  27.2903752
  11.0104346  73.9643621  26.9915771  10.5190539  72.5454330  27.1817636
   3.3163968  74.3715620  39.9469948   3.7865239  74.3471050  40.7804298
   3.1008783  75.2955770  39.8205996  78.6022824  55.8275414  18.6900008
  77.6865494  56.1001110  18.6319494  78.6181271  55.1920891  19.4056690
  81.0429397  59.8540115  22.0982933  80.7461637  60.7506084  22.2540951
  81.2111667  59.8176146  21.1566949  83.5283898  48.2193041  22.0347762
  84.2029411  48.4549665  21.3978481  83.7791523  47.3465014  22.3373675
  30.3743005  46.2492037  25.5269909  29.7345805  45.6660891  25.9356022
  30.6773567  45.7696390  24.7560096  78.6182499  46.3634539  16.7016494
  78.6667120  47.3182344  16.7493176  78.2487714  46.1000109  17.5444520
  30.7447886  71.9155502  20.5332494  30.3314781  71.7788029  19.6807778
  30.3129053  71.2875462  21.1123180   7.3058027  74.7053146  49.5944834
   7.6659244  75.3349781  50.2190399   6.4725816  75.0889826  49.3210363
  70.8020476  34.8319511  65.2819258  70.9820941  33.8972596  65.3827369
  70.2458063  35.0507240  66.0295677  50.3402785  18.5010556  67.2344357
  50.8923492  18.1208591  66.5511346  50.1460126  19.3845252  66.9214263
  73.7536639  79.1608477  31.1219931  74.3280202  79.2641926  30.3632665
  74.3355602  78.8731956  31.8254733  28.3210376  74.2726730  64.0622476
  27.4537412  74.5707105  63.7880173  28.7699230  75.0695370  64.3446359
  81.0445774  59.2274237  25.5224252  80.1534921  59.2473316  25.8714271
  81.3295817  60.1410198  25.5410957   1.5200767  50.2653551  18.6693001
   1.3826419  51.0784340  19.1553557   2.0237139  49.7117758  19.2660654
  10.3148034   2.6709037  23.6811709  11.2434759   2.4400859  23.6583161
   9.8909333   2.0133548  23.1296253  31.3180900  39.7661877  10.0483644
  31.1584258  39.5234847   9.1363150  31.7645526  40.6113100   9.9966830
  65.2277356  55.8816290   5.1338482  65.9786433  55.4831553   5.5738318
  64.4657928  55.5271435   5.5921215  75.9212017  56.0783339  45.1501513
  76.8556535  56.2856388  45.1425362  75.8874470  55.1288366  45.2665472
  11.4970279  62.0064068   2.1361861  11.7251623  61.0776329   2.1757852
  11.8340266  62.3709202   2.9545960  25.4851055  43.9392471  21.8485904
  25.2855706  44.6709776  21.2646484  26.4179397  44.0339708  22.0411468
  55.0689635  17.3366336  57.8630492  55.7474223  17.8573589  58.2929012
  54.5329061  17.0015029  58.5817715  46.6958195  61.6638899   8.5951859
  47.0307523  61.3516283   7.7546233  47.4568254  61.6517735   9.1756660
  41.8388605  77.7652359  32.1996951  41.1265516  77.3664284  32.6994944
  41.6049910  78.6919403  32.1471381  15.1455379  45.2091074   1.5783490
  14.5057774  44.7206306   2.0963520  15.9182930  44.6446085   1.5578298
  18.8784885  79.3966484  28.0180192  18.6065280  78.5157204  27.7606654
  18.6001050  79.4763088  28.9303708  61.5105253  54.7292233  21.9847798
  60.7025677  55.2266550  22.1112585  61.5423995  54.1304064  22.7308583
  72.7213806  44.4131327  22.9633236  72.6563281  44.5073414  22.0129943
  73.2017487  45.1903200  23.2487297  14.7894824  40.7368279  15.6534398
  14.5086932  40.0307322  16.2355208  14.6577287  40.3873682  14.7721052
  72.5265104  63.5040855  35.6529188  72.7462226  63.4358597  34.7237778
  72.8194421  64.3799114  35.9046221  28.7100270  13.8274723  15.9100842
  29.4066820  14.2985969  16.3671947  28.2727683  13.3223396  16.5955567
   3.2545424  29.0673447   4.6962005   3.6159602  29.7553420   4.1373897
   2.6442873  29.5246124   5.2747554  19.2655513  26.9780282  60.1023599
  18.8785693  26.6597680  60.9179506  19.1549585  26.2538938  59.4862172
  19.1507733  45.4192114  29.0389490  19.9111295  45.5721569  28.4779692
  18.4519660  45.9393549  28.6422753  67.9652849  20.0093393  65.8565652
  67.5526622  20.0374583  64.9933252  68.3988932  20.8583526  65.9425408
  50.4157909  10.0726371  19.8151922  49.8737511  10.4134899  20.5267000
  50.3057941   9.1230350  19.8641002  12.9088330  67.5231552  65.1643705
  13.4592855  67.5028467  65.9472036  13.4966397  67.8103638  64.4656420
  42.2109413  56.1322546  24.3242216  41.5178776  56.7587852  24.5324349
  42.1521616  56.0164690  23.3758712   6.9937366  58.9578772  20.2929640
   6.4437628  58.2232857  20.0206900   6.4045471  59.7122478  20.2898169
  80.7081717  41.6814852  38.7100530  80.1780957  42.4777126  38.7457991
  81.1388016  41.7185831  37.8559971  68.0579203  20.5501842  34.5996332
  68.1460363  19.7522521  34.0783167  68.2289928  21.2604523  33.9811802
   2.4802324   9.4030122  67.3573941   1.7883560   9.5772723  67.9954946
   2.0741818   9.5813588  66.5091324  76.1636394  64.4451046   6.3530970
  76.6099352  65.1713848   5.9177005  76.8421245  64.0332747   6.8881536
  23.2529163  64.2910290   4.5559558  23.2851410  63.5459614   5.1560146
  23.3684659  63.9046049   3.6878800  81.3683221  80.2210617  11.8349361
  81.8601572  79.5898294  12.3601758  81.9465291  80.4225826  11.0992074
  36.3371665  59.2631291  67.3949125  36.5167362  58.3243929  67.3423719
  37.0339501  59.6094369  67.9524028  13.2340264  62.6643896  25.2965832
  13.6907971  61.8681622  25.0252771  13.8438666  63.0990314  25.8927512
   7.1983242  50.9915829  51.3146734   7.9654735  51.3696384  50.8848095
   7.4226534  50.0691271  51.4370680  83.8317817  24.0966058  32.5585270
  83.6342214  23.5814762  33.3407283  83.4807920  23.5775232  31.8349314
  24.2340088  39.0362740  20.8248544  23.7700605  39.7426105  20.3753281
  24.8221445  38.6757040  20.1612902  60.4708794  45.5117158  62.7589694
  60.5059070  45.0632123  61.9140753  60.6703064  46.4251355  62.5537059
  80.8370459  41.7526293  30.9325719  81.1414286  40.8468485  30.9886408
  81.6378370  42.2692966  30.8430052  32.8938508  71.2025166  43.9251709
  32.7475023  71.3758373  42.9952383  32.0786715  70.8002710  44.2250204
   5.5810803  54.5552301  29.0590358   6.3677186  54.3741322  29.5734644
   5.2748120  55.4033136  29.3802619  34.3863157  20.3915958  67.6451281
  35.2156571  20.8364562  67.8198379  33.7653616  21.1002044  67.4762377
  21.6862440  49.8096323  24.2613363  22.1870661  49.1823149  23.7399101
  22.0454264  50.6631851  24.0191150  70.6450647  41.6032124  60.8519983
  70.1094574  41.1088324  60.2315569  71.0722893  40.9336472  61.3862228
  37.9223394  25.4976106   4.1520351  38.4392452  25.8088183   3.4089398
  38.5673261  25.1248908   4.7531211   9.0468299  39.6579075  17.6278603
   9.8749089  39.1799593  17.5822067   8.3789855  38.9984488  17.4399006
   0.3183111  40.1792717   4.3534109   1.2636939  40.3225470   4.3976256
  -0.0019300  40.4242945   5.2215362  61.8936089  32.9058341  57.0588013
  62.0579407  32.1276406  57.5913784  61.7934406  33.6143760  57.6945445
  35.6028104  44.7879601   0.9547914  35.0273728  45.2489519   0.3443885
  36.4870405  45.0307655   0.6801764  17.1172976  71.6289330  50.9234524
  16.6629708  70.8576012  50.5845308  16.4364040  72.1299124  51.3724852
  45.8896926   2.9098777  52.4647948  45.1050237   3.3274106  52.8200301
  46.5786746   3.1189803  53.0955204   6.6116804  66.3094854  34.3567204
   6.9710177  66.4752197  33.4851480   5.6940621  66.5740347  34.2917490
  76.9645834  42.8525162  14.4038677  77.2549975  43.7389994  14.6184325
  76.0652000  42.8099155  14.7287154  49.6970081  68.7191057  20.2320981
  50.5587959  68.3025074  20.2330112  49.1123629  68.0591869  19.8593616
  26.6891193  61.9459343  12.5491357  27.6140332  62.0237207  12.7830458
  26.2334847  61.8904448  13.3891070  70.7656521  76.7272902  36.0194540
  69.8998433  76.9971895  35.7132554  70.5914766  76.0084867  36.6270900
  12.3245921  59.0224202   2.5069550  12.4471238  58.4257420   3.2453278
  12.8307464  58.6301728   1.7954901  83.6844508  34.8161602  18.0257118
  83.6895369  34.5997596  17.0933080  84.5939861  34.7047448  18.3024132
   7.5528169  22.1439171  19.5892096   6.8956780  22.0560241  20.2796268
   7.8552669  21.2496138  19.4311714  44.9617147  60.1191092  28.0981874
  45.1457405  61.0516787  27.9855752  44.0370131  60.0853300  28.3431745
   3.7594181  72.0582914  11.1532271   2.9876113  71.7007399  10.7142484
   4.2317104  72.5258064  10.4643130  17.1181309  74.2402315   1.0722256
  16.6036892  74.4383574   0.2897118  17.9656625  73.9504576   0.7346524
  42.2549346  13.1913715  42.7380180  42.4786237  12.7250438  41.9325733
  42.7162543  14.0270477  42.6669455  13.7891507  49.6916771  27.8931451
  14.7401631  49.7858334  27.8388977  13.4464872  50.5074549  27.5280118
   3.5840309  71.3796473  18.4257400   3.5551065  70.9927225  19.3007743
   4.3614611  70.9961271  18.0198503  58.6831596  22.6077228  14.1479683
  59.5275762  23.0458980  14.2537522  58.0852464  23.1012111  14.7093987
  32.4210262  76.7008162  36.6902280  32.9983282  77.0709944  36.0224533
  31.9757342  77.4588585  37.0688033  42.8112555  76.0300636  38.6419296
  42.5181818  76.6913795  38.0150342  43.7609339  75.9955597  38.5272670
  49.1905954  16.7113262  20.5141616  48.6124065  16.1166816  20.9920001
  49.9660185  16.7894703  21.0698962  14.8978662  73.2226658   7.3725295
  14.4572830  72.4960995   6.9318247  15.3600693  73.6828709   6.6719508
   1.3577315  36.5526418  49.4710156   1.2486479  37.1076373  50.2432260
   2.1827194  36.0913638  49.6221921  85.7953396  73.1787825  45.6638002
  86.0705152  72.4166155  45.1542807  84.8541329  73.2469654  45.5034494
  32.3250508  45.5411339   7.4283069  32.8080225  45.6221962   8.2507420
  31.6357160  46.2024546   7.4891746  76.8039468  10.9402519  36.4042592
  77.3561862  10.4682785  35.7809520  75.9114697  10.7987171  36.0885334
  22.6934430  56.1621338  10.9543526  22.9109558  56.3002544  10.0324821
  22.5260016  55.2221828  11.0227084  29.4948268  45.9208059   5.7469237
  28.6441183  45.7208252   5.3563696  29.3296504  46.6811895   6.3043839
  48.1470337  20.3010421  39.5663857  48.5643580  20.9301906  38.9779592
  48.6557534  20.3558117  40.3753567  77.5863889   0.4379802  27.8806496
  78.0910828   0.1257663  28.6316729  77.6002696  -0.2925915  27.2623444
   7.5455711   9.4027976  65.9588370   6.9391987   9.7196798  65.2894118
   6.9844196   9.1643266  66.6967222   1.2070655  44.7350909   1.9855860
   0.2921152  44.8173739   1.7166498   1.2186074  45.0411917   2.8924492
  45.5598354  75.3204727  43.5869360  45.0154400  75.1537895  44.3564034
  46.4366484  75.0393009  43.8484240  14.5443914  17.8434877  48.3927366
  13.9278981  18.0000476  49.1080376  14.0394923  17.3523931  47.7445599
  62.9431597  24.6197013  58.5852536  63.1465993  25.4803399  58.9515158
  62.0359603  24.6938161  58.2890627  77.1574116  60.5864763  53.2873964
  78.0682194  60.3995180  53.0600071  77.1567607  61.5118504  53.5321760
  54.3701172  55.6913567  53.3838940  54.2128229  56.3015032  52.6633310
  54.5074511  56.2524128  54.1471672  19.0386293  40.9821538  66.4137268
  18.3558700  41.5266446  66.8056500  19.2073104  41.3855294  65.5622181
  25.9240415  14.6229320  65.7399845  25.0820866  14.8035865  65.3219986
  26.2602299  15.4853016  65.9839869   9.0087217  63.5318613  24.9807000
   9.6131420  63.9702654  24.3817782   8.6450589  62.8099394  24.4680476
  66.3383987  12.9736572  18.3450198  66.2469461  13.0372863  19.2957127
  67.0051315  13.6240821  18.1244671   0.4743276  76.0185099  46.7575693
   1.3935938  75.8026123  46.9143200   0.3474355  75.8608675  45.8220053
  63.5193458  11.7922382  46.4117786  63.2621959  12.6250962  46.0162398
  63.1424806  11.8182973  47.2912809  15.6161714  65.4168320  32.8572273
  15.9136426  64.7785139  33.5055280  14.6609533  65.3832245  32.9088020
  45.9903828  38.6414985  67.7121751  45.6431392  38.2116536  68.4937675
  45.2136865  38.9183311  67.2260281   4.5594043  37.1713901  37.2592926
   5.1612729  37.0689321  36.5220761   3.9253455  37.8239083  36.9619370
  77.6318220  60.0466184  36.6497704  76.9897059  59.3367795  36.6563126
  77.1344415  60.8169870  36.3752291  22.9147935  77.2544050  22.5695229
  22.5606871  77.8613806  21.9195819  23.7646842  76.9930315  22.2151232
   6.3156435   5.7081562  20.6177807   6.5887758   4.8483806  20.2977324
   5.8398220   5.5223137  21.4272785  83.1132058  59.9977235  65.1616961
  82.3946098  60.5418138  65.4839167  82.8621581  59.1047887  65.3980786
  72.8397590  53.8269758   7.4520820  72.4757665  53.6319494   8.3156246
  72.9202765  54.7806454   7.4359143  28.4906003  10.5195884  53.9989170
  28.5740754   9.9199704  54.7403511  28.9507386  10.0810508  53.2832441
  22.1403980  49.6820879  10.9572721  22.3088574  49.7475100  10.0172853
  22.4594378  48.8122702  11.1978090  65.7006123   0.7371765  36.8055916
  66.4230278   0.4986053  36.2247038  64.9234822   0.7030922  36.2477946
  27.7000929   6.7042118   7.9065907  27.3413260   7.4133640   7.3730969
  27.6583490   5.9337097   7.3401892   0.9551212  43.0750207  56.5667650
   0.4988143  42.3098020  56.9166943   0.6932852  43.7938337  57.1420714
  72.7824822  16.3587980  66.4313522  71.8993774  16.4026574  66.0646999
  72.9632357  15.4220514  66.5092245   2.1024773  21.8072395  57.1224937
   3.0541846  21.8121270  57.2247729   1.9614718  21.5777139  56.2039801
  56.7451763  48.9314222  30.4980397  56.7829561  48.9555264  29.5418906
  56.9262791  49.8318291  30.7676673  40.0069681   1.4699703   4.9297315
  40.3999570   2.2982364   4.6544725  39.5843866   1.1313682   4.1404259
   5.2250263  32.4594096  61.8982509   4.7936890  31.6273860  61.7035451
   6.1345145  32.3259238  61.6313401  50.4469397   5.1854759  21.2491226
  51.0483864   4.5875221  20.8053446  50.9665993   5.5661064  21.9571543
  74.5113891  42.4014473   8.3357966  74.9337178  41.9556618   7.6015323
  73.5856169  42.1720552   8.2548195  35.5806756  73.3220768  35.2653980
  36.4647603  73.0707645  35.5327320  35.7012177  73.7647247  34.4253016
  63.8638761  21.3893276  43.9349318  63.3435371  22.1764999  43.7742138
  64.4909671  21.3650375  43.2121611  32.3794103  79.8290205  38.1456184
  32.1298313  79.1306305  38.7507558  32.2415566  79.4531870  37.2761488
  19.6034095  10.1583509  67.1980280  18.7764451  10.1005248  67.6765911
  19.7176311  11.0936240  67.0293534  31.5117433   5.7092243  27.9115891
  31.2589493   4.9097591  27.4498677  31.6228604   5.4350906  28.8219380
   2.8987715  15.8959798  67.5752255   2.2137353  15.8468703  66.9084820
   2.5599072  16.5153197  68.2216179  81.7586306  28.3278255  64.5324418
  82.0244006  28.3402137  63.6129615  80.8583763  28.0029611  64.5171902
  14.6347454  23.3434635  14.9201584  14.4678381  23.3915764  15.8614647
  14.1330436  22.5830036  14.6265113  54.9602535   4.5076042  31.8270802
  54.2966082   3.9567810  32.2422910  55.1232794   5.2056080  32.4614692
  59.0203359   1.7230468   7.6870775  59.1173389   2.0513778   8.5809565
  58.0741408   1.6827541   7.5480759  32.2271943  70.4985762   2.5387374
  32.4495149  71.4295959   2.5414193  31.4980268  70.4246759   3.1544346
   2.0420155  80.5099487  13.0726802   2.3520648  79.8263073  12.4787664
   1.1346032  80.6627655  12.8090847  85.6738141   1.6606289  23.4990954
  86.2196448   1.8919712  22.7475786  85.4775479   2.4979358  23.9193678
  63.4239933   4.7622327  65.3850278  64.0292946   4.2565326  64.8427072
  62.5552067   4.5170764  65.0666866  44.1310930  74.5193338  12.2473419
  44.1470194  75.3747988  12.6764774  43.2122040  74.3847704  12.0154583
  43.2550192  67.2634506   4.5496356  43.6691380  67.6733589   3.7902212
  42.6453495  67.9251623   4.8762405  42.6251235  16.1207061  30.0732851
  42.5649765  15.2844673  30.5351400  41.9954279  16.0442405  29.3564391
  61.1286834  19.5974975  24.0540433  60.9490636  20.4149585  23.5895848
  61.1460569  18.9307647  23.3674598  14.6184731  73.4468746  46.7280245
  14.5345747  73.3915758  47.6799345  13.7907362  73.1010389  46.3941336
  81.7660048  14.4541031  17.5844371  80.8509496  14.6469169  17.3801541
  82.1725657  15.3133731  17.6966345  18.8567615  64.0888309  12.2101367
  19.2746663  64.9345016  12.3727250  19.1543961  63.5322905  12.9297936
  69.2675844  25.8806256  56.8609592  69.9312404  25.8122949  57.5473449
  69.4271901  26.7338781  56.4575693  74.9348453  20.2031497  62.5135448
  75.4655138  19.5474414  62.0611390  74.0703860  20.1325444  62.1086284
  17.9245150  39.6169972  15.7744908  17.6576030  40.3202438  16.3664675
  18.3684230  40.0653934  15.0546861  76.6262987  20.8958463  55.7121131
  77.4195531  21.3952188  55.9060344  76.0448435  21.5257625  55.2862617
   9.1340921  20.5358009  55.1375160   9.3306515  19.6577672  55.4640946
   8.1875536  20.5320434  54.9951038   7.4721595  25.3257995  17.7492607
   8.1276676  24.9040561  17.1936703   7.7119085  25.0690323  18.6396694
  35.2322888  59.1538334  24.2524791  35.4064608  59.6408367  25.0579119
  36.0952950  58.8647985  23.9559817  10.6815982  79.8109865  17.5880885
  10.8860970  80.5941868  17.0771980  11.3821399  79.7595119  18.2383358
  52.7445724  17.2428089  13.8034952  53.6023190  17.4792629  14.1564691
  52.9302171  16.5564399  13.1626618  16.5261436  41.1538172  35.0932693
  16.3414323  40.2284861  35.2541280  16.9759119  41.1649227  34.2483902
  21.9792414  76.7967319  32.4833846  22.0047522  75.9714651  31.9991183
  22.5254560  76.6394854  33.2535505  28.5277407  18.1548935   5.5981976
  28.6836918  17.6286655   4.8139817  27.5776329  18.2678848   5.6257844
   3.1435594  71.7009258  30.7951546   4.0548319  71.8335342  30.5339456
   2.8847855  72.5325394  31.1922550  32.1972489  62.1607828   8.8833028
  32.6079822  62.9445219   8.5182220  31.2580895  62.3087406   8.7723011
  28.9382243  73.5070372   2.8660074  29.6185780  74.0101671   3.3134624
  28.8957620  72.6807356   3.3473131  70.5295661  48.4989766  69.4098616
  71.0610047  47.9947499  70.0259462  71.0535804  49.2779664  69.2232700
  76.4691880  27.6323467  12.6586354  76.1517861  26.7294078  12.6449239
  77.3024800  27.5862175  13.1273866  82.8820994  79.5723009  50.4463911
  83.6779272  80.1040554  50.4354048  82.9293445  79.0538597  49.6431351
   4.5409822  69.2170620  11.0350537   4.5270726  70.1570749  11.2151062
   4.3813801  69.1511440  10.0935590  69.6575457  59.8682308  41.8706131
  70.1094299  60.6531096  41.5607786  70.3153545  59.1751623  41.8142509
  35.8383965  62.9314852   4.0230057  35.9038639  62.5355244   4.8920041
  36.6151381  62.6196814   3.5585898   4.4542530  77.2617865  24.8467636
   4.9344197  77.1628618  24.0246415   4.2774466  76.3648033  25.1302958
  21.9587564  30.3253007  19.5294106  22.4211359  29.5219469  19.7682774
  21.2034273  30.3506064  20.1168370  19.1778886  60.0496721  53.2979250
  18.5798705  59.3084955  53.2016802  18.7403297  60.6313133  53.9195919
  60.7024408  65.8322810  61.8862727  60.1781536  65.0795148  61.6129681
  61.5200305  65.7453488  61.3961491  13.2691276  79.6769238  27.3528266
  12.9967237  79.7741699  28.2652807  12.4648988  79.4508314  26.8855715
  65.2333692   8.1139020  64.9388817  64.5033506   8.6303786  64.5974722
  65.5988285   7.6777629  64.1691723  13.0827427  72.6145697  18.8332486
  12.9130208  72.4571133  19.7620296  12.7748656  71.8209028  18.3955979
  79.1215447  37.8780107  45.0696298  79.3827704  37.1451406  44.5120546
  79.9420193  38.1978492  45.4448077  18.4080231  31.8392515  45.6044006
  18.7886167  32.0760894  44.7586536  18.4117174  32.6547909  46.1055136
  14.0775582  37.2362928  64.7491994  13.8522241  36.3435392  64.4875815
  13.3377883  37.5228671  65.2847770  31.9673061  65.8321285   0.9241154
  32.0017481  65.5221128   1.8290666  32.3894787  66.6908407   0.9488808
  60.5788305  17.3288398  39.1349912  59.7677281  16.8806034  39.3746352
  61.1335972  16.6403824  38.7682676   4.1706747  61.4013243  39.1742301
   4.1350144  62.0782471  39.8500490   4.0871617  61.8810129  38.3501196
  84.5143318  34.2707562  46.6974401  84.7073174  34.6556234  47.5523472
  83.5947609  34.4850850  46.5403557   3.9508316   3.1170898  18.1198204
   3.0142233   3.2176166  18.2898021   4.3330213   2.9429489  18.9799583
  57.6435831  14.1478973  46.1916351  58.4765008  14.1450267  45.7199669
  57.8742149  13.8983303  47.0864868   2.2326674  67.8330660  45.3131199
   2.7265242  67.0135975  45.3415060   1.8159887  67.8915071  46.1728811
  72.6135033  42.4294281  54.9891138  73.1914443  42.3466253  55.7476377
  73.2076448  42.5130081  54.2432976  34.1914782  10.9525257  15.1577151
  33.2817700  10.7220321  15.3462195  34.2827937  11.8495517  15.4790401
  65.9779909  31.5672807  68.1932811  65.4010162  31.6102294  67.4307278
  66.4538107  32.3977451  68.1806816  82.9167941  24.3335180  46.0248300
  82.8572682  23.4456090  45.6722590  82.0067337  24.6097497  46.1330745
  27.2690964  80.1704979  41.3753080  28.0415630  80.7329369  41.3187933
  27.0812392  80.1150322  42.3122501  15.9368479  60.6239700  10.1383269
  15.5796289  61.5089607  10.0647020  16.3349247  60.4545641   9.2844725
  14.0138817  51.2646103  30.9113383  14.1567361  50.8174849  30.0771308
  13.7506342  50.5690241  31.5139079   3.1732700  57.2004155  50.4500160
   3.9993784  56.7848710  50.6972000   3.4092090  57.8002195  49.7423455
  48.5218897  11.1963707  29.8198247  49.0410331  11.9662243  30.0523138
  47.6142183  11.4719635  29.9479389   0.5919020  76.7459822  31.6898060
   0.9468073  76.0208178  31.1755991  -0.2275921  76.9727612  31.2502265
  82.4920353  53.3834743  18.6457253  83.3755171  53.7309265  18.5233736
  82.0715070  53.4925890  17.7928007  58.5075855  35.4560542   8.8494802
  59.4065380  35.3899312   9.1715699  58.5930395  35.8449507   7.9790264
   4.1978276  74.9109030  48.0586672   3.9929909  75.5363750  47.3636389
   3.7093157  75.2283287  48.8181591  26.8796730  58.0567122   5.1079947
  26.0926390  57.5740719   4.8552728  27.4906993  57.3812294   5.4022837
   2.9004118   8.1828170  15.6088483   3.3813116   7.9578262  14.8123860
   3.3244297   7.6706176  16.2973964  21.9511223  74.1355228   2.8908357
  21.8072915  74.9651194   3.3461571  21.6899633  74.3101501   1.9866598
  81.0802558  26.6162662  34.9349257  80.4098347  25.9686832  34.7171971
  81.5629009  26.2256889  35.6634375  29.2245725  20.3558021  54.2736912
  30.0518661  19.8743683  54.2796564  28.5552551  19.6834331  54.4008446
  13.2806063  62.7877045  31.3904786  13.8524675  62.0547676  31.1624146
  12.7510881  62.4610138  32.1178818  50.1426029  59.0029812  17.5646257
  49.8791456  59.7692347  17.0550394  49.7300386  58.2642746  17.1170402
  12.5029969  59.8233461  20.4779243  11.6745985  59.9084949  20.0059748
  12.2466874  59.6090221  21.3749218  62.7697668  47.9927472  44.3839428
  63.5067806  47.6016740  43.9147922  62.6406262  48.8420610  43.9617750
  42.6637593   8.7781839  60.4299548  42.2993818   9.4731216  59.8817548
  42.4550167   9.0450362  61.3251910  63.0908349  15.5834919  39.3143272
  62.5375011  14.9540382  38.8518882  63.9775231  15.3933101  39.0079856
  60.9722569   9.1854053  27.4169397  60.8007505   9.8277145  26.7282748
  60.1109603   8.9993530  27.7908158  40.4167300  64.2548180   6.2112725
  40.3737813  63.6365128   5.4818308  41.3068753  64.6050215   6.1763102
   1.3645400  79.1787767  28.7698054   1.3687035  78.7009716  27.9403973
   0.6745996  79.8339844  28.6653066  82.9423192   8.9517144  46.3574788
  83.4220150   9.6861247  45.9743783  83.5695723   8.2286767  46.3552520
   2.4852059  12.3572139  67.0710221   2.7892205  11.7697362  66.3791591
   3.2874319  12.7176551  67.4488375  44.2582336   5.0505310  27.3955846
  43.8717261   5.1358085  26.5240526  44.4455984   4.1160255  27.4841022
   5.1423186   1.1208997  59.6511051   5.3490651   1.8522248  60.2330461
   4.3834192   1.4203343  59.1504630   4.0285137   9.5257908  27.0416021
   4.9715617   9.5040088  27.2041416   3.8000110  10.4544693  27.0813227
  31.2902164  74.3764448  35.0963235  31.8477201  74.6275425  34.3598676
  31.5373564  73.4713888  35.2861333  44.5211363  77.2481537  22.9985452
  45.2498770  77.5743628  22.4705720  43.7809992  77.2176313  22.3923278
  19.0731832   7.4736076  20.7567549  19.1541883   7.9208522  19.9143529
  19.9394199   7.0972496  20.9123898  16.7738643  17.4286895  12.3484421
  17.1334913  17.4340969  13.2354999  17.3592022  16.8530994  11.8561983
  56.5907812  69.9418736  43.2098532  56.8043089  69.0406990  43.4517622
  57.4348974  70.3384352  42.9943466  58.3609608  24.7700077  38.8394046
  58.2707169  23.9261966  39.2821908  58.4300807  25.4073196  39.5502424
  79.1318992   9.6658092  19.6859896  79.4038966   9.0538078  19.0021014
  78.4431889  10.1904827  19.2777836   2.2473517  58.8383198  23.2743645
   1.8576571  58.4856796  24.0743732   1.4987919  59.0525818  22.7176023
  30.8758494   8.0716377  57.0977116  31.0643668   7.1682411  56.8436098
  31.6835820   8.3780246  57.5099325  36.6773963  80.0081253  14.2733300
  36.8418336  79.9491692  13.3322036  35.8384466  79.5644808  14.3981385
  68.6313823   0.6993061  17.7631593  68.1173017   0.6562095  18.5694444
  69.5294669   0.8474594  18.0593479  23.3178020  67.1918964  42.9562712
  24.1783667  67.1432495  42.5399828  22.7031398  67.2724438  42.2269297
  47.8934100   1.6682773  16.3936257  47.6789382   2.3482090  17.0323098
  47.9876855   0.8710819  16.9150066  54.1088488   3.5193878  12.4074829
  54.1105059   3.0533748  11.5713799  55.0228384   3.5050636  12.6914740
   6.3399861  37.1198444  67.3457754   6.3525769  38.0730037  67.4326909
   6.1574218  36.9662551  66.4187840  78.0951169   0.6535297  19.0955174
  78.3893111   1.4785438  19.4815481  77.5082734   0.9166294  18.3865595
  10.6961703  71.7664242  61.9584131  10.3712761  71.2444162  61.2248039
  11.2634921  71.1685181  62.4451208  56.9940615  56.7377090   6.9443381
  56.3288069  56.3118076   7.4849689  56.5507984  57.5026464   6.5774405
  38.4082886   8.1888443  19.3102312  39.3511799   8.0832248  19.1836059
  38.1478086   8.8285690  18.6475587  23.3909890  63.1904439  66.3051811
  22.4592063  63.2526044  66.5152830  23.4171102  62.7314023  65.4656374
  51.4272192   2.4258094   9.0774029  51.5699294   2.0970588   8.1898266
  50.7225254   1.8790966   9.4248915  63.6959555  11.7548805  34.8868680
  64.3153718  11.8602901  34.1647577  63.5320094  10.8126407  34.9261856
  30.9634495  70.7886076  11.0335386  30.2382302  70.2264404  10.7610309
  31.4530802  70.9552097  10.2280986  31.9142675  58.6681271  24.6211624
  32.5335217  59.0041685  23.9732170  32.1095777  57.7327013  24.6765161
  21.2174296  77.6726437  26.0500479  21.7345476  78.4572077  26.2324739
  21.8643546  77.0108843  25.8055282  11.9719672  50.1261330  14.3493819
  12.3939323  49.3466377  14.7107208  12.6697266  50.7802773  14.3112254
  60.8567908   3.1905037  18.4871900  59.9051431   3.2796436  18.4357047
  61.0271457   2.9655986  19.4018650  62.5821343  35.7507638  67.6119506
  62.7875802  36.4350299  68.2489799  61.6819510  35.9354428  67.3440036
   0.1770040   7.5277000   3.0105704   0.6078836   6.6732650   3.0335364
   0.2947399   7.8791099   3.8931119  42.8582621  57.9853392   1.0656565
  42.9308701  58.6610889   1.7396884  41.9168901  57.8944635   0.9180386
  35.3671422  15.7051521   2.8880149  34.4830480  16.0564953   2.7823466
  35.3112724  14.8108154   2.5514436  15.7768285  60.0294638   2.7043977
  16.5196419  60.5678177   2.9775983  15.3377402  60.5505896   2.0321903
  45.3952408  68.9572716  11.4413297  45.8519173  69.6022034  11.9814587
  45.9340096  68.1685114  11.5031493  36.4999708  15.3854900  32.1032143
  36.6509577  14.8009449  31.3604212  35.7547417  14.9998718  32.5638342
   0.4634020  36.1340789  69.6017670   0.2069184  36.1397771  68.6795878
  -0.2517870  35.6791476  70.0464800  57.8949693  15.9230190  43.1046295
  58.6287024  15.3557163  43.3413601  58.3044460  16.6884285  42.7012587
  52.9206899  21.6646534  41.5337849  53.7368539  21.2022834  41.3432026
  53.1675961  22.3327404  42.1732616  49.8579767  36.4895969  11.6229737
  50.2707174  35.6262260  11.6013503  49.0310195  36.3482624  12.0838439
  48.8655519  62.0542574  10.4384780  49.7155523  61.7566013  10.7627165
  48.7264585  62.8972960  10.8699560  17.4681089  28.0044822  42.9882738
  17.5842521  28.0167083  43.9383241  17.3382518  27.0804862  42.7747247
  48.0187225  74.2577457  14.0443122  47.7255869  75.1509953  13.8642931
  48.3288908  73.9325476  13.1991649  36.8506193  58.1098223   0.0387291
  37.6142645  58.3745956   0.5515403  36.1014581  58.4232187   0.5454571
   6.5857238  22.1181893  16.9900763   7.2371507  21.5688348  16.5540886
   7.0106220  22.3950887  17.8018761  25.8763742   9.1491151  14.0723157
  25.1100898   9.7218835  14.1035521  26.6229582   9.7481006  14.0644455
  71.5479806   6.0429506  47.9428002  72.2791663   6.6072683  48.1940910
  71.2559679   5.6489925  48.7648460  13.3483768  56.8019031  65.7473349
  13.3167541  56.5563069  64.8227194  13.3939207  57.7579890  65.7397744
  63.5973197  44.4779730  62.3815966  63.1970364  44.2467737  61.5434074
  64.0379935  45.3111792  62.2148418  42.9241312  64.7305177  67.2328326
  43.0451692  65.1465128  68.0863729  42.6843465  65.4492830  66.6479281
   2.0148668  54.0153742  13.4179652   1.1846523  53.7661457  13.8239968
   1.7624326  54.4429016  12.5995946  18.5016287  56.0303389  55.5161497
  18.6549926  56.8041121  56.0583553  17.9133738  55.4848014  56.0382375
   2.7179572  48.6925411   9.7864717   2.1254648  48.6601686   9.0353811
   2.3935142  48.0126143  10.3769493  28.6360863  75.2998293  21.0239720
  28.0235699  74.6314693  20.7168055  28.5009554  76.0391278  20.4311728
  24.1326523  26.4001894  40.3577375  23.6839771  25.5548000  40.3732157
  25.0028849  26.2031722  40.0111675  70.0380519  70.8827168   6.4993584
  69.3394307  70.2284152   6.4924020  70.0413194  71.2390644   5.6109685
  15.6069660  30.2384138  54.5410490  16.0615230  30.5530524  55.3224659
  15.5035293  29.2980003  54.6864891  68.6637595   7.7991227  37.9305503
  68.7454120   7.8686647  36.9793770  68.3686343   8.6658744  38.2096144
   5.7940722  38.1380939  14.2395556   6.5531224  38.7194276  14.1934419
   5.4671705  38.0992651  13.3407462  19.5278621  68.5752629  44.7342798
  18.6371363  68.5403918  45.0830242  19.6606023  69.4958018  44.5079634
  35.4825449  65.8272839  12.4714124  35.2794790  64.9088621  12.6488996
  34.6455622  66.2115669  12.2106123  11.9049811  31.5424562  25.2722001
  12.3862612  30.7161260  25.3143859  11.6938114  31.6495585  24.3447471
   9.2846698  62.8779793   8.3064783  10.0565219  63.2511854   7.8808087
   9.6359283  62.3761702   9.0420288   2.3926672  42.8386450   8.3085787
   2.5947875  43.7742043   8.2985139   1.6326347  42.7639961   8.8856494
  19.4687617  50.6111288   7.0740592  18.6853063  50.0908089   6.8960243
  19.4361711  50.7785368   8.0159426  35.8394289  65.7546234   8.8978016
  36.6633344  66.1984110   9.0989685  35.2100754  66.4644051   8.7699217
  58.3815050  53.2426596  37.6863766  58.3197975  52.3928547  37.2501922
  58.8798809  53.0666399  38.4844184  30.4228262  66.5934394  68.0479726
  30.9469794  65.8098792  67.8820571  30.1905026  66.5343927  68.9746717
  46.5530313  69.3541978  66.8225562  46.4143110  69.7734378  67.6718065
  47.1630443  68.6394905  67.0050636  12.7634705  62.7473043  57.3976883
  12.1102703  62.1403383  57.7457592  13.4497560  62.1826075  57.0422134
  80.0761074  20.3211379   4.5782080  79.8017943  20.1374173   3.6797476
  79.4595808  19.8307014   5.1218992  11.4364219  34.7592282  22.5284219
  11.9889688  35.1518226  23.2042861  11.7014515  35.1958752  21.7188978
  18.5381377  67.5634909   8.2231343  18.2269979  68.3368826   8.6935484
  17.9446292  66.8632364   8.4944791   7.7144623  53.4393311  15.5593717
   8.4166545  52.7979946  15.6682122   8.1046391  54.1339684  15.0288308
   5.8416653   4.8475873  29.4142437   6.1466700   5.3003806  30.2004886
   6.3282198   4.0232909  29.4086123  40.2000499  74.7755836  63.1876418
  40.5613518  73.9284371  63.4484753  40.8199513  75.1112197  62.5401059
  81.7321709  40.0942735  52.0755026  82.1832875  40.8239106  52.5001785
  82.1737483  39.3131093  52.4087080  73.1606487  19.6060256  46.8098661
  72.3304203  20.0754670  46.8909761  73.7954250  20.2815370  46.5711591
  47.8295720  69.6587871  62.5898454  48.5107112  69.9881052  62.0034745
  47.3886717  68.9754962  62.0849183  11.4598501  43.8141489   5.1300466
  11.9123018  43.7128830   5.9674615  10.7619858  44.4442368   5.3095227
  19.8744226  19.8241639  48.1449175  18.9452851  19.6497881  48.2950115
  20.3238797  19.3406987  48.8380861  23.1861449  72.4050950  58.2225212
  23.1026924  72.8306078  57.3691711  23.6347259  71.5803312  58.0360541
  85.6168011  23.5000277  11.4087439  85.7992677  23.6631989  10.4833722
  86.0660852  22.6767206  11.5999103   6.6279382  19.8548472   9.2619163
   6.5563715  20.4497790  10.0083530   7.5624460  19.8413002   9.0551722
  67.9429332  23.1397037  65.7586431  68.4999684  23.4846763  65.0608346
  67.4420777  23.8970021  66.0617551  30.5784175   1.4350824  53.2133803
  30.4482076   0.4911355  53.1225821  29.9587533   1.6979722  53.8939223
   8.4680128  35.2995205   0.5681550   8.6927229  34.3705058   0.5165102
   7.9068458  35.3676224   1.3406092  44.2076254  16.8579090  19.5844972
  44.3790293  17.7947474  19.6803391  43.6742210  16.7918158  18.7924457
  47.5651527  78.5126422  37.7470300  48.2280446  78.6805438  37.0772430
  47.0019961  79.2863606  37.7259156  17.5712013  72.5892735  13.5917401
  17.3994839  72.7373171  14.5217013  16.7231083  72.3329735  13.2294130
  15.9310052  31.8906573  68.8775368  15.1512811  31.8176679  69.4279346
  16.6489122  32.0261411  69.4959912   9.4112489   5.0544099  52.2640964
   9.8529241   5.8756332  52.4803206   9.7956941   4.4115571  52.8600606
  82.0890057  40.5512381   7.1570826  81.7449880  40.0102806   6.4462727
  82.5413641  41.2692308   6.7142624   2.1025525  46.1445236  23.2605195
   2.7374148  46.1067438  22.5451493   2.5984848  46.4897394  24.0028858
  19.1110039  36.6427708  23.0025816  19.7188711  37.3748589  23.1063843
  19.3623483  36.0237265  23.6880302  31.2204027  36.6052651   8.3672553
  30.3168845  36.7917132   8.6224514  31.2533593  36.8133593   7.4335301
  32.8836560  47.7003241  16.9719839  33.7550020  47.9790354  17.2536099
  32.9303861  46.7443514  16.9594121   5.6039870  50.2161598  25.4736137
   6.1069304  49.7263718  24.8229313   4.6921688  49.9874115  25.2933478
  14.6733901  77.2656328  54.8451757  14.8423431  77.7409557  54.0316916
  14.1261909  76.5259702  54.5811605  35.0424051  54.5407486   1.6919930
  35.9110618  54.6920538   1.3194659  34.4522977  55.0535440   1.1396839
  59.7367417   0.4930715  31.1112544  59.9193332   1.4326934  31.1117384
  59.4881316   0.2978543  30.2077529  24.5094156  38.8474822   8.3610994
  24.9823403  39.3939376   8.9887607  24.3295145  39.4306421   7.6236761
  16.4007041  72.5968242  30.4422188  15.8433101  72.6651121  29.6670556
  16.1021468  71.8010891  30.8825588   3.7474978  43.8207197  13.5284424
   3.5228199  43.5535431  14.4197154   2.9067868  43.8669491  13.0731404
  59.3109179  80.1177120   4.9792990  58.7358046  79.8430061   5.6934494
  59.2659187  81.0737896   4.9898019  28.9345217  42.5777054  16.9235992
  29.6776223  42.8150988  16.3689113  29.3108821  42.4767160  17.7978909
   4.8128211  51.3568115  17.0073617   4.1508412  51.2822104  17.6947117
   4.4087481  51.9180536  16.3455737  68.0502692   1.9714812  65.0126973
  67.8461459   2.6816873  65.6211159  68.8321987   1.5590123  65.3796950
  24.7659349  75.4391766  18.8386953  25.2648854  75.0773287  19.5710540
  24.6217465  76.3551044  19.0764272  75.3188068  14.0812039  36.2901974
  76.2457794  14.1765344  36.0714149  74.8578721  14.5261490  35.5790067
   3.3354270  77.9549551   0.5526602   2.9620022  78.3452988  -0.2375395
   3.4393761  77.0284176   0.3359718  69.5576170  15.1142625  67.4879870
  70.3095523  14.8553828  68.0207197  69.6706525  14.6368388  66.6660866
   7.5859129  73.0701065  27.0334172   7.5450820  73.7578011  26.3688564
   8.5111398  73.0246353  27.2744966  37.1666598  39.2043209  38.0631113
  37.7701616  38.6039662  38.5008240  37.2447634  40.0224638  38.5537958
  45.7738733  39.9813986   7.2775906  46.5288162  39.7067547   6.7571455
  45.0420761  39.9737072   6.6606301  45.5769062  50.3947210  14.2876518
  46.0973120  50.1318121  13.5285151  45.1099396  51.1785126  13.9980912
  14.0027082  21.9357920   8.3315545  14.9483919  21.9838357   8.1915265
  13.9078116  21.7605090   9.2677718  17.0176041  47.1629953  13.1446517
  17.1641779  46.2192822  13.2090747  17.7120101  47.5501728  13.6776876
   6.2236667  41.9127083  30.0806570   5.6043369  41.6589832  30.7649708
   6.1542940  41.2183905  29.4254136  47.2111225  72.4981451   9.8444831
  46.5251255  72.0948458  10.3764498  47.3325825  71.8939400   9.1120780
  86.0595457  63.0105019  38.7394476  85.4017401  63.4951067  38.2407689
  85.7636239  63.0704403  39.6477795  16.0887241  62.8916931  23.5819840
  15.3147018  62.3350811  23.6674762  15.7746816  63.7720108  23.7885046
  76.8223405  75.3000091  54.5813307  75.8731580  75.2115058  54.4950256
  76.9661117  76.2397574  54.6928415  13.9864194  37.5517058   8.9078933
  13.8720691  38.4944820   8.7882006  14.3423951  37.2457957   8.0736685
  43.3219624  66.4003705  56.9538960  43.6864901  66.6441296  56.1030528
  42.5350368  65.8981560  56.7423233  36.5312452  72.2517179  68.2429472
  36.0037876  72.9722141  67.8981215  37.0112265  72.6360010  68.9765524
  30.3330517  43.5133791  10.2846825  29.8380542  43.1750107  11.0308158
  29.6640229  43.7717104   9.6507275   7.5111216  24.9034071   6.4475173
   7.5390548  24.0936518   6.9571692   6.8271369  24.7523403   5.7951528
  42.3228931  26.7666721   7.6950681  42.9265881  26.1389375   7.2979140
  42.8861094  27.3564863   8.1962007  73.4989789  45.1594381  69.1954480
  73.0570510  44.9646978  68.3690038  73.1604722  46.0173253  69.4517203
  31.8171933  74.6255768  24.6208286  31.8320778  75.4769600  24.1836143
  31.0896972  74.1581935  24.2103004  50.5626822  66.2336969   2.6857394
  50.2642918  65.9903955   1.8093842  50.3569460  65.4726934   3.2286739
   8.3077306  66.1049509  41.6518879   8.2412058  67.0182896  41.3732815
   8.7021929  65.6548023  40.9048939  71.4470607  35.3430915  48.2196045
  72.2370571  35.6675243  48.6519003  71.7309934  34.5494413  47.7660275
   4.5182678  72.5580311  34.8653126   3.6717170  72.2662449  34.5270181
   5.1491255  72.2864151  34.1986227   6.0285637  13.5084085  24.0642235
   5.3347418  12.8999976  23.8099024   5.5754158  14.3371658  24.2192957
  26.9383955  79.2515135  24.2453313  27.7704072  78.9783955  24.6318483
  26.3132548  78.5829592  24.5254469  26.8906260  11.5892458   1.2853955
  27.0994258  12.4436522   1.6630518  26.7978954  11.7580223   0.3477670
  15.9100294  36.6931129  17.2471261  15.7122111  35.7570624  17.2772729
  15.8485210  36.9211626  16.3195252  30.8451486  39.0430832  17.5535882
  30.9052730  38.2750177  18.1216478  29.9982309  38.9522862  17.1168756
  64.4140822  47.1732950  51.5000582  63.5093957  47.4114799  51.7026424
  64.4491059  46.2266970  51.6377258   4.3346304  21.8010235  34.3952250
   5.1356691  22.2576737  34.1382480   3.8744947  22.4231791  34.9586344
   9.5481384  13.6897993  28.4893084   9.6646541  14.5578468  28.8755083
   8.5998470  13.5905063  28.4049511  42.9457617  46.1657524  17.5770998
  42.8578520  46.7735958  18.3112848  43.4588337  46.6469193  16.9278979
  23.3134935  15.3640918  67.1426004  22.9162166  14.6939449  67.6987579
  24.0405652  15.7066230  67.6624757  79.8132890  31.2812018  19.0868747
  79.7861934  30.5439019  19.6966994  80.5660868  31.7995906  19.3711293
  70.1784709   5.1182393  60.7606074  69.5248154   4.6553878  61.2847617
  70.6674949   4.4235400  60.3196123  45.5780792  78.5733175  29.6573400
  45.4898405  78.1989861  28.7808013  44.6826982  78.7918997  29.9156857
  71.9307375  57.8881550   1.9551408  71.5224123  58.4863615   1.3293169
  72.7491951  58.3198452   2.2001016  12.5376379  46.1617565  15.8073330
  13.1446517  45.4285955  15.9085453  11.7599583  45.8985186  16.2994206
   0.1324766  49.2269468   2.5117615   0.7885424  49.5789242   3.1133610
   0.2876396  49.6917725   1.6895114  12.4080846  14.1013412  58.7763974
  12.9834506  13.3615712  58.9711413  11.7023132  13.7240771  58.2512423
   9.2172024  27.4596242  65.7603550   8.3984492  27.2650270  65.3042757
   9.8084328  26.7519883  65.5035797  15.9792030  71.5194368  18.0367684
  16.3522756  70.6439352  17.9340780  15.3009427  71.5712643  17.3633385
  79.2598275   4.9201564  60.7316253  78.4944704   4.8949556  60.1573226
  79.2356113   4.0855674  61.1997196  66.4880625  16.1051254  51.7572316
  67.4356166  16.1922626  51.6534063  66.1213628  16.7773132  51.1828384
  11.6824245  58.5427856  27.6120210  11.3209748  58.2482195  28.4479761
  12.3834097  59.1479635  27.8541088  28.1671405  54.0737391  33.7923741
  28.9024162  54.0213680  33.1817508  27.4824619  53.5400200  33.3891511
  50.0885773  63.7382269  16.6943073  49.8222160  64.6498346  16.5748775
  50.8423328  63.7840366  17.2825146  57.3157116  40.6651811  62.4367300
  56.4566568  40.4593877  62.0680782  57.7766129  39.8264150  62.4528399
  54.6268773  15.4662923  63.1525150  55.0249049  15.9374646  63.8845000
  55.0479362  14.6067456  63.1636360  54.5623088  77.3645710  53.2496485
  55.2744747  77.4547719  53.8828263  54.5150424  76.4246963  53.0746266
  43.5634804  43.9433861   3.3424369  43.6178780  43.4077597   2.5509956
  43.0966806  43.3938122   3.9719617  66.4220515  25.3099326  65.9937850
  65.6765220  25.8927135  65.8496138  66.8163982  25.6224565  66.8080649
  46.4362046   1.3693837  67.8433904  46.9655845   2.0410899  68.2732734
  45.9928748   1.8324022  67.1325415  17.9544616  66.4955425   5.6768513
  17.1793664  66.9549656   5.3537536  18.3114743  67.0732450   6.3514143
  56.1521053  48.9848042  21.5529132  55.9794378  48.0433846  21.5648365
  56.8960333  49.0993786  22.1442461  60.6154948   8.3779026   3.5994461
  61.0054129   8.9793183   2.9650191  59.6908405   8.6239792   3.6257866
  22.9104185  23.2355571  25.8090138  22.7495384  23.8094878  26.5579796
  22.3671961  23.5974646  25.1088953  18.2241547  28.2516670  55.1852989
  18.7690115  27.4668622  55.2439833  18.6908269  28.8221097  54.5745230
   2.1006891  81.0344124  26.2182999   1.9790412  80.0964355  26.3653994
   3.0367461  81.1791039  26.3564801  36.4682055  66.1549234  29.8962736
  36.1234069  65.6137609  29.1860032  36.3269830  65.6323957  30.6857347
  83.9228903  14.6392620  47.1972752  83.5969777  13.7421393  47.2692633
  84.8586833  14.5700204  47.3862934   5.3391981  24.8487830   4.3432975
   5.2831179  25.6130266   3.7696970   4.4889086  24.8153853   4.7816166
  85.7232955  23.2416896  60.4244545  85.4194263  22.5277404  59.8639461
  86.2538102  22.8108529  61.0946515  45.5972701  66.5136242  24.9510217
  45.3066617  66.2341785  24.0828729  45.9200841  67.4051809  24.8200583
  60.3330040  49.4891405  30.8790827  60.0242233  49.1686535  30.0316334
  61.0176420  50.1215458  30.6609917  54.3232155  76.5542936  40.8395529
  55.2495289  76.5046787  40.6035137  53.8738155  76.7238235  40.0115824
  44.6856356  28.3777118   4.1880316  44.9661541  28.5471606   5.0873792
  45.1015806  27.5463104   3.9600179   2.1143104  27.0217609  40.6606531
   2.4543256  26.2221789  41.0622597   1.4148808  26.7199421  40.0810528
  76.1428094  18.0594158  10.1914930  76.5201116  18.9172304  10.3865039
  75.1978487  18.1897521  10.2708280  80.3355196   9.1977958  60.0275966
  80.7582906   9.3907527  59.1907784  80.5539230   8.2820729  60.2007523
   6.6082841  47.1219254   8.9280337   7.2983634  46.5075588   8.6778796
   7.0407963  47.7417517   9.5153832  24.3901634  47.3426390   2.7082485
  24.4063282  48.2102299   3.1122968  24.1601801  47.5084496   1.7940021
  70.7343239  51.8007946  22.7702212  71.3414675  51.3497305  23.3568645
  69.9426728  51.2629318  22.7851772  44.4690407  66.8500684  59.2890069
  44.0253473  66.5770863  58.4859821  44.2782581  67.7852176  59.3620202
   3.0400986  77.1447848  58.4574065   2.5487656  77.9324363  58.6907074
   3.9583248  77.4070357  58.5231170  32.3841143  52.4913168  22.3754168
  32.2671676  53.2482910  21.8013549  33.3271646  52.3275709  22.3667455
  62.6610708  26.1402655  14.8679686  62.4407673  26.8030167  14.2134035
  63.3066034  26.5660644  15.4320753  34.5891333  72.7312279   1.2461610
  34.6294522  72.7566099   0.2901475  33.6656785  72.8779840   1.4509201
  52.2438145  55.6191778  16.5356445  51.6912842  55.9985542  15.8522570
  53.1077051  56.0032177  16.3858533  41.1037111  64.4608450  12.4601543
  40.5333567  65.2245998  12.3729289  41.4165306  64.2927599  11.5712643
  18.0850804  51.0737419  38.4717727  18.0683589  51.8751097  38.9949965
  18.7244081  51.2514210  37.7819037   5.5715954  44.2727518  19.7251642
   5.7760352  43.9859867  20.6152201   4.9559954  43.6169815  19.3977010
   9.4365376  39.0494967  42.3840666   9.2015034  39.8810077  41.9722652
   8.5979807  38.6572480  42.6273680  29.3870369  19.1924911  17.8497541
  28.9627588  18.5427910  17.2892976  28.7896985  19.2965084  18.5904276
  38.9866924  56.5486240  10.7024992  39.8700571  56.1806297  10.7243443
  38.6182690  56.2381315   9.8754025  34.1325474  51.9661713  26.7811155
  33.9899063  51.8936205  27.7248430  33.3552480  51.5673065  26.3900352
  45.3349018  45.3125334   5.1054263  44.6911049  45.1710176   5.7994968
  44.9634600  44.8724365   4.3408471   6.8292052  75.1620054  32.8395796
   6.4676380  74.3655586  32.4507713   7.7737987  75.0872278  32.7039981
  45.6998063  76.2339138  64.9616846  46.2342263  76.0117076  64.1992870
  44.8505998  75.8290623  64.7851220  16.3395441  27.0794892  39.4091201
  17.2372711  26.7671895  39.2960334  16.4257658  27.8668118  39.9466348
  27.3562924  75.8530949  67.7525163  28.1043572  75.2706836  67.6205018
  27.4856248  76.5569447  67.1168268  78.9221600  29.5240239  60.2898583
  79.5067314  29.8839215  59.6227869  79.0238193  30.1108388  61.0392222
  71.2036115  30.1017594  27.1886539  71.3246041  29.2166281  26.8449426
  71.0763830  29.9781251  28.1292701  60.0182104  48.7186527  17.2382748
  60.8197355  48.3079386  17.5624657  59.9018383  48.3564425  16.3599277
  32.1724820  56.0862303  17.0988536  31.3876653  55.6259775  16.8014252
  32.0501256  56.1826658  18.0432904  32.8375220  62.6117039  18.3151484
  32.7519727  63.2308722  19.0400910  31.9607449  62.2419882  18.2112050
  18.6297917  24.3481541  20.0685573  18.6258173  23.3967996  20.1741004
  19.5572078  24.5850682  20.0668049  83.2154497  35.1358986  28.6460924
  83.7782390  35.7659698  29.0961051  83.5503630  34.2805815  28.9153433
  71.9174150   1.3902930  63.7621125  71.3625518   1.1475448  63.0208746
  71.4013151   1.1575965  64.5339444  78.1860512  42.3829222  18.1909072
  78.9170808  42.1756983  18.7730455  78.5977763  42.7666187  17.4166393
  39.7911453  32.9451442  44.3474150  40.5043364  33.5192084  44.0680599
  39.6247244  33.1948519  45.2563620   5.4545391  56.6802979  19.7897279
   5.6997228  55.7958174  19.5180368   4.9517795  56.5530014  20.5942535
   3.4382808  79.8968744  52.0954418   3.8697660  79.0574980  51.9357443
   2.7248186  79.6884966  52.6985836  67.7338460  32.6362495  62.8229931
  67.4188712  33.3537893  63.3726838  67.9387394  33.0492953  61.9841573
  49.6146727  61.1675167  16.1739922  49.4950247  62.1050739  16.3253403
  50.5612230  61.0585976  16.0822392  14.4299352  18.5315454  12.1655130
  13.9667225  17.9848039  11.5308964  15.2804053  18.1056428  12.2729337
  50.8967087  21.7368869  43.8354966  51.0998658  21.8713359  44.7611758
  50.8547071  20.7858829  43.7351772  46.0360813  54.8432779   1.3867767
  46.6926956  54.7466707   2.0765281  46.5460491  54.9431992   0.5829230
  27.1230912  30.2903533  15.2827191  27.2171903  31.0724926  14.7389948
  27.9425907  30.2407551  15.7748473  24.1878793   5.0452642  57.0350274
  23.6416051   5.8277158  56.9602796  24.7493932   5.2165155  57.7910742
  20.8433485  39.4614387   3.3493930  20.1926470  39.2286563   2.6871008
  21.1665368  38.6207652   3.6735046  24.4955683  77.5947618  38.6728859
  23.5430145  77.5089788  38.6339688  24.6531487  78.1821728  39.4120407
  21.4443779  61.8341970  32.2135925  20.5815315  61.7825603  31.8024206
  21.8633437  62.5874901  31.7973638   3.4702197  63.5553217   1.3468257
   3.1290993  64.4487286   1.3056168   3.3072153  63.1962395   0.4746328
  39.4575953  30.1062417  14.3453562  40.2568150  30.4983354  13.9935875
  39.1645122  30.7217526  15.0172806  36.8312097  77.0651627  23.4539676
  37.3628378  76.3573933  23.0897284  37.3642254  77.4244404  24.1632223
  29.4862366  61.9810247  12.4788785  29.9202394  62.7078199  12.9256928
  30.1387858  61.6578531  11.8576121  56.8424561   9.4049888  31.0429502
  57.1548465   9.2201763  31.9286633  56.1353543   8.7753730  30.9021258
  27.9713058  68.5283756  16.9402134  28.0333948  69.4736147  17.0777035
  28.0314159  68.1540442  17.8191292  35.0272727  75.0733423   5.5311042
  34.7693491  75.9881592   5.4178953  35.3290796  74.8006010   4.6646419
   7.2319886  48.1877259  20.0386926   7.7510974  48.2561807  19.2374012
   7.2271988  49.0751199  20.3975078  61.3325191  68.6171197  67.4387178
  61.4149547  67.9606150  68.1304109  60.4971910  68.4166120  67.0165145
  40.0347805  47.5349188  27.6878095  39.2267442  47.8295469  27.2676826
  40.1990461  46.6703558  27.3112679   1.7665264  24.5433358  55.6484482
   1.4784500  24.9984054  56.4397499   1.8793938  23.6333684  55.9231231
  50.9787369  52.6988125  19.7174394  51.4379072  53.4667921  19.3774378
  51.0168934  52.0616722  19.0041184  42.4383545  64.1343975  22.8643155
  41.5029383  63.9529657  22.7731395  42.6368523  63.9169121  23.7751007
  30.9724689  57.9468822  29.8431993  31.0338092  58.9020157  29.8295951
  30.2684522  57.7432966  29.2274523  51.7456200   0.1019340  14.9278390
  51.0347298   0.6686454  15.2273560  51.4710048  -0.1871819  14.0576506
  10.8739150  51.5374851   5.5582988  11.3273513  52.0941067   6.1913884
  10.9028685  52.0329475   4.7398168  14.4969604  26.4779119  48.0810830
  14.0966985  27.3470716  48.0568001  15.4297063  26.6397313  47.9395482
  17.4605620  56.0788155   5.5180913  16.9814289  55.2845573   5.2818435
  17.9166710  56.3311148   4.7152573   8.9961386  71.8621540  24.3315339
   9.0405321  72.3502636  25.1537299   8.4985524  72.4295473  23.7427187
   9.1508961  58.3507299  56.5014791   8.8205504  57.4529457  56.4684153
   8.3659458  58.8966084  56.4556599   3.8954612  30.5102878  18.5868120
   4.2742464  29.8901611  17.9637551   3.3352825  31.0739475  18.0532157
   7.3851633  51.1069155  19.9884009   6.9975173  51.7395353  20.5931759
   7.0293409  51.3449335  19.1322637  21.8559739   3.7262468  65.4549378
  21.2555406   3.0923394  65.8472037  21.3580939   4.5433549  65.4288453
  47.2596788  63.5628891   6.2403601  46.9469595  64.4107199   6.5559828
  46.4703274  63.0252838   6.1760128  24.8984575  71.3235331   6.6949254
  25.6739926  70.7695150   6.7834693  24.1631460  70.7109880   6.7134368
  81.7461112   2.8363376  20.4021430  81.6184523   3.3861118  21.1752462
  82.4400332   2.2268539  20.6535959   5.4608366  30.0448970  36.8707964
   4.7397182  29.6722297  37.3780796   6.0566542  29.3098907  36.7258689
  29.5999656   2.3265796  24.0862274  30.4284218   2.2423130  24.5582342
  29.7234603   1.8080383  23.2911849  81.2006069  49.8977535  67.2083223
  81.4306808  50.6786977  67.7117330  82.0402790  49.5517640  66.9058815
  63.0244193  16.4476947  24.5236275  63.9288226  16.3187484  24.8093864
  62.5550243  15.6856755  24.8630783  61.9761756  15.4917484  41.8907547
  62.6921561  15.7715755  42.4611044  62.3479250  15.5182892  41.0090923
  64.8924663   5.4455524  13.7659609  64.4620040   4.7412067  14.2505550
  65.6296161   5.0195556  13.3284998  30.9559679  45.0807953  23.0288887
  31.3866806  44.2304754  22.9413009  31.1270809  45.5227470  22.1972442
  39.6964979  62.5763607  10.2157533  40.2854490  63.2771873   9.9360937
  38.8217211  62.9601908  10.1551616   6.1662018  72.1817493  32.3433495
   5.9620064  72.5937366  31.5038228   6.6957068  71.4183378  32.1130085
  70.4108858  80.6047726   7.3293555  69.6412182  81.0083675   7.7305508
  70.9411669  80.3114510   8.0702972  34.1121539   2.8715568  25.2642703
  33.4768563   2.8824669  24.5483732  34.9626276   2.8134018  24.8289037
  39.6175694  70.8381987  15.9690177  40.4863214  71.1355543  15.6986701
  39.1066694  70.8240175  15.1596904  45.8871219   3.0303172  49.6731087
  45.1202581   2.5128440  49.4274017  45.8822677   3.0260638  50.6302878
  12.1637532  34.7180299  62.6041701  12.9034040  34.9853257  62.0585468
  12.5626752  34.4382171  63.4280601  83.7901020  29.8798490  28.2004476
  83.2780647  29.6926284  28.9872074  83.3883858  30.6681657  27.8351927
  76.6532627   3.1454925  57.3549947  77.5357297   3.2347039  56.9950959
  76.3381365   2.3092441  57.0120415   9.9639485  29.4819383  44.1248366
   9.0433595  29.5062188  43.8637659  10.1460097  28.5542468  44.2747280
  11.0984755  37.3935890  29.1964531  10.9295678  36.4764833  28.9805412
  10.3931201  37.6318431  29.7980666   3.6859724  46.2435559  57.8064760
   3.7792298  46.3191823  56.8568358   3.8752005  45.3240232  57.9932496
  67.3939517   1.3895946  20.3141737  66.9152429   1.6699367  21.0942245
  67.5723150   2.2007042  19.8382294  22.4889228  14.2199067  56.0070023
  23.2199809  13.6987476  55.6750759  22.5441549  15.0446824  55.5243704
  61.8619898   7.0147758  13.7421322  62.7540782   6.6695076  13.7767863
  61.9026974   7.7190166  13.0951238  61.3254166  41.9909716   6.6232365
  60.9144735  41.5115452   5.9038585  62.2261095  41.6675568   6.6429472
  22.5617170  49.4234228  28.5264492  22.3498440  49.7638464  29.3956184
  22.4070239  50.1608706  27.9361367  42.5794935  37.4615502  10.7792938
  43.1835651  38.0057955  10.2741957  41.7197943  37.8544641  10.6283927
  29.3852088  27.8059129  66.3589841  29.2003390  27.8711061  67.2958961
  28.5962674  27.4126319  65.9859782  34.2394686  77.8750229   5.1330453
  33.9758134  78.2583332   4.2965117  34.8817158  78.4904099   5.4866660
  17.0735109  43.4896898   2.1879242  17.9852581  43.6068487   1.9210503
  17.1098411  43.4237623   3.1421596  62.2773170  49.7364521  27.1348834
  61.7843199  49.5097685  26.3463426  63.1949806  49.6733522  26.8700337
  14.5838163   8.0437926  63.2314768  13.6851403   8.3704070  63.2754007
  14.4928310   7.0909337  63.2358667  47.8696582  12.2134809  59.2636308
  48.2433698  11.4437370  58.8346073  48.2946870  12.9564647  58.8351950
  20.3685853  22.9223804  66.7277849  19.6445081  22.3018531  66.8107992
  20.5024383  23.2544069  67.6155189  46.4740503  76.0360168  58.7289926
  45.7790840  76.6737460  58.8919458  47.2573567  76.5669535  58.5848793
  45.1222706  36.8606806   5.8522278  45.1791763  36.1620450   5.2003831
  45.1826525  36.4085746   6.6937667   0.4082605   7.5338607  13.5313845
  -0.1394299   7.1025901  12.8754365   0.4128954   6.9299942  14.2740536
  79.6500397  34.6548319  17.4326766  79.8362017  35.1233006  18.2463801
  79.0391922  33.9637327  17.6885617  34.0503025  70.8485651  17.3490477
  34.2919302  71.4079428  16.6108429  34.4765759  70.0115442  17.1648836
  51.2683439  22.8019285  29.9491906  51.4260578  22.3708367  30.7891417
  50.4644775  23.3036065  30.0846672  21.5467024  18.1981814  42.8920317
  22.1113324  18.7902927  42.3952103  21.7157316  17.3343074  42.5160217
   4.4043729  66.2868718  64.8530188   3.7791440  66.2892751  64.1282323
   5.2141592  66.6263322  64.4719109  71.8487039   0.6683997  42.3264834
  72.4154154   1.3805370  42.0299575  72.4227324  -0.0969001  42.3587605
  76.0040557  77.2388077  21.0712147  76.6999453  77.1241093  21.7183733
  75.8263367  78.1793594  21.0747576  86.1718205  40.5481652  67.9727919
  85.5844501  40.9691076  67.3450687  85.8204964  40.7908277  68.8294822
  79.0320304  64.9330739  41.9937226  78.3188847  64.3779020  41.6783997
  78.5926774  65.6878785  42.3854944  11.9801137  48.7045316  66.6333100
  11.0521600  48.9390878  66.6225091  12.3507449  49.2261819  67.3451707
   8.9104053  13.3656746  40.6985283   9.1401550  12.7380901  41.3837910
   8.2825348  12.8989368  40.1470184  11.4301419  58.8684034   7.9129261
  11.0754764  59.4257593   7.2202522  11.7426872  59.4821072   8.5776913
  56.0073280  57.4291658  13.6410916  56.5047264  58.2388735  13.7559652
  55.7683134  57.4243450  12.7142251  81.2342099  36.1316375  47.4878499
  80.5987528  36.4100150  48.1473443  81.5655616  36.9484643  47.1147081
  56.3427353  78.4460592  19.9799466  56.5662050  78.0960035  19.1175365
  55.4572773  78.7941885  19.8750341   0.9644363  30.1287297  62.1075138
   0.2339718  29.5136098  62.1729681   0.5561897  30.9925012  62.1663472
  23.0831718  71.9207525  28.7470698  23.2753205  72.0466852  29.6762896
  23.8839126  71.5400457  28.3863592  53.5641050  45.9308290  20.2380562
  53.2508039  46.6607952  20.7721162  53.3824825  45.1529503  20.7654524
  18.4491777  39.7731519   7.1532959  18.5457885  40.1250172   6.2683731
  19.3326724  39.8024225   7.5204635  45.8340931  67.1790457  44.8764753
  46.5125322  67.6001883  45.4042912  45.1769590  66.8962479  45.5124235
  21.5015027  43.9334325  67.9041576  22.3914239  43.5827474  67.8682583
  21.5162275  44.5495824  68.6365352  82.7187398   4.6596580  27.1292090
  83.1946423   4.1583973  26.4670253  83.2307961   5.4612022  27.2366810
  32.6643944  34.9491096  17.6805592  33.4853077  35.3963900  17.4749529
  32.8035736  34.0476656  17.3902786  29.9379611  64.3421841  18.3870363
  30.7483625  64.6472931  18.7949467  30.1288557  64.3377399  17.4490750
   3.2345173  14.3981224  22.4808717   2.4574157  14.8142105  22.8539896
   3.0270311  14.2921596  21.5524578  60.5074551   5.8276516  35.2462125
  60.7972482   6.7345100  35.3454471  59.6185258   5.8200603  35.6011486
  20.3815150  68.6173153  14.8344386  20.5918217  69.4994593  14.5281291
  19.8562491  68.7562847  15.6224835  28.9773202  33.6516333  26.7796731
  28.9642072  33.1495309  27.5945067  28.0541873  33.8021564  26.5762115
  55.7361582   2.5962024  16.5672195  55.7010296   3.1146579  15.7633543
  55.5147245   1.7075210  16.2889314  19.7735021  44.3157605  59.4548532
  19.6598193  45.0570516  58.8600442  20.2678678  44.6738939  60.1921281
  74.5072177  15.0358562  55.7296547  74.0793541  14.3126420  56.1880538
  73.7970498  15.4783801  55.2648279   3.4707758  47.1502046  61.9801304
   3.7504980  46.2439660  61.8508080   2.9492805  47.3530416  61.2035152
   9.6828601  16.9674567  63.1303283   9.8602602  17.8888826  62.9412815
  10.0909254  16.4916591  62.4069115  30.1076674  32.3201394   0.2921293
  30.3227353  32.0176148   1.1744305  30.0166297  31.5171504  -0.2208544
  17.6537991  59.1839170  21.8518209  16.7780161  59.1952276  21.4656758
  18.1853437  58.6924601  21.2255931  82.3865915  66.3161253  62.9451653
  81.9025922  66.9216703  63.5066757  82.1139074  66.5437816  62.0563194
  60.9064105  13.3376842   3.6863983  61.6272762  12.8771167   4.1158900
  61.1480477  13.3500343   2.7602828  24.5962596  49.8333311  25.3311682
  23.9391375  50.0331402  25.9978747  25.1710534  50.5987072  25.3244495
  63.5431123  70.1309489  67.9757857  62.8510690  69.4979642  67.7843729
  63.6835981  70.0541686  68.9195015  19.8008406  43.7777138  22.9006910
  19.2185140  43.1176996  22.5245166  20.2708650  44.1387653  22.1490574
  74.2797962  22.2010307  69.3658414  75.1793710  22.0795707  69.0621245
  73.9027313  22.8311805  68.7518686   8.8399103  16.5636497  17.5781453
   8.9744654  15.6163746  17.5497580   8.5804656  16.7417293  18.4821415
  78.8805655  18.4665326  52.6357409  79.3028572  19.3220071  52.5578627
  79.0982750  18.1715659  53.5199508   8.1014583  23.0508069  68.4198950
   7.7802679  22.2462968  68.8271145   8.1387827  23.6838178  69.1369298
  10.4848087  74.4505978  10.4625976  11.2317550  74.0548611  10.0134933
  10.5904889  74.1907883  11.3777828  36.8663955  47.1090221  20.3780985
  36.1364412  46.6413307  20.7838869  36.7628765  48.0145502  20.6705666
  36.0533333  76.7616224   9.5724028  36.9158006  76.9851589   9.2225289
  35.9293318  75.8426905   9.3348736  59.6585753  12.0447975   9.5195717
  60.2852037  12.6052242   9.9772781  59.3419817  11.4409881  10.1914406
  26.5039253  58.5745907   9.9314243  27.1673989  58.5663462   9.2415196
  26.2962294  59.5010519  10.0529230  49.9740460  14.6815735  18.2671559
  50.3910377  15.1061779  17.5174463  49.6896723  15.4056698  18.8248765
  28.9846539  62.9290676  67.2023439  28.9108682  62.9114628  68.1565332
  28.4234834  63.6558962  66.9320917  55.5456090  66.9294571  57.5022623
  55.6659413  67.4547027  56.7111429  54.9303556  67.4345659  58.0338272
  18.2152653  72.0429182   2.9723766  18.6919665  72.4782228   2.2656226
  18.8464582  71.9902325   3.6900473  65.0388172  14.2855411  11.4609838
  64.3462279  14.7892242  11.8885958  64.5872286  13.7884765  10.7789111
  32.5073957  78.6022091  23.1061888  32.7377701  77.7114058  22.8423095
  33.3231330  78.9697742  23.4463382  19.8545167  24.2012481  28.1649610
  20.2291867  24.9473504  27.6967928  18.9170978  24.2466096  27.9767534
  14.3179223   5.4137019  67.8872843  15.2222345   5.7274656  67.8891835
  13.7888286   6.2083797  67.8181373  67.8522730  46.9522285  32.0102215
  67.3916006  46.8700600  31.1751986  68.7758350  47.0215273  31.7684412
  54.0353060  64.0251923   0.4983513  53.5526562  63.9632130  -0.3259288
  54.8587656  63.5676146   0.3287241  70.6719378  32.8031949  68.5931045
  69.8314694  32.6207761  69.0133054  70.5599550  32.5002937  67.6920262
  45.0599241  71.2020922  17.5060380  44.5457363  70.8598995  18.2373011
  45.1814127  72.1290112  17.7117014  75.1941228  78.7615512  58.2070538
  74.3293310  78.8782857  57.8136858  75.2427412  77.8264044  58.4054729
   2.5881577  46.1954594  11.3772845   2.1865994  45.3389835  11.2308896
   3.4571543  45.9961653  11.7256498  62.5623098  29.8587255  50.3206310
  63.3584258  30.2745465  49.9896905  62.0324120  30.5844192  50.6504878
  24.2930076   4.7307424  66.7555869  23.4776256   4.5731811  66.2796017
  24.5512101   3.8681773  67.0804557  54.4217873  63.9964342  24.5594096
  54.9498034  63.1980944  24.5503139  55.0414896  64.6958351  24.3519640
  66.5599253  17.7507358   9.1878986  66.8234876  16.9287162   9.6014810
  67.3840859  18.2019859   9.0052563  82.4951721  72.3325966  64.6927151
  82.3194337  71.6952013  65.3848678  83.2768989  72.7986859  64.9891826
  44.7509670  78.1891012   1.3432764  44.6724892  78.2569838   0.3917172
  45.6338406  78.5059500   1.5339984  42.9740665  22.2285489  29.4415829
  42.5108668  21.5844564  28.9060327  42.2790620  22.7441482  29.8506805
  12.6835597  32.3474312   5.5819404  12.8663409  31.4254904   5.4006952
  13.2897067  32.5778604   6.2860149  85.4354456  59.1523961  39.8895380
  86.2123159  59.6417741  40.1601359  84.7023347  59.6402578  40.2647445
  58.4405592  13.1139904  48.6709738  58.8360718  12.5432926  49.3298388
  58.6853364  13.9986663  48.9423704  39.9200463  77.9526234   3.5385129
  40.2651405  78.0203390   4.4287699  39.3079638  78.6846209   3.4625754
  63.1115770  66.2441540   0.4455105  62.2418833  66.0342550   0.1052043
  63.7011194  66.0907602  -0.2928291  44.0340757  66.6131973  22.6204348
  43.3973980  65.8996487  22.6619196  43.7977600  67.0994234  21.8305135
  33.7521791  61.6944838   2.8311801  34.4719911  62.2456694   3.1382620
  34.1563821  60.8426666   2.6660702  19.3927872   4.5711550   5.1477277
  20.1970506   4.0791282   5.3129655  19.2021930   4.4149414   4.2227942
  40.7814765  80.7200740  43.1909081  40.4885495  80.7383750  44.1020033
  41.5920008  81.2292694  43.1896421  71.2600351  43.0494873  69.9742192
  71.6937900  42.6841442  69.2031074  70.3606678  43.2109918  69.6891130
  74.6440738  55.1970148  22.8482628  74.4195098  56.0937452  22.5999188
  74.2535001  54.6539307  22.1636128  39.9662781  46.3547707  12.9714441
  39.0803576  46.0226774  12.8262162  40.5187416  45.5731106  12.9673326
  16.7904088  29.8900823  63.8873163  17.0648048  30.7836227  64.0935358
  17.1988485  29.7031573  63.0420527  65.1913932   4.1033798   7.6208985
  64.4436672   4.4488292   7.1332502  64.8613742   3.9821582   8.5111934
  57.5103834  11.4383274  15.6446838  56.9967130  11.9225460  16.2911427
  57.5756529  10.5537372  16.0044932  85.3079942  31.7791134  17.7491403
  85.3429940  30.8912426  18.1050634  84.4037536  31.8829017  17.4528170
  17.0902225  11.6998249  19.0943027  17.3396274  11.7715603  18.1729531
  16.1868021  11.3841491  19.0740085  21.1454487  66.9455910   0.9788974
  20.2661157  67.1389580   1.3038829  21.0678959  66.0793972   0.5789962
  60.0433877  12.5328117  26.0849047  59.7000077  12.9730278  26.8624187
  59.5220235  12.8819900  25.3620791  46.9858313  79.5206404   2.0459460
  47.8555346  79.5178556   2.4457490  46.7388725  80.4449558   2.0161751
  30.6502938  45.9430552  14.7587132  31.2227082  46.5106916  14.2426085
  30.9220529  46.0889959  15.6648481   9.5293519  48.5099439  46.8375155
   8.6827156  48.9557580  46.8636486   9.7562811  48.4811238  45.9080502
  60.7751358  64.0910939  68.6287817  61.2835497  63.7707261  69.3738402
  60.3285223  64.8699311  68.9607245  14.4280383  12.7624873  47.1609780
  13.5295961  13.0426053  47.3358175  14.3417213  12.0871143  46.4881822
  83.0462602   0.1949577  68.9899480  83.4916046  -0.6332441  69.1687769
  83.7205175   0.8621005  69.1185157  60.4376841  59.4253159  30.2394605
  59.7852230  59.1113329  29.6134067  60.3238344  60.3756857  30.2476788
  23.8512158  79.7676563   7.6261783  23.7628937  80.6331635   7.2270179
  22.9958463  79.5973921   8.0206209  85.2255944  19.8712568  61.2248769
  85.4017285  19.0456657  61.6761073  84.5815566  19.6448354  60.5539223
  57.9743364  19.5388847   2.7664405  58.7316802  18.9721256   2.9129001
  57.2699335  18.9388328   2.5215238  65.2378443   2.1521145  33.5528517
  66.1463526   2.1707206  33.8536859  65.1125481   2.9950863  33.1170297
  71.3987318  37.0314674  68.4667239  70.5459908  36.7741183  68.1162456
  71.3764408  36.7504243  69.3814637  31.3818598  63.4102631  15.7394803
  32.2752333  63.5703611  16.0435951  31.3137960  63.9069653  14.9240744
  18.5456798  38.6671380  67.1744576  18.1737468  38.3392791  66.3556749
  18.7408969  39.5873288  66.9973162  69.5033744  13.7135273  13.9686179
  69.4670060  14.4789272  14.5422542  69.8210147  14.0554290  13.1328905
  63.6744881  67.8987837  24.3918443  63.8638639  68.3641243  23.5770893
  64.5186520  67.5386763  24.6637678  65.4964164  39.3896061  34.5388746
  64.6831754  39.1284805  34.9709392  65.5410316  40.3374057  34.6650648
  10.0189230  41.4801721  61.8894747   9.9124310  41.7484788  60.9768394
  10.1227853  42.3014573  62.3700163  83.8845971  31.4913135   3.1052446
  83.9437154  30.6111389   2.7337170  83.4784129  32.0157772   2.4151886
  19.8495245  77.2214127   0.4618443  20.5411673  76.9817114   1.0786162
  20.3111291  77.4037886  -0.3566257  15.7774317  60.9777641  38.8429761
  15.6124175  60.8222723  37.9130173  16.2116587  60.1802826  39.1457939
  62.0312765   7.5372654  19.0068841  62.9437354   7.3254448  19.2038095
  61.7179063   6.7925506  18.4936321  28.7195659  57.5915146  16.7897689
  27.9561353  57.6987457  17.3571372  28.3518553  57.3973989  15.9275973
  77.7679062  61.9430447  10.0987256  76.9441223  61.5350008  10.3654039
  78.3501244  61.2068176   9.9110454  34.4072387  27.3777608  58.0561015
  35.3298661  27.5037221  57.8344592  33.9602325  28.1217984  57.6525804
  49.0489343  29.2290073  16.2996793  48.0966475  29.3243843  16.3165224
  49.3107822  29.5892959  15.4524136  62.0968821   7.9858356   5.8370346
  61.3666060   8.2087951   5.2597815  62.4271872   8.8306671   6.1426318
   1.6224834   4.4896656  68.0408287   1.8306801   4.0082794  68.8415480
   0.6732151   4.4057804  67.9509020   0.9068985  71.6017771  36.5765953
   1.3505295  71.7896461  35.7494736   1.3953567  72.1029902  37.2296071
  12.1346447   0.2789741  23.7569451  12.7318212   0.8884102  24.1907668
  12.7086565  -0.3698677  23.3498263   3.7701431  79.1544179  55.1255974
   3.8793293  78.2699136  55.4748151   2.8444401  79.2053346  54.8874804
  27.8938815  14.8066215  62.4254998  28.6476705  14.6614055  61.8537077
  28.1411979  14.3996696  63.2558361  86.1460594  39.0477161  61.7094830
  85.7258848  38.5776548  62.4297091  85.5809239  38.8838319  60.9545043
  71.9379848  65.2354956   2.0520988  72.0672792  65.4482460   2.9763559
  71.7629176  66.0787821   1.6344264   6.5154338  29.6166015  18.9965463
   6.4538634  29.4767547  18.0516207   5.6988502  30.0597858  19.2267859
  72.7241069  74.5712614   4.9454454  73.4484821  73.9751053   5.1354623
  72.0352107  74.0069103   4.5945048   5.3900713  40.2957678  11.4954996
   5.5050844  40.8485031  12.2684741   4.6515894  40.6871510  11.0289192
  21.8842459  53.7642765   3.9036819  21.6948771  53.2230234   4.6701103
  21.5357399  53.2644606   3.1654698  70.7478181  13.5723428  40.8713457
  70.6940893  14.0666846  40.0534388  71.4171985  14.0271310  41.3825509
  16.5166807  54.8536110   3.0622789  16.1161339  54.0500736   3.3941296
  15.9910345  55.0846577   2.2964174  12.7718732   9.5797424  31.4719412
  12.0790383   9.2709808  30.8880946  13.5730312   9.5048217  30.9535214
  26.8437362  41.2386322   8.3945304  26.6155457  41.9613123   7.8098136
  26.6737175  41.5785170   9.2730534  57.8195901   2.8706435  56.1347291
  57.1196726   2.8928260  55.4821536  57.5995879   3.5737018  56.7459068
  28.0741382  19.6693420  43.1413507  27.4923277  19.5007193  43.8824940
  28.8321424  19.1064858  43.2990026  13.2760274  27.4846196  30.5969667
  14.0366375  27.5000596  31.1778855  13.5556185  27.9739046  29.8232341
  52.3659611  55.7198429   8.5125363  51.8555641  56.0115433   7.7571326
  51.8759251  54.9742556   8.8592249  50.4752731  62.4834061   1.2735522
  49.7383785  62.3309517   1.8651393  51.2406349  62.1782827   1.7607392
  12.9269120  29.4555787  57.7904078  12.8663108  30.0258474  57.0240197
  12.0415876  29.1091184  57.9017576  55.9186674  65.3487133  46.6772363
  55.6418229  65.4811095  45.7705614  55.5673504  66.1046384  47.1477529
  46.3133621  69.1532278  16.3353050  45.9503174  69.8787260  16.8433273
  45.8810568  68.3748484  16.6866839  58.6412144  14.3138945  18.9015746
  59.2856932  14.0473223  19.5571768  59.0504456  14.1007626  18.0629253
  35.0624561  51.0061836   6.8215638  34.6214199  51.8379593   6.6487432
  35.9941101  51.2052584   6.7287123  64.0362358  67.0029068  27.9296398
  64.6102047  67.7674341  27.9775238  64.5260143  66.3680792  27.4068189
   9.7813570  62.6820517  31.6736794   9.7837728  61.7486382  31.8857193
  10.3124750  62.7487803  30.8801484  25.4523945  61.0915756  10.2661586
  24.5651555  61.4480209  10.3107142  25.8668399  61.3782787  11.0799575
  10.0389788   7.2051982  59.7900566  10.2816102   6.7649869  60.6046572
  10.7459662   7.8320197  59.6367738  77.8902698  60.1177977  28.3818218
  76.9781900  60.4028855  28.4372446  77.8458953  59.1627286  28.4277078
  63.8394642  76.0702229  14.3226564  64.5504189  76.6054869  13.9701426
  63.1445646  76.6971397  14.5234680  62.5304988  14.8780780  13.0192900
  62.1863392  14.1131931  13.4805155  62.4730518  15.5887561  13.6579347
  42.2469139  27.9220891  16.4302194  42.3244286  27.0008039  16.6781282
  42.3553133  27.9241443  15.4791808  71.0389638  51.0966109  59.1447875
  70.8176065  50.4330890  58.4913573  70.6329561  51.8994556  58.8179406
   6.7741996  26.9744825  15.8614421   6.5686005  26.3517594  15.1641798
   7.2143328  26.4491272  16.5296590   3.4896225  34.6199183  62.3885688
   4.1670269  33.9443992  62.4206653   2.7833599  34.2267101  61.8759212
  15.4562104  34.1036057  17.0535660  14.9222839  33.8835454  16.2901998
  16.1031604  33.3999586  17.1042371  85.7733135   4.2730919  13.0410910
  85.1202202   4.8041964  12.5854278  86.3808665   3.9990756  12.3540497
  36.4700007  54.5981598  11.0245240  35.7224703  54.3613863  10.4755509
  37.2171903  54.1655111  10.6113029  43.0740976   0.6919771  11.7748046
  42.5476027   0.0289309  11.3282537  43.3632565   0.2650227  12.5812340
  85.3126314  48.2795171  26.9592020  85.6118086  47.6013879  27.5648901
  84.7529248  47.8149347  26.3370058  76.6782976  72.6877259  48.4464022
  76.5498806  72.4021433  47.5418660  76.0788799  73.4265374  48.5516998
   9.4667286  29.2814469  19.0074742   8.5205120  29.1524577  18.9421451
   9.8000872  29.0528536  18.1398046  81.2646231  20.3007436   1.0198145
  80.5984604  19.7937679   1.4839630  81.1183572  20.0990224   0.0956143
  17.0721910   2.3676042  55.2274617  17.8315541   2.9348640  55.3609487
  16.9499108   2.3505048  54.2782578  13.1899068  21.3088922  51.2975368
  14.1285178  21.4860944  51.2355861  13.0399654  21.1341504  52.2266290
  82.1054724  27.2297553  58.7975416  82.9732350  27.6318578  58.8367054
  81.6812995  27.6479701  58.0482694  66.2230968  54.4090605  26.1642337
  66.9419193  53.8880062  25.8064270  66.5997648  54.8429871  26.9297814
  39.3141627  60.4572725   5.9800273  38.6402225  60.6443024   6.6335213
  40.0990820  60.2660418   6.4934134  79.4562119  45.3449631  35.6123257
  79.4222784  46.2556267  35.3194547  80.3769529  45.1969051  35.8280730
  73.0405238  -0.0417179  15.0430429  72.2801688  -0.4371495  15.4693341
  73.0843690   0.8434921  15.4045868  73.4133053  53.4240055  20.8676243
  73.9434338  53.2546711  20.0888300  72.6709127  53.9352036  20.5455017
  34.2558622  81.2987614  11.2173021  34.4868302  80.4130077  10.9374237
  33.5997534  81.1700630  11.9022763  82.7512983  15.5581884  38.8174435
  81.8113879  15.7374076  38.7913486  83.0975083  16.1868838  39.4507787
  26.9216916   6.3225297  62.5006923  26.8763253   5.9625177  63.3864495
  26.9147584   7.2713165  62.6271358  18.8156745  20.6392554  34.8506328
  19.1085288  20.0766591  34.1337249  18.1893918  21.2384013  34.4444057
   8.4031698   1.3820485  60.9948328   8.3918831   1.2487725  60.0470242
   9.1122458   2.0083980  61.1402002  26.5826702  29.2197418  11.4516425
  26.1111665  29.9656296  11.8225420  26.2816405  28.4681654  11.9622767
  67.4504519  79.3303585  30.9788632  67.4755716  78.5071611  30.4910707
  66.5510845  79.3905592  31.3009572  47.1788621  75.3469156  56.0449716
  47.9113627  75.9321879  55.8522782  46.8194640  75.6762265  56.8687555
   2.3010582  71.1604785  44.7222611   1.4442915  70.8990906  44.3848368
   2.2745127  70.9268044  45.6501195  17.0530984   4.6739892  33.8301751
  16.3677499   5.2940730  34.0792200  16.6127155   4.0487174  33.2545611
  67.1885398   4.1421276   1.7148788  67.5793579   3.7601524   0.9290089
  67.8075698   3.9351993   2.4150318  27.5688455  22.2490148  69.7371825
  28.5072324  22.1822004  69.9137974  27.4784610  21.9882182  68.8206410
  80.7780316   1.8786483  17.9576612  81.0498336   2.2020870  18.8165796
  80.1724294   1.1632496  18.1517816  58.8305083  14.2999438  68.8911635
  58.5609617  13.4209851  68.6246940  59.6846378  14.1735820  69.3043542
  56.8166637  64.3156433  18.6290300  57.6029062  64.5946264  18.1597507
  56.8887997  64.7338152  19.4870269   4.7909170  14.2777181  12.4965644
   5.4076445  14.3811703  13.2212555   4.7789949  13.3361363  12.3247671
   4.3925497  32.3343019  32.7762887   4.8916456  32.0462064  33.5405776
   3.6278364  31.7588548  32.7587840  28.8393021  27.4439454   4.2828870
  28.7508273  27.0283985   5.1406312  28.1580544  28.1162500   4.2710420
   4.1576216  23.6815719  68.6809760   4.5979330  22.8319720  68.7041213
   4.0738842  23.9330749  69.6007399  14.1473329  54.6287632  27.8429413
  14.3458796  54.5423222  26.9105577  14.5857131  55.4376078  28.1071901
  85.3934220   6.4109019  43.4841391  86.3398174   6.4276389  43.3417150
  85.0222138   6.2791566  42.6117417  66.5875530  23.4028721   2.6156026
  66.7055655  22.7991199   3.3489442  67.4422169  23.8205934   2.5093499
  28.4143159  15.8904390  69.5155765  28.7819431  15.2835349  70.1580318
  29.1317365  16.0549907  68.9036458  23.7140870  72.8786039  33.9912939
  23.2110929  72.0954704  34.2147541  24.0388036  73.2025242  34.8314524
  72.2840810  73.4086846  62.1183380  73.1691957  73.5831307  61.7983702
  71.8236566  74.2415165  62.0152512  66.7388034  78.5887526  63.6240461
  67.6951504  78.5961913  63.6637273  66.4933062  77.7145694  63.9269802
  67.9372215  30.9446287   2.8211194  67.2455168  30.5291915   3.3360815
  68.5761404  30.2476788   2.6718742  31.4520499  12.1375732  35.0257322
  31.2499091  12.4894742  35.8926460  31.3743016  12.8891353  34.4380733
  20.6811470  56.7153524  51.8483207  20.7833094  56.9936310  52.7584609
  19.7866816  56.9680213  51.6195747  84.7463325  19.5545367  46.5137741
  85.2826575  20.1066665  45.9447929  85.2267102  19.5253495  47.3411915
  28.2451510  43.0979013  19.9353886  27.5245190  42.4714184  19.8687625
  28.9680743  42.5927210  20.3074169  26.7674796  29.3885856   4.2532521
  25.8234155  29.4988876   4.1400760  27.1564388  30.0373989   3.6667514
  24.5306230  42.3536491  16.9729578  25.1433086  42.6834726  16.3156426
  24.7520542  41.4267826  17.0630598  63.8265205  76.2888001  50.6656799
  63.3196354  76.8200706  50.0516340  63.2246900  76.1212944  51.3909194
  68.5071566   4.5852142  37.1071982  67.9423240   4.4311004  37.8644609
  69.3397477   4.8705154  37.4835300
  85.8780175  85.8780175  85.8780175 109.4712190 109.4712190 109.4712190
